
                                 *****************
                                 * O   R   C   A *
                                 *****************

           --- An Ab Initio, DFT and Semiempirical electronic structure package ---

                  #######################################################
                  #                        -***-                        #
                  #          Department of theory and spectroscopy      #
                  #               Directorship: Frank Neese             #
                  #        Max Planck Institute fuer Kohlenforschung    #
                  #                Kaiser Wilhelm Platz 1               #
                  #                 D-45470 Muelheim/Ruhr               #
                  #                      Germany                        #
                  #                                                     #
                  #                  All rights reserved                #
                  #                        -***-                        #
                  #######################################################


                         Program Version 4.2.0 -  RELEASE  -


 With contributions from (in alphabetic order):
   Daniel Aravena         : Magnetic Suceptibility
   Michael Atanasov       : Ab Initio Ligand Field Theory (pilot matlab implementation)
   Alexander A. Auer      : GIAO ZORA, VPT2
   Ute Becker             : Parallelization
   Giovanni Bistoni       : ED, misc. LED, open-shell LED, HFLED
   Martin Brehm           : Molecular dynamics
   Dmytro Bykov           : SCF Hessian
   Vijay G. Chilkuri      : MRCI spin determinant printing, contributions to CSF-ICE
   Dipayan Datta          : RHF DLPNO-CCSD density
   Achintya Kumar Dutta   : EOM-CC, STEOM-CC
   Dmitry Ganyushin       : Spin-Orbit,Spin-Spin,Magnetic field MRCI
   Miquel Garcia          : C-PCM Hessian, Gaussian charge scheme
   Yang Guo               : DLPNO-NEVPT2, CIM, IAO-localization
   Andreas Hansen         : Spin unrestricted coupled pair/coupled cluster methods
   Benjamin Helmich-Paris : CASSCF linear response (MC-RPA)
   Lee Huntington         : MR-EOM, pCC
   Robert Izsak           : Overlap fitted RIJCOSX, COSX-SCS-MP3, EOM
   Christian Kollmar      : KDIIS, OOCD, Brueckner-CCSD(T), CCSD density
   Simone Kossmann        : Meta GGA functionals, TD-DFT gradient, OOMP2, MP2 Hessian
   Martin Krupicka        : AUTO-CI
   Lucas Lang             : DCDCAS
   Dagmar Lenk            : GEPOL surface, SMD
   Dimitrios Liakos       : Extrapolation schemes; Compound Job, initial MDCI parallelization
   Dimitrios Manganas     : Further ROCIS development; embedding schemes
   Dimitrios Pantazis     : SARC Basis sets
   Taras Petrenko         : DFT Hessian,TD-DFT gradient, ASA, ECA, R-Raman, ABS, FL, XAS/XES, NRVS
   Peter Pinski           : DLPNO-MP2, DLPNO-MP2 Gradient
   Christoph Reimann      : Effective Core Potentials
   Marius Retegan         : Local ZFS, SOC
   Christoph Riplinger    : Optimizer, TS searches, QM/MM, DLPNO-CCSD(T), (RO)-DLPNO pert. Triples
   Tobias Risthaus        : Range-separated hybrids, TD-DFT gradient, RPA, STAB
   Michael Roemelt        : Original ROCIS implementation
   Masaaki Saitow         : Open-shell DLPNO-CCSD energy and density
   Barbara Sandhoefer     : DKH picture change effects
   Avijit Sen             : IP-ROCIS
   Kantharuban Sivalingam : CASSCF convergence, NEVPT2, FIC-MRCI
   Bernardo de Souza      : ESD, SOC TD-DFT
   Georgi Stoychev        : AutoAux, RI-MP2 NMR
   Willem Van den Heuvel  : Paramagnetic NMR
   Boris Wezisla          : Elementary symmetry handling
   Frank Wennmohs         : Technical directorship


 We gratefully acknowledge several colleagues who have allowed us to
 interface, adapt or use parts of their codes:
   Stefan Grimme, W. Hujo, H. Kruse,             : VdW corrections, initial TS optimization,
                  C. Bannwarth                     DFT functionals, gCP, sTDA/sTD-DF
   Ed Valeev, F. Pavosevic, A. Kumar             : LibInt (2-el integral package), F12 methods
   Garnet Chan, S. Sharma, J. Yang, R. Olivares  : DMRG
   Ulf Ekstrom                                   : XCFun DFT Library
   Mihaly Kallay                                 : mrcc  (arbitrary order and MRCC methods)
   Andreas Klamt, Michael Diedenhofen            : otool_cosmo (COSMO solvation model)
   Jiri Pittner, Ondrej Demel                    : Mk-CCSD
   Frank Weinhold                                : gennbo (NPA and NBO analysis)
   Christopher J. Cramer and Donald G. Truhlar   : smd solvation model
   Lars Goerigk                                  : TD-DFT with DH, B97 family of functionals
   V. Asgeirsson, H. Jonsson                     : NEB implementation
   FAccTs GmbH                                   : IRC, NEB, NEB-TS, Multilevel, MM, QM/MM, CI optimization
   S Lehtola, MJT Oliveira, MAL Marques          : LibXC Library


 Your calculation uses the libint2 library for the computation of 2-el integrals
 For citations please refer to: http://libint.valeyev.net

 Your ORCA version has been built with support for libXC version: 4.2.3
 For citations please refer to: https://tddft.org/programs/libxc/

 This ORCA versions uses:
   CBLAS   interface :  Fast vector & matrix operations
   LAPACKE interface :  Fast linear algebra routines
   SCALAPACK package :  Parallel linear algebra routines


Your calculation utilizes the atom-pairwise dispersion correction
with the zero-damping scheme (D30)
Cite in your paper:
S.Grimme, J.Antony, S.Ehrlich and H.Krieg, J.Chem.Phys., 132, (2010), 154104 
   

XCFun DFT library Copyright 2009-2010 Ulf Ekstrom and contributors.
See http://admol.org/xcfun for more information. This is free soft-
ware; see the source code for copying conditions. There is ABSOLUTELY
NO WARRANTY; not even for MERCHANTABILITY or FITNESS FOR A PARTICULAR
PURPOSE. For details see the documentation. Scientific users of this 
library should cite U. Ekstrom, L. Visscher, R. Bast, A. J. Thorvald-
sen and K. Ruud; J.Chem.Theor.Comp. 2010, DOI: 10.1021/ct100117s
XCFun Version 0.99 
----- Orbital basis set information -----
Your calculation utilizes the basis: def2-TZVPPD
   F. Weigend and R. Ahlrichs, Phys. Chem. Chem. Phys. 7, 3297 (2005).
   D. Rappoport and F. Furche, J. Chem. Phys. 133 134105 (2010).

----- AuxJK basis set information -----
Your calculation utilizes the auxiliary basis: def2/JK
   H-Ba, Hf-Rn: F. Weigend, J. Comput. Chem. 29, 167 (2008).

================================================================================
                                        WARNINGS
                       Please study these warnings very carefully!
================================================================================


WARNING: your system is open-shell and RHF/RKS was chosen
  ===> : WILL SWITCH to UHF/UKS


WARNING: Minnesota functionals are quite sensitive to the integration grid.
         see SE Wheeler, KN Houk, JCTC 2010, 6, 395,
             N Mardirossian, M Head-Gordon, JCTC 2016, 12, 4303.
         Grid6 seems to be a minimum grid for reliable results with these functionals!
  ===> : Please increase the integration grid!


INFO   : the flag for use of LIBINT has been found!

================================================================================
                                       INPUT FILE
================================================================================
NAME = CH3.in
|  1> #
|  2> # CH3 M06-D3/Def2-TZVPPD
|  3> #
|  4> ! m06 d3zero def2-tzvppd def2/jk grid4 nofinalgrid
|  5> 
|  6> *xyz 0 2
|  7> C          0.00000        0.00000        0.00000
|  8> H          0.00000        0.00000        1.07732
|  9> H          0.93298        0.00000       -0.53866
| 10> H         -0.93298        0.00000       -0.53866
| 11> *
| 12> 
| 13> %maxcore 5000
| 14> 
| 15> %pal
| 16> nprocs = 28
| 17> end
| 18> 
| 19> 
| 20>                          ****END OF INPUT****
================================================================================

                       ****************************
                       * Single Point Calculation *
                       ****************************

---------------------------------
CARTESIAN COORDINATES (ANGSTROEM)
---------------------------------
  C      0.000000    0.000000    0.000000
  H      0.000000    0.000000    1.077320
  H      0.932980    0.000000   -0.538660
  H     -0.932980    0.000000   -0.538660

----------------------------
CARTESIAN COORDINATES (A.U.)
----------------------------
  NO LB      ZA    FRAG     MASS         X           Y           Z
   0 C     6.0000    0    12.011    0.000000    0.000000    0.000000
   1 H     1.0000    0     1.008    0.000000    0.000000    2.035840
   2 H     1.0000    0     1.008    1.763077    0.000000   -1.017920
   3 H     1.0000    0     1.008   -1.763077    0.000000   -1.017920

--------------------------------
INTERNAL COORDINATES (ANGSTROEM)
--------------------------------
 C      0   0   0     0.000000000000     0.00000000     0.00000000
 H      1   0   0     1.077320000000     0.00000000     0.00000000
 H      1   2   0     1.077314381228   120.00017253     0.00000000
 H      1   2   3     1.077314381228   120.00017253   180.00000121

---------------------------
INTERNAL COORDINATES (A.U.)
---------------------------
 C      0   0   0     0.000000000000     0.00000000     0.00000000
 H      1   0   0     2.035839758596     0.00000000     0.00000000
 H      1   2   0     2.035829140655   120.00017253     0.00000000
 H      1   2   3     2.035829140655   120.00017253   180.00000121

---------------------
BASIS SET INFORMATION
---------------------
There are 2 groups of distinct atoms

 Group   1 Type C   : 12s6p3d1f contracted to 6s3p3d1f pattern {621111/411/111/1}
 Group   2 Type H   : 5s3p1d contracted to 3s3p1d pattern {311/111/1}

Atom   0C    basis set group =>   1
Atom   1H    basis set group =>   2
Atom   2H    basis set group =>   2
Atom   3H    basis set group =>   2
----------------------------------
AUXILIARY/JK BASIS SET INFORMATION
----------------------------------
There are 2 groups of distinct atoms

 Group   1 Type C   : 14s10p6d2f1g contracted to 10s8p5d1f1g pattern {5111111111/31111111/21111/2/1}
 Group   2 Type H   : 4s2p2d contracted to 2s2p2d pattern {31/11/11}

Atom   0C    basis set group =>   1
Atom   1H    basis set group =>   2
Atom   2H    basis set group =>   2
Atom   3H    basis set group =>   2


           ************************************************************
           *        Program running with 28 parallel MPI-processes    *
           *              working on a common directory               *
           ************************************************************
------------------------------------------------------------------------------
                           ORCA GTO INTEGRAL CALCULATION
------------------------------------------------------------------------------

                         BASIS SET STATISTICS AND STARTUP INFO

 # of primitive gaussian shells          ...   49
 # of primitive gaussian functions       ...  109
 # of contracted shells                  ...   34
 # of contracted basis functions         ...   88
 Highest angular momentum                ...    3
 Maximum contraction depth               ...    6
 Integral package used                   ... LIBINT
 Integral threshhold            Thresh   ...  1.000e-10
 Primitive cut-off              TCut     ...  1.000e-11


------------------------------ INTEGRAL EVALUATION ----------------------------


 * One electron integrals 
 Pre-screening matrix                    ... done
 Shell pair data                         ... done (   0.000 sec)



           ************************************************************
           *        Program running with 28 parallel MPI-processes    *
           *              working on a common directory               *
           ************************************************************
-------------------------------------------------------------------------------
                                 ORCA SCF
-------------------------------------------------------------------------------

------------
SCF SETTINGS
------------
Hamiltonian:
 Density Functional     Method          .... DFT(GTOs)
 Exchange Functional    Exchange        .... M06
 Correlation Functional Correlation     .... M06
 Gradients option       PostSCFGGA      .... off
 Hybrid DFT is turned on
   Fraction HF Exchange ScalHFX         ....  0.270000
   Scaling of DF-GGA-X  ScalDFX         ....  0.730000
   Scaling of DF-GGA-C  ScalDFC         ....  1.000000
   Scaling of DF-LDA-C  ScalLDAC        ....  1.000000
   Perturbative correction              ....  0.000000
   Density functional embedding theory  .... OFF


General Settings:
 Integral files         IntName         .... CH3
 Hartree-Fock type      HFTyp           .... UHF
 Total Charge           Charge          ....    0
 Multiplicity           Mult            ....    2
 Number of Electrons    NEL             ....    9
 Basis Dimension        Dim             ....   88
 Nuclear Repulsion      ENuc            ....      9.6923735442 Eh

Convergence Acceleration:
 DIIS                   CNVDIIS         .... on
   Start iteration      DIISMaxIt       ....    12
   Startup error        DIISStart       ....  0.200000
   # of expansion vecs  DIISMaxEq       ....     5
   Bias factor          DIISBfac        ....   1.050
   Max. coefficient     DIISMaxC        ....  10.000
 Newton-Raphson         CNVNR           .... off
 SOSCF                  CNVSOSCF        .... off
 Level Shifting         CNVShift        .... on
   Level shift para.    LevelShift      ....    0.2500
   Turn off err/grad.   ShiftErr        ....    0.0010
 Zerner damping         CNVZerner       .... off
 Static damping         CNVDamp         .... on
   Fraction old density DampFac         ....    0.7000
   Max. Damping (<1)    DampMax         ....    0.9800
   Min. Damping (>=0)   DampMin         ....    0.0000
   Turn off err/grad.   DampErr         ....    0.1000
 Fernandez-Rico         CNVRico         .... off

SCF Procedure:
 Maximum # iterations   MaxIter         ....   125
 SCF integral mode      SCFMode         .... Direct
   Integral package                     .... LIBINT
 Reset frequency        DirectResetFreq ....    20
 Integral Threshold     Thresh          ....  1.000e-10 Eh
 Primitive CutOff       TCut            ....  1.000e-11 Eh

Convergence Tolerance:
 Convergence Check Mode ConvCheckMode   .... Total+1el-Energy
 Convergence forced     ConvForced      .... 0
 Energy Change          TolE            ....  1.000e-06 Eh
 1-El. energy change                    ....  1.000e-03 Eh
 DIIS Error             TolErr          ....  1.000e-06


Diagonalization of the overlap matrix:
Smallest eigenvalue                        ... 6.935e-05
Time for diagonalization                   ...    0.002 sec
Threshold for overlap eigenvalues          ... 1.000e-08
Number of eigenvalues below threshold      ... 0
Time for construction of square roots      ...    0.094 sec
Total time needed                          ...    0.096 sec

-------------------
DFT GRID GENERATION
-------------------

General Integration Accuracy     IntAcc      ...  4.670
Radial Grid Type                 RadialGrid  ... Gauss-Chebyshev
Angular Grid (max. acc.)         AngularGrid ... Lebedev-302
Angular grid pruning method      GridPruning ... 3 (G Style)
Weight generation scheme         WeightScheme... Becke
Basis function cutoff            BFCut       ...    1.0000e-10
Integration weight cutoff        WCut        ...    1.0000e-14
Grids for H and He will be reduced by one unit

# of grid points (after initial pruning)     ...  16394 (   0.0 sec)
# of grid points (after weights+screening)   ...  16149 (   0.0 sec)
nearest neighbour list constructed           ...    0.0 sec
Grid point re-assignment to atoms done       ...    0.0 sec
Grid point division into batches done        ...    0.1 sec
Reduced shell lists constructed in    0.1 sec

Total number of grid points                  ...    16149
Total number of batches                      ...      253
Average number of points per batch           ...       63
Average number of grid points per atom       ...     4037
Average number of shells per batch           ...    30.00 (88.24%)
Average number of basis functions per batch  ...    79.09 (89.88%)
Average number of large shells per batch     ...    28.18 (93.94%)
Average number of large basis fcns per batch ...    74.73 (94.48%)
Maximum spatial batch extension              ...   2.57, 19.60,  2.88 au
Average spatial batch extension              ...   0.08,  0.20,  0.07 au

Time for grid setup =    1.944 sec

------------------------------
INITIAL GUESS: MODEL POTENTIAL
------------------------------
Loading Hartree-Fock densities                     ... done
Calculating cut-offs                               ... done
Setting up the integral package                    ... done
Initializing the effective Hamiltonian             ... done
Starting the Coulomb interaction                   ... done (   0.0 sec)
Reading the grid                                   ... done
Mapping shells                                     ... done
Starting the XC term evaluation                    ... done (   0.0 sec)
  promolecular density results
     # of electrons  =      8.998546177
     EX              =     -5.933475092
     EC              =     -0.258962079
     EX+EC           =     -6.192437171
Transforming the Hamiltonian                       ... done (   0.1 sec)
Diagonalizing the Hamiltonian                      ... done (   0.0 sec)
Back transforming the eigenvectors                 ... done (   0.0 sec)
Now organizing SCF variables                       ... done
                      ------------------
                      INITIAL GUESS DONE (   3.1 sec)
                      ------------------
--------------
SCF ITERATIONS
--------------
ITER       Energy         Delta-E        Max-DP      RMS-DP      [F,P]     Damp
               ***  Starting incremental Fock matrix formation  ***
  0    -39.7798155827   0.000000000000 0.02259011  0.00082280  0.1476235 0.7000
  1    -39.7955356829  -0.015720100176 0.02292960  0.00071103  0.0820572 0.7000
                               ***Turning on DIIS***
  2    -39.8028875880  -0.007351905095 0.04434745  0.00162201  0.0351917 0.0000
  3    -39.8135589708  -0.010671382836 0.01744396  0.00044884  0.0421054 0.0000
  4    -39.8163690279  -0.002810057098 0.00616573  0.00017331  0.0057594 0.0000
  5    -39.8164995197  -0.000130491801 0.00386499  0.00006476  0.0018458 0.0000
  6    -39.8165249880  -0.000025468273 0.00086612  0.00002820  0.0007325 0.0000
  7    -39.8165306884  -0.000005700441 0.00037864  0.00000915  0.0001710 0.0000
                 **** Energy Check signals convergence ****

               *****************************************************
               *                     SUCCESS                       *
               *           SCF CONVERGED AFTER   8 CYCLES          *
               *****************************************************


----------------
TOTAL SCF ENERGY
----------------

Total Energy       :          -39.81653087 Eh           -1083.46289 eV

Components:
Nuclear Repulsion  :            9.69237354 Eh             263.74289 eV
Electronic Energy  :          -49.50890442 Eh           -1347.20578 eV
One Electron Energy:          -71.71795045 Eh           -1951.54465 eV
Two Electron Energy:           22.20904603 Eh             604.33887 eV

Virial components:
Potential Energy   :          -79.42727904 Eh           -2161.32614 eV
Kinetic Energy     :           39.61074816 Eh            1077.86326 eV
Virial Ratio       :            2.00519512


DFT components:
N(Alpha)           :        4.999998025709 electrons
N(Beta)            :        3.999999520576 electrons
N(Total)           :        8.999997546285 electrons
E(XC)              :       -4.785797101938 Eh       
DFET-embed. en.    :        0.000000000000 Eh       

---------------
SCF CONVERGENCE
---------------

  Last Energy change         ...   -1.8622e-07  Tolerance :   1.0000e-06
  Last MAX-Density change    ...    2.4310e-05  Tolerance :   1.0000e-05
  Last RMS-Density change    ...    9.8227e-07  Tolerance :   1.0000e-06
  Last DIIS Error            ...    1.7987e-05  Tolerance :   1.0000e-06

             **** THE GBW FILE WAS UPDATED (CH3.gbw) ****
             **** DENSITY FILE WAS UPDATED (CH3.scfp) ****
             **** ENERGY FILE WAS UPDATED (CH3.en.tmp) ****
----------------------
UHF SPIN CONTAMINATION
----------------------

Warning: in a DFT calculation there is little theoretical justification to 
         calculate <S**2> as in Hartree-Fock theory. We will do it anyways
         but you should keep in mind that the values have only limited relevance

Expectation value of <S**2>     :     0.755140
Ideal value S*(S+1) for S=0.5   :     0.750000
Deviation                       :     0.005140

             **** THE GBW FILE WAS UPDATED (CH3.gbw) ****
             **** DENSITY FILE WAS UPDATED (CH3.scfp) ****
----------------
ORBITAL ENERGIES
----------------
                 SPIN UP ORBITALS
  NO   OCC          E(Eh)            E(eV) 
   0   1.0000     -10.242232      -278.7053 
   1   1.0000      -0.699004       -19.0209 
   2   1.0000      -0.434556       -11.8249 
   3   1.0000      -0.434544       -11.8245 
   4   1.0000      -0.240162        -6.5351 
   5   0.0000      -0.016971        -0.4618 
   6   0.0000       0.054735         1.4894 
   7   0.0000       0.054756         1.4900 
   8   0.0000       0.094909         2.5826 
   9   0.0000       0.106544         2.8992 
  10   0.0000       0.106640         2.9018 
  11   0.0000       0.137230         3.7342 
  12   0.0000       0.167087         4.5467 
  13   0.0000       0.167143         4.5482 
  14   0.0000       0.212299         5.7770 
  15   0.0000       0.244653         6.6573 
  16   0.0000       0.255916         6.9638 
  17   0.0000       0.266729         7.2581 
  18   0.0000       0.266747         7.2586 
  19   0.0000       0.274123         7.4593 
  20   0.0000       0.274345         7.4653 
  21   0.0000       0.353679         9.6241 
  22   0.0000       0.353915         9.6305 
  23   0.0000       0.375567        10.2197 
  24   0.0000       0.396259        10.7827 
  25   0.0000       0.409490        11.1428 
  26   0.0000       0.409595        11.1456 
  27   0.0000       0.651479        17.7276 
  28   0.0000       0.683116        18.5885 
  29   0.0000       0.683244        18.5920 
  30   0.0000       0.725448        19.7404 
  31   0.0000       0.725482        19.7414 
  32   0.0000       0.862495        23.4697 
  33   0.0000       0.862628        23.4733 
  34   0.0000       0.950990        25.8777 
  35   0.0000       0.951495        25.8915 
  36   0.0000       0.979807        26.6619 
  37   0.0000       1.175799        31.9951 
  38   0.0000       1.175849        31.9965 
  39   0.0000       1.353355        36.8267 
  40   0.0000       1.359661        36.9982 
  41   0.0000       1.359729        37.0001 
  42   0.0000       1.401773        38.1442 
  43   0.0000       1.401868        38.1468 
  44   0.0000       1.596319        43.4380 
  45   0.0000       1.666232        45.3405 
  46   0.0000       1.746154        47.5153 
  47   0.0000       1.746325        47.5199 
  48   0.0000       2.527440        68.7751 
  49   0.0000       2.527921        68.7882 
  50   0.0000       2.639788        71.8323 
  51   0.0000       2.658985        72.3547 
  52   0.0000       2.658990        72.3548 
  53   0.0000       2.852464        77.6195 
  54   0.0000       2.874279        78.2131 
  55   0.0000       2.881828        78.4185 
  56   0.0000       2.881941        78.4216 
  57   0.0000       2.989709        81.3541 
  58   0.0000       2.993140        81.4475 
  59   0.0000       2.993221        81.4497 
  60   0.0000       3.197632        87.0120 
  61   0.0000       3.441537        93.6490 
  62   0.0000       3.441677        93.6528 
  63   0.0000       3.521265        95.8185 
  64   0.0000       3.641370        99.0867 
  65   0.0000       3.641561        99.0919 
  66   0.0000       3.655318        99.4663 
  67   0.0000       3.655536        99.4722 
  68   0.0000       3.886555       105.7585 
  69   0.0000       3.905963       106.2867 
  70   0.0000       3.913145       106.4821 
  71   0.0000       3.924802       106.7993 
  72   0.0000       3.924838       106.8003 
  73   0.0000       4.116670       112.0203 
  74   0.0000       4.116964       112.0283 
  75   0.0000       4.482984       121.9882 
  76   0.0000       4.609351       125.4268 
  77   0.0000       4.609414       125.4285 
  78   0.0000       4.815022       131.0234 
  79   0.0000       4.815023       131.0234 
  80   0.0000       4.876790       132.7042 
  81   0.0000       4.876929       132.7080 
  82   0.0000       5.392493       146.7372 
  83   0.0000       5.395029       146.8062 
  84   0.0000       5.395048       146.8067 
  85   0.0000       5.459225       148.5531 
  86   0.0000       6.080508       165.4590 
  87   0.0000      23.462216       638.4394 

                 SPIN DOWN ORBITALS
  NO   OCC          E(Eh)            E(eV) 
   0   1.0000     -10.229505      -278.3590 
   1   1.0000      -0.647173       -17.6105 
   2   1.0000      -0.419701       -11.4206 
   3   1.0000      -0.419589       -11.4176 
   4   0.0000      -0.055412        -1.5078 
   5   0.0000      -0.005546        -0.1509 
   6   0.0000       0.057186         1.5561 
   7   0.0000       0.057197         1.5564 
   8   0.0000       0.106049         2.8857 
   9   0.0000       0.106099         2.8871 
  10   0.0000       0.123842         3.3699 
  11   0.0000       0.169989         4.6256 
  12   0.0000       0.176874         4.8130 
  13   0.0000       0.176883         4.8132 
  14   0.0000       0.223653         6.0859 
  15   0.0000       0.244770         6.6605 
  16   0.0000       0.261929         7.1275 
  17   0.0000       0.262036         7.1304 
  18   0.0000       0.273415         7.4400 
  19   0.0000       0.293350         7.9824 
  20   0.0000       0.293545         7.9878 
  21   0.0000       0.363866         9.9013 
  22   0.0000       0.364017         9.9054 
  23   0.0000       0.414175        11.2703 
  24   0.0000       0.423798        11.5321 
  25   0.0000       0.423940        11.5360 
  26   0.0000       0.453012        12.3271 
  27   0.0000       0.656950        17.8765 
  28   0.0000       0.668370        18.1873 
  29   0.0000       0.668458        18.1897 
  30   0.0000       0.734646        19.9907 
  31   0.0000       0.734703        19.9923 
  32   0.0000       0.857907        23.3448 
  33   0.0000       0.858152        23.3515 
  34   0.0000       0.937812        25.5192 
  35   0.0000       0.963618        26.2214 
  36   0.0000       0.999632        27.2014 
  37   0.0000       1.168328        31.7918 
  38   0.0000       1.168356        31.7926 
  39   0.0000       1.333993        36.2998 
  40   0.0000       1.334172        36.3047 
  41   0.0000       1.338996        36.4359 
  42   0.0000       1.388345        37.7788 
  43   0.0000       1.388393        37.7801 
  44   0.0000       1.649046        44.8728 
  45   0.0000       1.677079        45.6356 
  46   0.0000       1.736535        47.2535 
  47   0.0000       1.736555        47.2541 
  48   0.0000       2.466644        67.1208 
  49   0.0000       2.467772        67.1515 
  50   0.0000       2.571919        69.9855 
  51   0.0000       2.574811        70.0642 
  52   0.0000       2.598643        70.7127 
  53   0.0000       2.742162        74.6180 
  54   0.0000       2.824112        76.8480 
  55   0.0000       2.827774        76.9476 
  56   0.0000       2.833736        77.1099 
  57   0.0000       3.028661        82.4141 
  58   0.0000       3.029808        82.4453 
  59   0.0000       3.094581        84.2078 
  60   0.0000       3.198692        87.0408 
  61   0.0000       3.453283        93.9686 
  62   0.0000       3.453546        93.9758 
  63   0.0000       3.515949        95.6738 
  64   0.0000       3.627834        98.7184 
  65   0.0000       3.628158        98.7272 
  66   0.0000       3.644610        99.1749 
  67   0.0000       3.647702        99.2590 
  68   0.0000       3.870590       105.3241 
  69   0.0000       3.885809       105.7382 
  70   0.0000       3.896722       106.0352 
  71   0.0000       3.897093       106.0453 
  72   0.0000       3.912093       106.4535 
  73   0.0000       4.113732       111.9403 
  74   0.0000       4.114895       111.9720 
  75   0.0000       4.437524       120.7512 
  76   0.0000       4.508117       122.6721 
  77   0.0000       4.510837       122.7461 
  78   0.0000       4.727292       128.6362 
  79   0.0000       4.727470       128.6410 
  80   0.0000       4.878233       132.7435 
  81   0.0000       4.880269       132.7989 
  82   0.0000       5.153402       140.2312 
  83   0.0000       5.289894       143.9453 
  84   0.0000       5.289896       143.9454 
  85   0.0000       5.378343       146.3522 
  86   0.0000       6.095159       165.8577 
  87   0.0000      23.428829       637.5309 

                    ********************************
                    * MULLIKEN POPULATION ANALYSIS *
                    ********************************

--------------------------------------------
MULLIKEN ATOMIC CHARGES AND SPIN POPULATIONS
--------------------------------------------
   0 C :   -1.072636    0.874321
   1 H :    0.356846    0.041350
   2 H :    0.357895    0.042164
   3 H :    0.357895    0.042164
Sum of atomic charges         :   -0.0000000
Sum of atomic spin populations:    1.0000000

-----------------------------------------------------
MULLIKEN REDUCED ORBITAL CHARGES AND SPIN POPULATIONS
-----------------------------------------------------
CHARGE
  0 C s       :     3.657502  s :     3.657502
      pz      :     1.221320  p :     3.367906
      px      :     1.222587
      py      :     0.923999
      dz2     :     0.016321  d :     0.046182
      dxz     :     0.019447
      dyz     :     0.000000
      dx2y2   :     0.010413
      dxy     :     0.000000
      f0      :     0.000390  f :     0.001046
      f+1     :     0.000020
      f-1     :    -0.000006
      f+2     :     0.000352
      f-2     :     0.000000
      f+3     :     0.000301
      f-3     :    -0.000011
  1 H s       :     0.611543  s :     0.611543
      pz      :    -0.002143  p :     0.030652
      px      :     0.008347
      py      :     0.024448
      dz2     :    -0.000819  d :     0.000960
      dxz     :     0.001026
      dyz     :     0.000756
      dx2y2   :    -0.000004
      dxy     :     0.000000
  2 H s       :     0.610660  s :     0.610660
      pz      :     0.005363  p :     0.030479
      px      :     0.000468
      py      :     0.024649
      dz2     :     0.000568  d :     0.000966
      dxz     :    -0.000220
      dyz     :     0.000190
      dx2y2   :    -0.000140
      dxy     :     0.000568
  3 H s       :     0.610660  s :     0.610660
      pz      :     0.005363  p :     0.030479
      px      :     0.000468
      py      :     0.024649
      dz2     :     0.000568  d :     0.000966
      dxz     :    -0.000220
      dyz     :     0.000190
      dx2y2   :    -0.000140
      dxy     :     0.000568

SPIN
  0 C s       :    -0.009588  s :    -0.009588
      pz      :    -0.014299  p :     0.896759
      px      :    -0.012941
      py      :     0.923999
      dz2     :    -0.003354  d :    -0.011130
      dxz     :    -0.002194
      dyz     :     0.000000
      dx2y2   :    -0.005582
      dxy     :     0.000000
      f0      :    -0.000580  f :    -0.001719
      f+1     :    -0.000035
      f-1     :    -0.000006
      f+2     :    -0.000565
      f-2     :     0.000000
      f+3     :    -0.000523
      f-3     :    -0.000011
  1 H s       :     0.004965  s :     0.004965
      pz      :     0.006448  p :     0.035348
      px      :     0.004452
      py      :     0.024448
      dz2     :     0.000605  d :     0.001037
      dxz     :    -0.000325
      dyz     :     0.000756
      dx2y2   :     0.000001
      dxy     :     0.000000
  2 H s       :     0.005207  s :     0.005207
      pz      :     0.005013  p :     0.035920
      px      :     0.006258
      py      :     0.024649
      dz2     :    -0.000175  d :     0.001037
      dxz     :     0.000278
      dyz     :     0.000190
      dx2y2   :     0.000176
      dxy     :     0.000568
  3 H s       :     0.005208  s :     0.005208
      pz      :     0.005013  p :     0.035920
      px      :     0.006258
      py      :     0.024649
      dz2     :    -0.000175  d :     0.001037
      dxz     :     0.000278
      dyz     :     0.000190
      dx2y2   :     0.000176
      dxy     :     0.000568


                     *******************************
                     * LOEWDIN POPULATION ANALYSIS *
                     *******************************

-------------------------------------------
LOEWDIN ATOMIC CHARGES AND SPIN POPULATIONS
-------------------------------------------
   0 C :    0.350044    0.735284
   1 H :   -0.116666    0.088263
   2 H :   -0.116689    0.088226
   3 H :   -0.116689    0.088226

----------------------------------------------------
LOEWDIN REDUCED ORBITAL CHARGES AND SPIN POPULATIONS
----------------------------------------------------
CHARGE
  0 C s       :     2.782929  s :     2.782929
      pz      :     1.006586  p :     2.717364
      px      :     1.006690
      py      :     0.704088
      dz2     :     0.050657  d :     0.140206
      dxz     :     0.062442
      dyz     :     0.000000
      dx2y2   :     0.027107
      dxy     :     0.000000
      f0      :     0.003603  f :     0.009457
      f+1     :     0.000119
      f-1     :     0.000396
      f+2     :     0.002919
      f-2     :     0.000000
      f+3     :     0.001762
      f-3     :     0.000659
  1 H s       :     0.762846  s :     0.762846
      pz      :     0.148505  p :     0.322707
      px      :     0.086040
      py      :     0.088161
      dz2     :     0.011153  d :     0.031113
      dxz     :     0.009847
      dyz     :     0.010109
      dx2y2   :     0.000003
      dxy     :     0.000000
  2 H s       :     0.762869  s :     0.762869
      pz      :     0.101637  p :     0.322708
      px      :     0.132886
      py      :     0.088184
      dz2     :     0.005721  d :     0.031112
      dxz     :     0.008740
      dyz     :     0.002528
      dx2y2   :     0.006542
      dxy     :     0.007581
  3 H s       :     0.762869  s :     0.762869
      pz      :     0.101637  p :     0.322708
      px      :     0.132886
      py      :     0.088184
      dz2     :     0.005721  d :     0.031112
      dxz     :     0.008740
      dyz     :     0.002528
      dx2y2   :     0.006542
      dxy     :     0.007581

SPIN
  0 C s       :     0.014431  s :     0.014431
      pz      :     0.012867  p :     0.729828
      px      :     0.012873
      py      :     0.704088
      dz2     :    -0.002617  d :    -0.008674
      dxz     :    -0.001851
      dyz     :     0.000000
      dx2y2   :    -0.004206
      dxy     :     0.000000
      f0      :    -0.000474  f :    -0.000301
      f+1     :    -0.000028
      f-1     :     0.000396
      f+2     :    -0.000458
      f-2     :     0.000000
      f+3     :    -0.000396
      f-3     :     0.000659
  1 H s       :    -0.016483  s :    -0.016483
      pz      :     0.006294  p :     0.093614
      px      :    -0.000842
      py      :     0.088161
      dz2     :     0.000919  d :     0.011133
      dxz     :     0.000105
      dyz     :     0.010109
      dx2y2   :    -0.000001
      dxy     :     0.000000
  2 H s       :    -0.016548  s :    -0.016548
      pz      :     0.000960  p :     0.093643
      px      :     0.004498
      py      :     0.088184
      dz2     :     0.000090  d :     0.011132
      dxz     :     0.000628
      dyz     :     0.002528
      dx2y2   :     0.000305
      dxy     :     0.007581
  3 H s       :    -0.016548  s :    -0.016548
      pz      :     0.000960  p :     0.093643
      px      :     0.004498
      py      :     0.088184
      dz2     :     0.000090  d :     0.011132
      dxz     :     0.000628
      dyz     :     0.002528
      dx2y2   :     0.000305
      dxy     :     0.007581


                      *****************************
                      * MAYER POPULATION ANALYSIS *
                      *****************************

  NA   - Mulliken gross atomic population
  ZA   - Total nuclear charge
  QA   - Mulliken gross atomic charge
  VA   - Mayer's total valence
  BVA  - Mayer's bonded valence
  FA   - Mayer's free valence

  ATOM       NA         ZA         QA         VA         BVA        FA
  0 C      7.0726     6.0000    -1.0726     3.4206     2.5615     0.8591
  1 H      0.6432     1.0000     0.3568     0.8788     0.8774     0.0014
  2 H      0.6421     1.0000     0.3579     0.8785     0.8771     0.0014
  3 H      0.6421     1.0000     0.3579     0.8785     0.8771     0.0014

  Mayer bond orders larger than 0.100000
B(  0-C ,  1-H ) :   0.8542 B(  0-C ,  2-H ) :   0.8537 B(  0-C ,  3-H ) :   0.8537 


-------
TIMINGS
-------

Total SCF time: 0 days 0 hours 2 min 18 sec 

Total time                  ....     138.183 sec
Sum of individual times     ....     136.662 sec  ( 98.9%)

Fock matrix formation       ....     129.319 sec  ( 93.6%)
  XC integration            ....     127.303 sec  ( 98.4% of F)
    Basis function eval.    ....       0.018 sec  (  0.0% of XC)
    Density eval.           ....       0.041 sec  (  0.0% of XC)
    XC-Functional eval.     ....       0.053 sec  (  0.0% of XC)
    XC-Potential eval.      ....       0.086 sec  (  0.1% of XC)
Diagonalization             ....       2.506 sec  (  1.8%)
Density matrix formation    ....       0.005 sec  (  0.0%)
Population analysis         ....       1.700 sec  (  1.2%)
Initial guess               ....       1.126 sec  (  0.8%)
Orbital Transformation      ....       0.000 sec  (  0.0%)
Orbital Orthonormalization  ....       0.000 sec  (  0.0%)
DIIS solution               ....       0.063 sec  (  0.0%)
Grid generation             ....       1.944 sec  (  1.4%)


-------------------------------------------------------------------------------
                          DFT DISPERSION CORRECTION                            
                                                                               
                              DFTD3 V3.1  Rev 1                                
                              USING zero damping                               
-------------------------------------------------------------------------------
The M06 functional is recognized
Active option DFTDOPT                   ...         3   

molecular C6(AA) [au] = 106.956735 


            DFT-D V3
 parameters
 s6 scaling factor         :     1.0000 
 rs6 scaling factor        :     1.3250 
 s8 scaling factor         :     0.0000 
 rs8 scaling factor        :     1.0000 
 Damping factor alpha6     :    14.0000 
 Damping factor alpha8     :    16.0000 
 ad hoc parameters k1-k3   :    16.0000     1.3333    -4.0000 

 Edisp/kcal,au: -0.001103787233  -0.000001758997 
 E6   /kcal   :  -0.001103787 
 E8   /kcal   :  -0.000000000 
 % E8         :   0.000000000 

-------------------------   ----------------
Dispersion correction           -0.000001759
-------------------------   ----------------


-------------------------   --------------------
FINAL SINGLE POINT ENERGY       -39.816532633650
-------------------------   --------------------


                            ***************************************
                            *     ORCA property calculations      *
                            ***************************************

                                    ---------------------
                                    Active property flags
                                    ---------------------
   (+) Dipole Moment


------------------------------------------------------------------------------
                       ORCA ELECTRIC PROPERTIES CALCULATION
------------------------------------------------------------------------------

Dipole Moment Calculation                       ... on
Quadrupole Moment Calculation                   ... off
Polarizability Calculation                      ... off
GBWName                                         ... CH3.gbw
Electron density file                           ... CH3.scfp
The origin for moment calculation is the CENTER OF MASS  = ( 0.000000,  0.000000  0.000000)

-------------
DIPOLE MOMENT
-------------
                                X             Y             Z
Electronic contribution:      0.00000       0.00000       0.00016
Nuclear contribution   :      0.00000       0.00000       0.00000
                        -----------------------------------------
Total Dipole Moment    :      0.00000       0.00000       0.00016
                        -----------------------------------------
Magnitude (a.u.)       :      0.00016
Magnitude (Debye)      :      0.00039



--------------------
Rotational spectrum 
--------------------
 
Rotational constants in cm-1:     9.606423     9.606289     4.803178 
Rotational constants in MHz : 287993.315842 287989.310434 143995.656562 

 Dipole components along the rotational axes: 
x,y,z [a.u.] :     0.000155     0.000000     0.000000 
x,y,z [Debye]:     0.000395     0.000000     0.000000 

 

Timings for individual modules:

Sum of individual times         ...      144.817 sec (=   2.414 min)
GTO integral calculation        ...        5.754 sec (=   0.096 min)   4.0 %
SCF iterations                  ...      139.063 sec (=   2.318 min)  96.0 %
                             ****ORCA TERMINATED NORMALLY****
TOTAL RUN TIME: 0 days 0 hours 4 minutes 32 seconds 179 msec
