
                                 *****************
                                 * O   R   C   A *
                                 *****************

           --- An Ab Initio, DFT and Semiempirical electronic structure package ---

                  #######################################################
                  #                        -***-                        #
                  #          Department of theory and spectroscopy      #
                  #               Directorship: Frank Neese             #
                  #        Max Planck Institute fuer Kohlenforschung    #
                  #                Kaiser Wilhelm Platz 1               #
                  #                 D-45470 Muelheim/Ruhr               #
                  #                      Germany                        #
                  #                                                     #
                  #                  All rights reserved                #
                  #                        -***-                        #
                  #######################################################


                         Program Version 4.2.0 -  RELEASE  -


 With contributions from (in alphabetic order):
   Daniel Aravena         : Magnetic Suceptibility
   Michael Atanasov       : Ab Initio Ligand Field Theory (pilot matlab implementation)
   Alexander A. Auer      : GIAO ZORA, VPT2
   Ute Becker             : Parallelization
   Giovanni Bistoni       : ED, misc. LED, open-shell LED, HFLED
   Martin Brehm           : Molecular dynamics
   Dmytro Bykov           : SCF Hessian
   Vijay G. Chilkuri      : MRCI spin determinant printing, contributions to CSF-ICE
   Dipayan Datta          : RHF DLPNO-CCSD density
   Achintya Kumar Dutta   : EOM-CC, STEOM-CC
   Dmitry Ganyushin       : Spin-Orbit,Spin-Spin,Magnetic field MRCI
   Miquel Garcia          : C-PCM Hessian, Gaussian charge scheme
   Yang Guo               : DLPNO-NEVPT2, CIM, IAO-localization
   Andreas Hansen         : Spin unrestricted coupled pair/coupled cluster methods
   Benjamin Helmich-Paris : CASSCF linear response (MC-RPA)
   Lee Huntington         : MR-EOM, pCC
   Robert Izsak           : Overlap fitted RIJCOSX, COSX-SCS-MP3, EOM
   Christian Kollmar      : KDIIS, OOCD, Brueckner-CCSD(T), CCSD density
   Simone Kossmann        : Meta GGA functionals, TD-DFT gradient, OOMP2, MP2 Hessian
   Martin Krupicka        : AUTO-CI
   Lucas Lang             : DCDCAS
   Dagmar Lenk            : GEPOL surface, SMD
   Dimitrios Liakos       : Extrapolation schemes; Compound Job, initial MDCI parallelization
   Dimitrios Manganas     : Further ROCIS development; embedding schemes
   Dimitrios Pantazis     : SARC Basis sets
   Taras Petrenko         : DFT Hessian,TD-DFT gradient, ASA, ECA, R-Raman, ABS, FL, XAS/XES, NRVS
   Peter Pinski           : DLPNO-MP2, DLPNO-MP2 Gradient
   Christoph Reimann      : Effective Core Potentials
   Marius Retegan         : Local ZFS, SOC
   Christoph Riplinger    : Optimizer, TS searches, QM/MM, DLPNO-CCSD(T), (RO)-DLPNO pert. Triples
   Tobias Risthaus        : Range-separated hybrids, TD-DFT gradient, RPA, STAB
   Michael Roemelt        : Original ROCIS implementation
   Masaaki Saitow         : Open-shell DLPNO-CCSD energy and density
   Barbara Sandhoefer     : DKH picture change effects
   Avijit Sen             : IP-ROCIS
   Kantharuban Sivalingam : CASSCF convergence, NEVPT2, FIC-MRCI
   Bernardo de Souza      : ESD, SOC TD-DFT
   Georgi Stoychev        : AutoAux, RI-MP2 NMR
   Willem Van den Heuvel  : Paramagnetic NMR
   Boris Wezisla          : Elementary symmetry handling
   Frank Wennmohs         : Technical directorship


 We gratefully acknowledge several colleagues who have allowed us to
 interface, adapt or use parts of their codes:
   Stefan Grimme, W. Hujo, H. Kruse,             : VdW corrections, initial TS optimization,
                  C. Bannwarth                     DFT functionals, gCP, sTDA/sTD-DF
   Ed Valeev, F. Pavosevic, A. Kumar             : LibInt (2-el integral package), F12 methods
   Garnet Chan, S. Sharma, J. Yang, R. Olivares  : DMRG
   Ulf Ekstrom                                   : XCFun DFT Library
   Mihaly Kallay                                 : mrcc  (arbitrary order and MRCC methods)
   Andreas Klamt, Michael Diedenhofen            : otool_cosmo (COSMO solvation model)
   Jiri Pittner, Ondrej Demel                    : Mk-CCSD
   Frank Weinhold                                : gennbo (NPA and NBO analysis)
   Christopher J. Cramer and Donald G. Truhlar   : smd solvation model
   Lars Goerigk                                  : TD-DFT with DH, B97 family of functionals
   V. Asgeirsson, H. Jonsson                     : NEB implementation
   FAccTs GmbH                                   : IRC, NEB, NEB-TS, Multilevel, MM, QM/MM, CI optimization
   S Lehtola, MJT Oliveira, MAL Marques          : LibXC Library


 Your calculation uses the libint2 library for the computation of 2-el integrals
 For citations please refer to: http://libint.valeyev.net

 Your ORCA version has been built with support for libXC version: 4.2.3
 For citations please refer to: https://tddft.org/programs/libxc/

 This ORCA versions uses:
   CBLAS   interface :  Fast vector & matrix operations
   LAPACKE interface :  Fast linear algebra routines
   SCALAPACK package :  Parallel linear algebra routines


Your calculation utilizes the atom-pairwise dispersion correction
with the zero-damping scheme (D30)
Cite in your paper:
S.Grimme, J.Antony, S.Ehrlich and H.Krieg, J.Chem.Phys., 132, (2010), 154104 
   

XCFun DFT library Copyright 2009-2010 Ulf Ekstrom and contributors.
See http://admol.org/xcfun for more information. This is free soft-
ware; see the source code for copying conditions. There is ABSOLUTELY
NO WARRANTY; not even for MERCHANTABILITY or FITNESS FOR A PARTICULAR
PURPOSE. For details see the documentation. Scientific users of this 
library should cite U. Ekstrom, L. Visscher, R. Bast, A. J. Thorvald-
sen and K. Ruud; J.Chem.Theor.Comp. 2010, DOI: 10.1021/ct100117s
XCFun Version 0.99 
----- Orbital basis set information -----
Your calculation utilizes the basis: def2-TZVPPD
   F. Weigend and R. Ahlrichs, Phys. Chem. Chem. Phys. 7, 3297 (2005).
   D. Rappoport and F. Furche, J. Chem. Phys. 133 134105 (2010).

----- AuxJK basis set information -----
Your calculation utilizes the auxiliary basis: def2/JK
   H-Ba, Hf-Rn: F. Weigend, J. Comput. Chem. 29, 167 (2008).

================================================================================
                                        WARNINGS
                       Please study these warnings very carefully!
================================================================================


WARNING: your system is open-shell and RHF/RKS was chosen
  ===> : WILL SWITCH to UHF/UKS


WARNING: Minnesota functionals are quite sensitive to the integration grid.
         see SE Wheeler, KN Houk, JCTC 2010, 6, 395,
             N Mardirossian, M Head-Gordon, JCTC 2016, 12, 4303.
         Grid6 seems to be a minimum grid for reliable results with these functionals!
  ===> : Please increase the integration grid!


INFO   : the flag for use of LIBINT has been found!

================================================================================
                                       INPUT FILE
================================================================================
NAME = CrCH3+.in
|  1> #
|  2> # CrCH3+ M06-D3/Def2-TZVPPD
|  3> #
|  4> ! m06 d3zero def2-tzvppd def2/jk grid4 nofinalgrid
|  5> 
|  6> *xyz 1 5
|  7> C          0.00000        0.00000        0.00000
|  8> H          0.00000        0.00000        1.10000
|  9> H          1.03709        0.00000       -0.36667
| 10> H         -0.51855        0.89815       -0.36667
| 11> Cr        -0.89567       -1.55134       -0.63333
| 12> *
| 13> 
| 14> %maxcore 5000
| 15> 
| 16> %pal
| 17> nprocs = 28
| 18> end
| 19> 
| 20> 
| 21>                          ****END OF INPUT****
================================================================================

                       ****************************
                       * Single Point Calculation *
                       ****************************

---------------------------------
CARTESIAN COORDINATES (ANGSTROEM)
---------------------------------
  C      0.000000    0.000000    0.000000
  H      0.000000    0.000000    1.100000
  H      1.037090    0.000000   -0.366670
  H     -0.518550    0.898150   -0.366670
  Cr    -0.895670   -1.551340   -0.633330

----------------------------
CARTESIAN COORDINATES (A.U.)
----------------------------
  NO LB      ZA    FRAG     MASS         X           Y           Z
   0 C     6.0000    0    12.011    0.000000    0.000000    0.000000
   1 H     1.0000    0     1.008    0.000000    0.000000    2.078699
   2 H     1.0000    0     1.008    1.959816    0.000000   -0.692906
   3 H     1.0000    0     1.008   -0.979917    1.697258   -0.692906
   4 Cr   24.0000    0    52.000   -1.692571   -2.931608   -1.196820

--------------------------------
INTERNAL COORDINATES (ANGSTROEM)
--------------------------------
 C      0   0   0     0.000000000000     0.00000000     0.00000000
 H      1   0   0     1.100000000000     0.00000000     0.00000000
 H      1   2   0     1.100001162272   109.47138339     0.00000000
 H      1   2   3     1.100006551753   109.47128414   239.99986337
 Cr     1   2   3     1.899996692997   109.47114928   120.00009510

---------------------------
INTERNAL COORDINATES (A.U.)
---------------------------
 C      0   0   0     0.000000000000     0.00000000     0.00000000
 H      1   0   0     2.078698747313     0.00000000     0.00000000
 H      1   2   0     2.078700943689   109.47138339     0.00000000
 H      1   2   3     2.078711128333   109.47128414   239.99986337
 Cr     1   2   3     3.590473405121   109.47114928   120.00009510

---------------------
BASIS SET INFORMATION
---------------------
There are 3 groups of distinct atoms

 Group   1 Type C   : 12s6p3d1f contracted to 6s3p3d1f pattern {621111/411/111/1}
 Group   2 Type H   : 5s3p1d contracted to 3s3p1d pattern {311/111/1}
 Group   3 Type Cr  : 17s13p7d2f1g contracted to 6s6p4d2f1g pattern {842111/631111/4111/11/1}

Atom   0C    basis set group =>   1
Atom   1H    basis set group =>   2
Atom   2H    basis set group =>   2
Atom   3H    basis set group =>   2
Atom   4Cr   basis set group =>   3
----------------------------------
AUXILIARY/JK BASIS SET INFORMATION
----------------------------------
There are 3 groups of distinct atoms

 Group   1 Type C   : 14s10p6d2f1g contracted to 10s8p5d1f1g pattern {5111111111/31111111/21111/2/1}
 Group   2 Type H   : 4s2p2d contracted to 2s2p2d pattern {31/11/11}
 Group   3 Type Cr  : 19s14p12d10f7g3h1i contracted to 16s13p11d9f5g3h1i pattern {4111111111111111/2111111111111/21111111111/211111111/31111/111/1}

Atom   0C    basis set group =>   1
Atom   1H    basis set group =>   2
Atom   2H    basis set group =>   2
Atom   3H    basis set group =>   2
Atom   4Cr   basis set group =>   3


           ************************************************************
           *        Program running with 28 parallel MPI-processes    *
           *              working on a common directory               *
           ************************************************************
------------------------------------------------------------------------------
                           ORCA GTO INTEGRAL CALCULATION
------------------------------------------------------------------------------

                         BASIS SET STATISTICS AND STARTUP INFO

 # of primitive gaussian shells          ...   89
 # of primitive gaussian functions       ...  223
 # of contracted shells                  ...   53
 # of contracted basis functions         ...  155
 Highest angular momentum                ...    4
 Maximum contraction depth               ...    8
 Integral package used                   ... LIBINT
 Integral threshhold            Thresh   ...  1.000e-10
 Primitive cut-off              TCut     ...  1.000e-11


------------------------------ INTEGRAL EVALUATION ----------------------------


 * One electron integrals 
 Pre-screening matrix                    ... done
 Shell pair data                         ... done (   0.001 sec)



           ************************************************************
           *        Program running with 28 parallel MPI-processes    *
           *              working on a common directory               *
           ************************************************************
-------------------------------------------------------------------------------
                                 ORCA SCF
-------------------------------------------------------------------------------

------------
SCF SETTINGS
------------
Hamiltonian:
 Density Functional     Method          .... DFT(GTOs)
 Exchange Functional    Exchange        .... M06
 Correlation Functional Correlation     .... M06
 Gradients option       PostSCFGGA      .... off
 Hybrid DFT is turned on
   Fraction HF Exchange ScalHFX         ....  0.270000
   Scaling of DF-GGA-X  ScalDFX         ....  0.730000
   Scaling of DF-GGA-C  ScalDFC         ....  1.000000
   Scaling of DF-LDA-C  ScalLDAC        ....  1.000000
   Perturbative correction              ....  0.000000
   Density functional embedding theory  .... OFF


General Settings:
 Integral files         IntName         .... CrCH3+
 Hartree-Fock type      HFTyp           .... UHF
 Total Charge           Charge          ....    1
 Multiplicity           Mult            ....    5
 Number of Electrons    NEL             ....   32
 Basis Dimension        Dim             ....  155
 Nuclear Repulsion      ENuc            ....     64.9343749420 Eh

Convergence Acceleration:
 DIIS                   CNVDIIS         .... on
   Start iteration      DIISMaxIt       ....    12
   Startup error        DIISStart       ....  0.200000
   # of expansion vecs  DIISMaxEq       ....     5
   Bias factor          DIISBfac        ....   1.050
   Max. coefficient     DIISMaxC        ....  10.000
 Newton-Raphson         CNVNR           .... off
 SOSCF                  CNVSOSCF        .... off
 Level Shifting         CNVShift        .... on
   Level shift para.    LevelShift      ....    0.2500
   Turn off err/grad.   ShiftErr        ....    0.0010
 Zerner damping         CNVZerner       .... off
 Static damping         CNVDamp         .... on
   Fraction old density DampFac         ....    0.7000
   Max. Damping (<1)    DampMax         ....    0.9800
   Min. Damping (>=0)   DampMin         ....    0.0000
   Turn off err/grad.   DampErr         ....    0.1000
 Fernandez-Rico         CNVRico         .... off

SCF Procedure:
 Maximum # iterations   MaxIter         ....   125
 SCF integral mode      SCFMode         .... Direct
   Integral package                     .... LIBINT
 Reset frequency        DirectResetFreq ....    20
 Integral Threshold     Thresh          ....  1.000e-10 Eh
 Primitive CutOff       TCut            ....  1.000e-11 Eh

Convergence Tolerance:
 Convergence Check Mode ConvCheckMode   .... Total+1el-Energy
 Convergence forced     ConvForced      .... 0
 Energy Change          TolE            ....  1.000e-06 Eh
 1-El. energy change                    ....  1.000e-03 Eh
 DIIS Error             TolErr          ....  1.000e-06


Diagonalization of the overlap matrix:
Smallest eigenvalue                        ... 3.767e-05
Time for diagonalization                   ...    0.004 sec
Threshold for overlap eigenvalues          ... 1.000e-08
Number of eigenvalues below threshold      ... 0
Time for construction of square roots      ...    0.181 sec
Total time needed                          ...    0.185 sec

-------------------
DFT GRID GENERATION
-------------------

General Integration Accuracy     IntAcc      ...  4.670
Radial Grid Type                 RadialGrid  ... Gauss-Chebyshev
Angular Grid (max. acc.)         AngularGrid ... Lebedev-302
Angular grid pruning method      GridPruning ... 3 (G Style)
Weight generation scheme         WeightScheme... Becke
Basis function cutoff            BFCut       ...    1.0000e-10
Integration weight cutoff        WCut        ...    1.0000e-14
Grids for H and He will be reduced by one unit

# of grid points (after initial pruning)     ...  26058 (   0.0 sec)
# of grid points (after weights+screening)   ...  25443 (   0.0 sec)
nearest neighbour list constructed           ...    0.0 sec
Grid point re-assignment to atoms done       ...    0.0 sec
Grid point division into batches done        ...    0.1 sec
Reduced shell lists constructed in    0.1 sec

Total number of grid points                  ...    25443
Total number of batches                      ...      402
Average number of points per batch           ...       63
Average number of grid points per atom       ...     5089
Average number of shells per batch           ...    47.00 (88.68%)
Average number of basis functions per batch  ...   140.12 (90.40%)
Average number of large shells per batch     ...    44.88 (95.48%)
Average number of large basis fcns per batch ...   134.12 (95.72%)
Maximum spatial batch extension              ...   1.69,  1.76,  1.53 au
Average spatial batch extension              ...   0.05,  0.05,  0.04 au

Time for grid setup =    3.299 sec

------------------------------
INITIAL GUESS: MODEL POTENTIAL
------------------------------
Loading Hartree-Fock densities                     ... done
Calculating cut-offs                               ... done
Setting up the integral package                    ... done
Initializing the effective Hamiltonian             ... done
Starting the Coulomb interaction                   ... done (   0.0 sec)
Reading the grid                                   ... done
Mapping shells                                     ... done
Starting the XC term evaluation                    ... done (   0.0 sec)
  promolecular density results
     # of electrons  =     32.998539096
     EX              =    -53.193590880
     EC              =     -1.293105305
     EX+EC           =    -54.486696185
Transforming the Hamiltonian                       ... done (   0.0 sec)
Diagonalizing the Hamiltonian                      ... done (   0.0 sec)
Back transforming the eigenvectors                 ... done (   0.0 sec)
Now organizing SCF variables                       ... done
                      ------------------
                      INITIAL GUESS DONE (   4.0 sec)
                      ------------------
--------------
SCF ITERATIONS
--------------
ITER       Energy         Delta-E        Max-DP      RMS-DP      [F,P]     Damp
               ***  Starting incremental Fock matrix formation  ***
  0  -1083.8164769709   0.000000000000 0.07749477  0.00146230  0.2523961 0.7000
  1  -1083.9015753418  -0.085098370886 0.07367257  0.00113894  0.1071695 0.7000
                               ***Turning on DIIS***
  2  -1083.9250699894  -0.023494647571 0.12407040  0.00213722  0.0476326 0.0000
  3  -1083.9747944219  -0.049724432539 0.03800886  0.00052854  0.0643737 0.0000
  4  -1083.9848298906  -0.010035468697 0.01931868  0.00027155  0.0240615 0.0000
  5  -1083.9872268379  -0.002396947258 0.01468140  0.00018522  0.0067474 0.0000
  6  -1083.9879921324  -0.000765294581 0.00979985  0.00012879  0.0027662 0.0000
  7  -1083.9883902658  -0.000398133370 0.00858821  0.00010730  0.0016779 0.0000
  8  -1083.9886346200  -0.000244354220 0.00988335  0.00014227  0.0007490 0.0000
  9  -1083.9888599546  -0.000225334557 0.00552538  0.00008185  0.0006860 0.0000
 10  -1083.9889116960  -0.000051741366 0.00241907  0.00003793  0.0002629 0.0000
 11  -1083.9889211139  -0.000009417934 0.00237807  0.00003323  0.0003504 0.0000
 12  -1083.9889240364  -0.000002922504 0.00022590  0.00000364  0.0000637 0.0000
                 **** Energy Check signals convergence ****

               *****************************************************
               *                     SUCCESS                       *
               *           SCF CONVERGED AFTER  13 CYCLES          *
               *****************************************************


----------------
TOTAL SCF ENERGY
----------------

Total Energy       :        -1083.98892404 Eh          -29496.83821 eV

Components:
Nuclear Repulsion  :           64.93437494 Eh            1766.95417 eV
Electronic Energy  :        -1148.92329899 Eh          -31263.79239 eV
One Electron Energy:        -1612.27265579 Eh          -43872.16938 eV
Two Electron Energy:          463.34935681 Eh           12608.37700 eV

Virial components:
Potential Energy   :        -2166.37185067 Eh          -58949.97502 eV
Kinetic Energy     :         1082.38292663 Eh           29453.13680 eV
Virial Ratio       :            2.00148376


DFT components:
N(Alpha)           :       17.999997665113 electrons
N(Beta)            :       13.999997805638 electrons
N(Total)           :       31.999995470751 electrons
E(XC)              :      -40.532420622882 Eh       
DFET-embed. en.    :        0.000000000000 Eh       

---------------
SCF CONVERGENCE
---------------

  Last Energy change         ...   -7.3060e-09  Tolerance :   1.0000e-06
  Last MAX-Density change    ...    2.8977e-04  Tolerance :   1.0000e-05
  Last RMS-Density change    ...    3.9100e-06  Tolerance :   1.0000e-06
  Last DIIS Error            ...    2.9824e-05  Tolerance :   1.0000e-06

             **** THE GBW FILE WAS UPDATED (CrCH3+.gbw) ****
             **** DENSITY FILE WAS UPDATED (CrCH3+.scfp) ****
             **** ENERGY FILE WAS UPDATED (CrCH3+.en.tmp) ****
----------------------
UHF SPIN CONTAMINATION
----------------------

Warning: in a DFT calculation there is little theoretical justification to 
         calculate <S**2> as in Hartree-Fock theory. We will do it anyways
         but you should keep in mind that the values have only limited relevance

Expectation value of <S**2>     :     6.153962
Ideal value S*(S+1) for S=2.0   :     6.000000
Deviation                       :     0.153962

             **** THE GBW FILE WAS UPDATED (CrCH3+.gbw) ****
             **** DENSITY FILE WAS UPDATED (CrCH3+.scfp) ****
----------------
ORBITAL ENERGIES
----------------
                 SPIN UP ORBITALS
  NO   OCC          E(Eh)            E(eV) 
   0   1.0000    -216.173139     -5882.3702 
   1   1.0000     -25.092666      -682.8062 
   2   1.0000     -21.319412      -580.1307 
   3   1.0000     -21.309002      -579.8474 
   4   1.0000     -21.309002      -579.8474 
   5   1.0000     -10.396580      -282.9053 
   6   1.0000      -3.208365       -87.3040 
   7   1.0000      -2.145517       -58.3825 
   8   1.0000      -2.145515       -58.3824 
   9   1.0000      -2.139214       -58.2110 
  10   1.0000      -0.866338       -23.5743 
  11   1.0000      -0.601798       -16.3758 
  12   1.0000      -0.601792       -16.3756 
  13   1.0000      -0.509934       -13.8760 
  14   1.0000      -0.492716       -13.4075 
  15   1.0000      -0.492714       -13.4074 
  16   1.0000      -0.481082       -13.0909 
  17   1.0000      -0.481078       -13.0908 
  18   0.0000      -0.323734        -8.8092 
  19   0.0000      -0.250072        -6.8048 
  20   0.0000      -0.190060        -5.1718 
  21   0.0000      -0.190050        -5.1715 
  22   0.0000      -0.154575        -4.2062 
  23   0.0000      -0.115096        -3.1319 
  24   0.0000      -0.110392        -3.0039 
  25   0.0000      -0.110385        -3.0037 
  26   0.0000      -0.103709        -2.8221 
  27   0.0000      -0.103698        -2.8218 
  28   0.0000      -0.092330        -2.5124 
  29   0.0000      -0.070384        -1.9152 
  30   0.0000      -0.070367        -1.9148 
  31   0.0000      -0.036989        -1.0065 
  32   0.0000      -0.035888        -0.9766 
  33   0.0000      -0.035875        -0.9762 
  34   0.0000      -0.012197        -0.3319 
  35   0.0000       0.005140         0.1399 
  36   0.0000       0.005180         0.1409 
  37   0.0000       0.051581         1.4036 
  38   0.0000       0.083465         2.2712 
  39   0.0000       0.083485         2.2717 
  40   0.0000       0.098507         2.6805 
  41   0.0000       0.101993         2.7754 
  42   0.0000       0.119426         3.2497 
  43   0.0000       0.119507         3.2519 
  44   0.0000       0.132086         3.5943 
  45   0.0000       0.132111         3.5949 
  46   0.0000       0.134264         3.6535 
  47   0.0000       0.148822         4.0497 
  48   0.0000       0.164728         4.4825 
  49   0.0000       0.164758         4.4833 
  50   0.0000       0.250868         6.8265 
  51   0.0000       0.262855         7.1526 
  52   0.0000       0.262892         7.1537 
  53   0.0000       0.295020         8.0279 
  54   0.0000       0.303675         8.2634 
  55   0.0000       0.303813         8.2672 
  56   0.0000       0.356241         9.6938 
  57   0.0000       0.356293         9.6952 
  58   0.0000       0.402977        10.9656 
  59   0.0000       0.494304        13.4507 
  60   0.0000       0.494332        13.4515 
  61   0.0000       0.519681        14.1412 
  62   0.0000       0.526479        14.3262 
  63   0.0000       0.526508        14.3270 
  64   0.0000       0.597214        16.2510 
  65   0.0000       0.633637        17.2422 
  66   0.0000       0.633712        17.2442 
  67   0.0000       0.807880        21.9835 
  68   0.0000       0.849728        23.1223 
  69   0.0000       0.849790        23.1240 
  70   0.0000       0.885166        24.0866 
  71   0.0000       0.916529        24.9400 
  72   0.0000       0.916600        24.9419 
  73   0.0000       1.028848        27.9964 
  74   0.0000       1.049086        28.5471 
  75   0.0000       1.049151        28.5488 
  76   0.0000       1.212104        32.9830 
  77   0.0000       1.281216        34.8637 
  78   0.0000       1.323767        36.0215 
  79   0.0000       1.324039        36.0289 
  80   0.0000       1.326970        36.1087 
  81   0.0000       1.456359        39.6295 
  82   0.0000       1.456403        39.6307 
  83   0.0000       1.472223        40.0612 
  84   0.0000       1.525196        41.5027 
  85   0.0000       1.525296        41.5054 
  86   0.0000       1.612459        43.8772 
  87   0.0000       1.647297        44.8252 
  88   0.0000       1.647310        44.8256 
  89   0.0000       1.738160        47.2977 
  90   0.0000       1.826685        49.7066 
  91   0.0000       1.860366        50.6231 
  92   0.0000       1.860426        50.6248 
  93   0.0000       1.863390        50.7054 
  94   0.0000       1.863408        50.7059 
  95   0.0000       1.874551        51.0091 
  96   0.0000       2.042804        55.5875 
  97   0.0000       2.042950        55.5915 
  98   0.0000       2.242374        61.0181 
  99   0.0000       2.482471        67.5515 
 100   0.0000       2.482833        67.5613 
 101   0.0000       2.490900        67.7808 
 102   0.0000       2.604163        70.8629 
 103   0.0000       2.733704        74.3879 
 104   0.0000       2.733917        74.3937 
 105   0.0000       2.739301        74.5402 
 106   0.0000       2.739862        74.5554 
 107   0.0000       2.926775        79.6416 
 108   0.0000       2.927213        79.6535 
 109   0.0000       2.948392        80.2298 
 110   0.0000       3.124825        85.0308 
 111   0.0000       3.239622        88.1546 
 112   0.0000       3.240233        88.1712 
 113   0.0000       3.327385        90.5428 
 114   0.0000       3.327539        90.5469 
 115   0.0000       3.350792        91.1797 
 116   0.0000       3.604889        98.0940 
 117   0.0000       3.624487        98.6273 
 118   0.0000       3.625137        98.6450 
 119   0.0000       3.729081       101.4734 
 120   0.0000       3.825522       104.0978 
 121   0.0000       3.825934       104.1090 
 122   0.0000       3.920867       106.6922 
 123   0.0000       4.016457       109.2934 
 124   0.0000       4.016593       109.2971 
 125   0.0000       4.093492       111.3896 
 126   0.0000       4.324692       117.6808 
 127   0.0000       4.325089       117.6917 
 128   0.0000       4.368222       118.8654 
 129   0.0000       4.731726       128.7568 
 130   0.0000       4.732095       128.7668 
 131   0.0000       4.775194       129.9396 
 132   0.0000       4.837108       131.6244 
 133   0.0000       4.972136       135.2987 
 134   0.0000       4.973062       135.3239 
 135   0.0000       5.018473       136.5596 
 136   0.0000       5.332187       145.0962 
 137   0.0000       5.332913       145.1159 
 138   0.0000       5.337913       145.2520 
 139   0.0000       5.341419       145.3474 
 140   0.0000       5.345506       145.4586 
 141   0.0000       5.345655       145.4627 
 142   0.0000       5.404604       147.0667 
 143   0.0000       5.404635       147.0676 
 144   0.0000       5.494046       149.5006 
 145   0.0000       5.494064       149.5011 
 146   0.0000       5.550327       151.0321 
 147   0.0000       5.954187       162.0217 
 148   0.0000       5.961716       162.2265 
 149   0.0000       6.046998       164.5472 
 150   0.0000       6.047007       164.5474 
 151   0.0000       6.233356       169.6182 
 152   0.0000       6.233363       169.6184 
 153   0.0000       6.308146       171.6534 
 154   0.0000      23.096864       628.4976 

                 SPIN DOWN ORBITALS
  NO   OCC          E(Eh)            E(eV) 
   0   1.0000    -216.173039     -5882.3675 
   1   1.0000     -25.048999      -681.6179 
   2   1.0000     -21.280269      -579.0656 
   3   1.0000     -21.264405      -578.6339 
   4   1.0000     -21.264405      -578.6339 
   5   1.0000     -10.400634      -283.0156 
   6   1.0000      -3.031430       -82.4894 
   7   1.0000      -1.969970       -53.6056 
   8   1.0000      -1.940270       -52.7974 
   9   1.0000      -1.940267       -52.7974 
  10   1.0000      -0.874478       -23.7957 
  11   1.0000      -0.596604       -16.2344 
  12   1.0000      -0.596600       -16.2343 
  13   1.0000      -0.486109       -13.2277 
  14   0.0000      -0.252324        -6.8661 
  15   0.0000      -0.209003        -5.6873 
  16   0.0000      -0.208997        -5.6871 
  17   0.0000      -0.201527        -5.4838 
  18   0.0000      -0.201522        -5.4837 
  19   0.0000      -0.192797        -5.2463 
  20   0.0000      -0.161870        -4.4047 
  21   0.0000      -0.161848        -4.4041 
  22   0.0000      -0.141197        -3.8422 
  23   0.0000      -0.091127        -2.4797 
  24   0.0000      -0.091119        -2.4795 
  25   0.0000      -0.080543        -2.1917 
  26   0.0000      -0.072779        -1.9804 
  27   0.0000      -0.072764        -1.9800 
  28   0.0000      -0.067927        -1.8484 
  29   0.0000      -0.047112        -1.2820 
  30   0.0000      -0.047092        -1.2814 
  31   0.0000      -0.020818        -0.5665 
  32   0.0000      -0.012112        -0.3296 
  33   0.0000      -0.012095        -0.3291 
  34   0.0000      -0.000705        -0.0192 
  35   0.0000       0.016955         0.4614 
  36   0.0000       0.016989         0.4623 
  37   0.0000       0.063282         1.7220 
  38   0.0000       0.094346         2.5673 
  39   0.0000       0.094376         2.5681 
  40   0.0000       0.098629         2.6838 
  41   0.0000       0.118956         3.2370 
  42   0.0000       0.130109         3.5404 
  43   0.0000       0.130216         3.5434 
  44   0.0000       0.136754         3.7213 
  45   0.0000       0.152210         4.1419 
  46   0.0000       0.152235         4.1425 
  47   0.0000       0.156694         4.2639 
  48   0.0000       0.167665         4.5624 
  49   0.0000       0.167666         4.5624 
  50   0.0000       0.268293         7.3006 
  51   0.0000       0.294362         8.0100 
  52   0.0000       0.294427         8.0118 
  53   0.0000       0.306349         8.3362 
  54   0.0000       0.330820         9.0021 
  55   0.0000       0.330880         9.0037 
  56   0.0000       0.414385        11.2760 
  57   0.0000       0.414454        11.2779 
  58   0.0000       0.414791        11.2870 
  59   0.0000       0.506884        13.7930 
  60   0.0000       0.506930        13.7943 
  61   0.0000       0.521573        14.1927 
  62   0.0000       0.543950        14.8016 
  63   0.0000       0.544032        14.8039 
  64   0.0000       0.623935        16.9781 
  65   0.0000       0.629015        17.1164 
  66   0.0000       0.629083        17.1182 
  67   0.0000       0.809851        22.0372 
  68   0.0000       0.849893        23.1268 
  69   0.0000       0.849981        23.1292 
  70   0.0000       0.887791        24.1580 
  71   0.0000       0.921407        25.0728 
  72   0.0000       0.921467        25.0744 
  73   0.0000       1.022262        27.8172 
  74   0.0000       1.060238        28.8505 
  75   0.0000       1.060374        28.8542 
  76   0.0000       1.220603        33.2143 
  77   0.0000       1.306114        35.5412 
  78   0.0000       1.328038        36.1377 
  79   0.0000       1.328246        36.1434 
  80   0.0000       1.341073        36.4925 
  81   0.0000       1.459305        39.7097 
  82   0.0000       1.473305        40.0907 
  83   0.0000       1.473311        40.0908 
  84   0.0000       1.534557        41.7574 
  85   0.0000       1.534684        41.7609 
  86   0.0000       1.615688        43.9651 
  87   0.0000       1.679345        45.6973 
  88   0.0000       1.679364        45.6978 
  89   0.0000       1.751417        47.6585 
  90   0.0000       1.864663        50.7401 
  91   0.0000       1.866665        50.7945 
  92   0.0000       1.866765        50.7972 
  93   0.0000       1.910944        51.9994 
  94   0.0000       1.934626        52.6438 
  95   0.0000       1.934643        52.6443 
  96   0.0000       2.083617        56.6981 
  97   0.0000       2.083729        56.7011 
  98   0.0000       2.242488        61.0212 
  99   0.0000       2.489503        67.7428 
 100   0.0000       2.489803        67.7510 
 101   0.0000       2.496006        67.9198 
 102   0.0000       2.623471        71.3883 
 103   0.0000       2.738930        74.5301 
 104   0.0000       2.739075        74.5340 
 105   0.0000       2.760626        75.1205 
 106   0.0000       2.760841        75.1263 
 107   0.0000       2.914809        79.3160 
 108   0.0000       2.915628        79.3383 
 109   0.0000       2.954047        80.3837 
 110   0.0000       3.128594        85.1334 
 111   0.0000       3.240285        88.1726 
 112   0.0000       3.240400        88.1758 
 113   0.0000       3.329282        90.5944 
 114   0.0000       3.329459        90.5992 
 115   0.0000       3.357894        91.3729 
 116   0.0000       3.608896        98.2031 
 117   0.0000       3.626080        98.6707 
 118   0.0000       3.626575        98.6841 
 119   0.0000       3.740567       101.7860 
 120   0.0000       3.828265       104.1724 
 121   0.0000       3.828471       104.1780 
 122   0.0000       3.923378       106.7605 
 123   0.0000       4.017161       109.3125 
 124   0.0000       4.017287       109.3159 
 125   0.0000       4.094664       111.4215 
 126   0.0000       4.339261       118.0773 
 127   0.0000       4.339391       118.0808 
 128   0.0000       4.375848       119.0729 
 129   0.0000       4.747389       129.1830 
 130   0.0000       4.747510       129.1863 
 131   0.0000       4.805196       130.7560 
 132   0.0000       4.837534       131.6360 
 133   0.0000       4.995350       135.9304 
 134   0.0000       4.996081       135.9503 
 135   0.0000       5.032542       136.9424 
 136   0.0000       5.356183       145.7492 
 137   0.0000       5.356928       145.7694 
 138   0.0000       5.395228       146.8116 
 139   0.0000       5.395243       146.8120 
 140   0.0000       5.413136       147.2989 
 141   0.0000       5.416657       147.3947 
 142   0.0000       5.479981       149.1179 
 143   0.0000       5.480016       149.1188 
 144   0.0000       5.565837       151.4541 
 145   0.0000       5.565887       151.4555 
 146   0.0000       5.612672       152.7286 
 147   0.0000       6.142756       167.1529 
 148   0.0000       6.149797       167.3445 
 149   0.0000       6.215693       169.1376 
 150   0.0000       6.215709       169.1380 
 151   0.0000       6.386718       173.7914 
 152   0.0000       6.386725       173.7916 
 153   0.0000       6.429613       174.9587 
 154   0.0000      23.093680       628.4110 

                    ********************************
                    * MULLIKEN POPULATION ANALYSIS *
                    ********************************

--------------------------------------------
MULLIKEN ATOMIC CHARGES AND SPIN POPULATIONS
--------------------------------------------
   0 C :   -1.639682   -0.228177
   1 H :    0.533963    0.016535
   2 H :    0.535190    0.016647
   3 H :    0.534162    0.016831
   4 Cr:    1.036367    4.178163
Sum of atomic charges         :    1.0000000
Sum of atomic spin populations:    4.0000000

-----------------------------------------------------
MULLIKEN REDUCED ORBITAL CHARGES AND SPIN POPULATIONS
-----------------------------------------------------
CHARGE
  0 C s       :     3.496302  s :     3.496302
      pz      :     1.422097  p :     4.075278
      px      :     1.389460
      py      :     1.263721
      dz2     :     0.026946  d :     0.067526
      dxz     :     0.010892
      dyz     :     0.005296
      dx2y2   :     0.013787
      dxy     :     0.010604
      f0      :     0.000045  f :     0.000577
      f+1     :     0.000047
      f-1     :     0.000202
      f+2     :    -0.000182
      f-2     :     0.000010
      f+3     :     0.000159
      f-3     :     0.000296
  1 H s       :     0.444648  s :     0.444648
      pz      :     0.022868  p :     0.019957
      px      :     0.003032
      py      :    -0.005944
      dz2     :    -0.000281  d :     0.001431
      dxz     :     0.000836
      dyz     :     0.000899
      dx2y2   :    -0.000010
      dxy     :    -0.000014
  2 H s       :     0.444161  s :     0.444161
      pz      :     0.007075  p :     0.019221
      px      :     0.018271
      py      :    -0.006126
      dz2     :     0.000189  d :     0.001428
      dxz     :     0.000445
      dyz     :     0.000110
      dx2y2   :    -0.000093
      dxy     :     0.000777
  3 H s       :     0.444990  s :     0.444990
      pz      :     0.007232  p :     0.019407
      px      :     0.006979
      py      :     0.005196
      dz2     :     0.000193  d :     0.001442
      dxz     :     0.000230
      dyz     :     0.000329
      dx2y2   :     0.000552
      dxy     :     0.000137
  4 Crs       :     6.237152  s :     6.237152
      pz      :     4.011173  p :    12.055466
      px      :     4.014893
      py      :     4.029401
      dz2     :     0.964498  d :     4.667068
      dxz     :     0.977058
      dyz     :     0.926422
      dx2y2   :     0.956508
      dxy     :     0.842580
      f0      :     0.000237  f :     0.003876
      f+1     :     0.000284
      f-1     :     0.000765
      f+2     :     0.000352
      f-2     :     0.000584
      f+3     :     0.000566
      f-3     :     0.001088
      g0      :     0.000005  g :     0.000072
      g+1     :     0.000003
      g-1     :     0.000009
      g+2     :     0.000003
      g-2     :     0.000007
      g+3     :     0.000015
      g-3     :     0.000005
      g+4     :     0.000012
      g-4     :     0.000013

SPIN
  0 C s       :     0.018781  s :     0.018781
      pz      :    -0.030918  p :    -0.247998
      px      :    -0.056668
      py      :    -0.160412
      dz2     :     0.003053  d :     0.000184
      dxz     :    -0.004802
      dyz     :    -0.001998
      dx2y2   :     0.003230
      dxy     :     0.000701
      f0      :     0.000163  f :     0.000857
      f+1     :     0.000033
      f-1     :     0.000121
      f+2     :     0.000083
      f-2     :     0.000065
      f+3     :     0.000161
      f-3     :     0.000230
  1 H s       :     0.012892  s :     0.012892
      pz      :    -0.000263  p :     0.003943
      px      :     0.001173
      py      :     0.003033
      dz2     :    -0.000150  d :    -0.000300
      dxz     :    -0.000010
      dyz     :    -0.000130
      dx2y2   :    -0.000006
      dxy     :    -0.000005
  2 H s       :     0.012904  s :     0.012904
      pz      :     0.000705  p :     0.004041
      px      :     0.000253
      py      :     0.003084
      dz2     :    -0.000027  d :    -0.000298
      dxz     :    -0.000034
      dyz     :    -0.000018
      dx2y2   :    -0.000104
      dxy     :    -0.000115
  3 H s       :     0.013224  s :     0.013224
      pz      :     0.000670  p :     0.003905
      px      :     0.001122
      py      :     0.002113
      dz2     :    -0.000028  d :    -0.000297
      dxz     :    -0.000036
      dyz     :    -0.000015
      dx2y2   :    -0.000163
      dxy     :    -0.000055
  4 Crs       :    -0.082581  s :    -0.082581
      pz      :    -0.002435  p :    -0.029411
      px      :    -0.006098
      py      :    -0.020878
      dz2     :     0.919323  d :     4.290372
      dxz     :     0.946034
      dyz     :     0.841373
      dx2y2   :     0.884233
      dxy     :     0.699410
      f0      :    -0.000075  f :    -0.000184
      f+1     :     0.000028
      f-1     :     0.000061
      f+2     :    -0.000009
      f-2     :    -0.000099
      f+3     :    -0.000218
      f-3     :     0.000129
      g0      :    -0.000001  g :    -0.000033
      g+1     :    -0.000002
      g-1     :    -0.000006
      g+2     :    -0.000000
      g-2     :    -0.000001
      g+3     :    -0.000010
      g-3     :    -0.000001
      g+4     :    -0.000004
      g-4     :    -0.000008


                     *******************************
                     * LOEWDIN POPULATION ANALYSIS *
                     *******************************

-------------------------------------------
LOEWDIN ATOMIC CHARGES AND SPIN POPULATIONS
-------------------------------------------
   0 C :    0.093928   -0.157340
   1 H :   -0.056285   -0.012514
   2 H :   -0.056269   -0.012516
   3 H :   -0.056293   -0.012501
   4 Cr:    1.074919    4.194871

----------------------------------------------------
LOEWDIN REDUCED ORBITAL CHARGES AND SPIN POPULATIONS
----------------------------------------------------
CHARGE
  0 C s       :     2.722209  s :     2.722209
      pz      :     0.973804  p :     2.894564
      px      :     0.969311
      py      :     0.951449
      dz2     :     0.071511  d :     0.267819
      dxz     :     0.036171
      dyz     :     0.040441
      dx2y2   :     0.055029
      dxy     :     0.064666
      f0      :     0.005075  f :     0.021480
      f+1     :     0.001217
      f-1     :     0.001990
      f+2     :     0.003208
      f-2     :     0.003242
      f+3     :     0.004828
      f-3     :     0.001920
  1 H s       :     0.710537  s :     0.710537
      pz      :     0.144495  p :     0.314989
      px      :     0.083234
      py      :     0.087261
      dz2     :     0.010205  d :     0.030759
      dxz     :     0.009919
      dyz     :     0.010545
      dx2y2   :     0.000029
      dxy     :     0.000061
  2 H s       :     0.710532  s :     0.710532
      pz      :     0.087497  p :     0.314979
      px      :     0.140216
      py      :     0.087266
      dz2     :     0.004526  d :     0.030758
      dxz     :     0.008602
      dyz     :     0.000875
      dx2y2   :     0.007022
      dxy     :     0.009733
  3 H s       :     0.710525  s :     0.710525
      pz      :     0.087509  p :     0.315001
      px      :     0.093796
      py      :     0.133697
      dz2     :     0.004528  d :     0.030767
      dxz     :     0.002753
      dyz     :     0.006727
      dx2y2   :     0.009544
      dxy     :     0.007216
  4 Crs       :     6.005293  s :     6.005293
      pz      :     4.034673  p :    12.140595
      px      :     4.040770
      py      :     4.065152
      dz2     :     0.979191  d :     4.762334
      dxz     :     0.980290
      dyz     :     0.946380
      dx2y2   :     0.981682
      dxy     :     0.874791
      f0      :     0.001490  f :     0.016597
      f+1     :     0.000929
      f-1     :     0.002604
      f+2     :     0.001635
      f-2     :     0.002851
      f+3     :     0.003509
      f-3     :     0.003580
      g0      :     0.000019  g :     0.000262
      g+1     :     0.000012
      g-1     :     0.000033
      g+2     :     0.000009
      g-2     :     0.000026
      g+3     :     0.000053
      g-3     :     0.000020
      g+4     :     0.000042
      g-4     :     0.000048

SPIN
  0 C s       :    -0.010739  s :    -0.010739
      pz      :    -0.025514  p :    -0.206923
      px      :    -0.047241
      py      :    -0.134169
      dz2     :     0.015487  d :     0.054877
      dxz     :     0.004973
      dyz     :     0.008486
      dx2y2   :     0.017818
      dxy     :     0.008113
      f0      :     0.000229  f :     0.005445
      f+1     :     0.000333
      f-1     :     0.000860
      f+2     :     0.001125
      f-2     :     0.000992
      f+3     :     0.000518
      f-3     :     0.001387
  1 H s       :     0.013606  s :     0.013606
      pz      :    -0.002308  p :    -0.023487
      px      :    -0.005007
      py      :    -0.016172
      dz2     :    -0.000280  d :    -0.002633
      dxz     :    -0.000598
      dyz     :    -0.001768
      dx2y2   :     0.000007
      dxy     :     0.000006
  2 H s       :     0.013598  s :     0.013598
      pz      :    -0.003052  p :    -0.023482
      px      :    -0.004261
      py      :    -0.016168
      dz2     :    -0.000202  d :    -0.002633
      dxz     :    -0.000470
      dyz     :    -0.000158
      dx2y2   :    -0.000198
      dxy     :    -0.001604
  3 H s       :     0.013619  s :     0.013619
      pz      :    -0.003054  p :    -0.023485
      px      :    -0.006679
      py      :    -0.013753
      dz2     :    -0.000203  d :    -0.002635
      dxz     :    -0.000448
      dyz     :    -0.000180
      dx2y2   :    -0.001483
      dxy     :    -0.000320
  4 Crs       :    -0.027603  s :    -0.027603
      pz      :     0.004485  p :    -0.001673
      px      :     0.001963
      py      :    -0.008121
      dz2     :     0.908094  d :     4.224438
      dxz     :     0.936033
      dyz     :     0.826650
      dx2y2   :     0.865489
      dxy     :     0.688173
      f0      :    -0.000209  f :    -0.000245
      f+1     :     0.000085
      f-1     :     0.000211
      f+2     :     0.000020
      f-2     :    -0.000202
      f+3     :    -0.000575
      f-3     :     0.000426
      g0      :    -0.000000  g :    -0.000046
      g+1     :    -0.000004
      g-1     :    -0.000011
      g+2     :    -0.000000
      g-2     :    -0.000000
      g+3     :    -0.000015
      g-3     :    -0.000000
      g+4     :    -0.000004
      g-4     :    -0.000012


                      *****************************
                      * MAYER POPULATION ANALYSIS *
                      *****************************

  NA   - Mulliken gross atomic population
  ZA   - Total nuclear charge
  QA   - Mulliken gross atomic charge
  VA   - Mayer's total valence
  BVA  - Mayer's bonded valence
  FA   - Mayer's free valence

  ATOM       NA         ZA         QA         VA         BVA        FA
  0 C      7.6397     6.0000    -1.6397     3.3774     3.3240     0.0534
  1 H      0.4660     1.0000     0.5340     0.8052     0.8051     0.0001
  2 H      0.4648     1.0000     0.5352     0.8019     0.8019     0.0001
  3 H      0.4658     1.0000     0.5342     0.8033     0.8032     0.0001
  4 Cr    22.9636    24.0000     1.0364     5.1365     1.0875     4.0490

  Mayer bond orders larger than 0.100000
B(  0-C ,  1-H ) :   0.7418 B(  0-C ,  2-H ) :   0.7393 B(  0-C ,  3-H ) :   0.7402 
B(  0-C ,  4-Cr) :   1.1027 

-------
TIMINGS
-------

Total SCF time: 0 days 0 hours 3 min 36 sec 

Total time                  ....     216.922 sec
Sum of individual times     ....     215.558 sec  ( 99.4%)

Fock matrix formation       ....     206.971 sec  ( 95.4%)
  XC integration            ....     202.305 sec  ( 97.7% of F)
    Basis function eval.    ....       0.052 sec  (  0.0% of XC)
    Density eval.           ....       0.152 sec  (  0.1% of XC)
    XC-Functional eval.     ....       0.094 sec  (  0.0% of XC)
    XC-Potential eval.      ....       0.387 sec  (  0.2% of XC)
Diagonalization             ....       3.660 sec  (  1.7%)
Density matrix formation    ....       0.014 sec  (  0.0%)
Population analysis         ....       0.760 sec  (  0.4%)
Initial guess               ....       0.682 sec  (  0.3%)
Orbital Transformation      ....       0.000 sec  (  0.0%)
Orbital Orthonormalization  ....       0.000 sec  (  0.0%)
DIIS solution               ....       0.173 sec  (  0.1%)
Grid generation             ....       3.299 sec  (  1.5%)


-------------------------------------------------------------------------------
                          DFT DISPERSION CORRECTION                            
                                                                               
                              DFTD3 V3.1  Rev 1                                
                              USING zero damping                               
-------------------------------------------------------------------------------
The M06 functional is recognized
Active option DFTDOPT                   ...         3   

molecular C6(AA) [au] = 728.012619 


            DFT-D V3
 parameters
 s6 scaling factor         :     1.0000 
 rs6 scaling factor        :     1.3250 
 s8 scaling factor         :     0.0000 
 rs8 scaling factor        :     1.0000 
 Damping factor alpha6     :    14.0000 
 Damping factor alpha8     :    16.0000 
 ad hoc parameters k1-k3   :    16.0000     1.3333    -4.0000 

 Edisp/kcal,au: -0.002619564328  -0.000004174541 
 E6   /kcal   :  -0.002619564 
 E8   /kcal   :  -0.000000000 
 % E8         :   0.000000000 

-------------------------   ----------------
Dispersion correction           -0.000004175
-------------------------   ----------------


-------------------------   --------------------
FINAL SINGLE POINT ENERGY     -1083.988928218248
-------------------------   --------------------


                            ***************************************
                            *     ORCA property calculations      *
                            ***************************************

                                    ---------------------
                                    Active property flags
                                    ---------------------
   (+) Dipole Moment


------------------------------------------------------------------------------
                       ORCA ELECTRIC PROPERTIES CALCULATION
------------------------------------------------------------------------------

Dipole Moment Calculation                       ... on
Quadrupole Moment Calculation                   ... off
Polarizability Calculation                      ... off
GBWName                                         ... CrCH3+.gbw
Electron density file                           ... CrCH3+.scfp
The origin for moment calculation is the CENTER OF MASS  = (-1.298217, -2.248568 -0.917972)

-------------
DIPOLE MOMENT
-------------
                                X             Y             Z
Electronic contribution:     -3.70327      -6.41418      -2.61842
Nuclear contribution   :      3.19934       5.54142       2.26226
                        -----------------------------------------
Total Dipole Moment    :     -0.50392      -0.87276      -0.35616
                        -----------------------------------------
Magnitude (a.u.)       :      1.06888
Magnitude (Debye)      :      2.71687



--------------------
Rotational spectrum 
--------------------
 
Rotational constants in cm-1:     5.182984     0.355754     0.355754 
Rotational constants in MHz : 155381.939270 10665.239464 10665.237606 

 Dipole components along the rotational axes: 
x,y,z [a.u.] :     1.068875     0.000043     0.000136 
x,y,z [Debye]:     2.716866     0.000110     0.000346 

 

Timings for individual modules:

Sum of individual times         ...      218.627 sec (=   3.644 min)
GTO integral calculation        ...        0.920 sec (=   0.015 min)   0.4 %
SCF iterations                  ...      217.707 sec (=   3.628 min)  99.6 %
                             ****ORCA TERMINATED NORMALLY****
TOTAL RUN TIME: 0 days 0 hours 4 minutes 44 seconds 425 msec
