
                                 *****************
                                 * O   R   C   A *
                                 *****************

           --- An Ab Initio, DFT and Semiempirical electronic structure package ---

                  #######################################################
                  #                        -***-                        #
                  #          Department of theory and spectroscopy      #
                  #               Directorship: Frank Neese             #
                  #        Max Planck Institute fuer Kohlenforschung    #
                  #                Kaiser Wilhelm Platz 1               #
                  #                 D-45470 Muelheim/Ruhr               #
                  #                      Germany                        #
                  #                                                     #
                  #                  All rights reserved                #
                  #                        -***-                        #
                  #######################################################


                         Program Version 4.2.0 -  RELEASE  -


 With contributions from (in alphabetic order):
   Daniel Aravena         : Magnetic Suceptibility
   Michael Atanasov       : Ab Initio Ligand Field Theory (pilot matlab implementation)
   Alexander A. Auer      : GIAO ZORA, VPT2
   Ute Becker             : Parallelization
   Giovanni Bistoni       : ED, misc. LED, open-shell LED, HFLED
   Martin Brehm           : Molecular dynamics
   Dmytro Bykov           : SCF Hessian
   Vijay G. Chilkuri      : MRCI spin determinant printing, contributions to CSF-ICE
   Dipayan Datta          : RHF DLPNO-CCSD density
   Achintya Kumar Dutta   : EOM-CC, STEOM-CC
   Dmitry Ganyushin       : Spin-Orbit,Spin-Spin,Magnetic field MRCI
   Miquel Garcia          : C-PCM Hessian, Gaussian charge scheme
   Yang Guo               : DLPNO-NEVPT2, CIM, IAO-localization
   Andreas Hansen         : Spin unrestricted coupled pair/coupled cluster methods
   Benjamin Helmich-Paris : CASSCF linear response (MC-RPA)
   Lee Huntington         : MR-EOM, pCC
   Robert Izsak           : Overlap fitted RIJCOSX, COSX-SCS-MP3, EOM
   Christian Kollmar      : KDIIS, OOCD, Brueckner-CCSD(T), CCSD density
   Simone Kossmann        : Meta GGA functionals, TD-DFT gradient, OOMP2, MP2 Hessian
   Martin Krupicka        : AUTO-CI
   Lucas Lang             : DCDCAS
   Dagmar Lenk            : GEPOL surface, SMD
   Dimitrios Liakos       : Extrapolation schemes; Compound Job, initial MDCI parallelization
   Dimitrios Manganas     : Further ROCIS development; embedding schemes
   Dimitrios Pantazis     : SARC Basis sets
   Taras Petrenko         : DFT Hessian,TD-DFT gradient, ASA, ECA, R-Raman, ABS, FL, XAS/XES, NRVS
   Peter Pinski           : DLPNO-MP2, DLPNO-MP2 Gradient
   Christoph Reimann      : Effective Core Potentials
   Marius Retegan         : Local ZFS, SOC
   Christoph Riplinger    : Optimizer, TS searches, QM/MM, DLPNO-CCSD(T), (RO)-DLPNO pert. Triples
   Tobias Risthaus        : Range-separated hybrids, TD-DFT gradient, RPA, STAB
   Michael Roemelt        : Original ROCIS implementation
   Masaaki Saitow         : Open-shell DLPNO-CCSD energy and density
   Barbara Sandhoefer     : DKH picture change effects
   Avijit Sen             : IP-ROCIS
   Kantharuban Sivalingam : CASSCF convergence, NEVPT2, FIC-MRCI
   Bernardo de Souza      : ESD, SOC TD-DFT
   Georgi Stoychev        : AutoAux, RI-MP2 NMR
   Willem Van den Heuvel  : Paramagnetic NMR
   Boris Wezisla          : Elementary symmetry handling
   Frank Wennmohs         : Technical directorship


 We gratefully acknowledge several colleagues who have allowed us to
 interface, adapt or use parts of their codes:
   Stefan Grimme, W. Hujo, H. Kruse,             : VdW corrections, initial TS optimization,
                  C. Bannwarth                     DFT functionals, gCP, sTDA/sTD-DF
   Ed Valeev, F. Pavosevic, A. Kumar             : LibInt (2-el integral package), F12 methods
   Garnet Chan, S. Sharma, J. Yang, R. Olivares  : DMRG
   Ulf Ekstrom                                   : XCFun DFT Library
   Mihaly Kallay                                 : mrcc  (arbitrary order and MRCC methods)
   Andreas Klamt, Michael Diedenhofen            : otool_cosmo (COSMO solvation model)
   Jiri Pittner, Ondrej Demel                    : Mk-CCSD
   Frank Weinhold                                : gennbo (NPA and NBO analysis)
   Christopher J. Cramer and Donald G. Truhlar   : smd solvation model
   Lars Goerigk                                  : TD-DFT with DH, B97 family of functionals
   V. Asgeirsson, H. Jonsson                     : NEB implementation
   FAccTs GmbH                                   : IRC, NEB, NEB-TS, Multilevel, MM, QM/MM, CI optimization
   S Lehtola, MJT Oliveira, MAL Marques          : LibXC Library


 Your calculation uses the libint2 library for the computation of 2-el integrals
 For citations please refer to: http://libint.valeyev.net

 Your ORCA version has been built with support for libXC version: 4.2.3
 For citations please refer to: https://tddft.org/programs/libxc/

 This ORCA versions uses:
   CBLAS   interface :  Fast vector & matrix operations
   LAPACKE interface :  Fast linear algebra routines
   SCALAPACK package :  Parallel linear algebra routines


Your calculation utilizes the atom-pairwise dispersion correction
with the zero-damping scheme (D30)
Cite in your paper:
S.Grimme, J.Antony, S.Ehrlich and H.Krieg, J.Chem.Phys., 132, (2010), 154104 
   

XCFun DFT library Copyright 2009-2010 Ulf Ekstrom and contributors.
See http://admol.org/xcfun for more information. This is free soft-
ware; see the source code for copying conditions. There is ABSOLUTELY
NO WARRANTY; not even for MERCHANTABILITY or FITNESS FOR A PARTICULAR
PURPOSE. For details see the documentation. Scientific users of this 
library should cite U. Ekstrom, L. Visscher, R. Bast, A. J. Thorvald-
sen and K. Ruud; J.Chem.Theor.Comp. 2010, DOI: 10.1021/ct100117s
XCFun Version 0.99 
----- Orbital basis set information -----
Your calculation utilizes the basis: def2-TZVPPD
   F. Weigend and R. Ahlrichs, Phys. Chem. Chem. Phys. 7, 3297 (2005).
   D. Rappoport and F. Furche, J. Chem. Phys. 133 134105 (2010).

----- AuxJK basis set information -----
Your calculation utilizes the auxiliary basis: def2/JK
   H-Ba, Hf-Rn: F. Weigend, J. Comput. Chem. 29, 167 (2008).

================================================================================
                                        WARNINGS
                       Please study these warnings very carefully!
================================================================================


WARNING: Minnesota functionals are quite sensitive to the integration grid.
         see SE Wheeler, KN Houk, JCTC 2010, 6, 395,
             N Mardirossian, M Head-Gordon, JCTC 2016, 12, 4303.
         Grid6 seems to be a minimum grid for reliable results with these functionals!
  ===> : Please increase the integration grid!


INFO   : the flag for use of LIBINT has been found!

================================================================================
                                       INPUT FILE
================================================================================
NAME = Cu2.in
|  1> #
|  2> # Cu2 M06-D3/Def2-TZVPPD
|  3> #
|  4> ! m06 d3zero def2-tzvppd def2/jk grid4 nofinalgrid
|  5> 
|  6> *xyz 0 1
|  7> Cu         0.00000        0.00000        0.00000
|  8> Cu         0.00000        0.00000        2.22000
|  9> *
| 10> 
| 11> %maxcore 5000
| 12> 
| 13> %pal
| 14> nprocs = 28
| 15> end
| 16> 
| 17> 
| 18>                          ****END OF INPUT****
================================================================================

                       ****************************
                       * Single Point Calculation *
                       ****************************

---------------------------------
CARTESIAN COORDINATES (ANGSTROEM)
---------------------------------
  Cu     0.000000    0.000000    0.000000
  Cu     0.000000    0.000000    2.220000

----------------------------
CARTESIAN COORDINATES (A.U.)
----------------------------
  NO LB      ZA    FRAG     MASS         X           Y           Z
   0 Cu   29.0000    0    63.550    0.000000    0.000000    0.000000
   1 Cu   29.0000    0    63.550    0.000000    0.000000    4.195192

--------------------------------
INTERNAL COORDINATES (ANGSTROEM)
--------------------------------
 Cu     0   0   0     0.000000000000     0.00000000     0.00000000
 Cu     1   0   0     2.220000000000     0.00000000     0.00000000

---------------------------
INTERNAL COORDINATES (A.U.)
---------------------------
 Cu     0   0   0     0.000000000000     0.00000000     0.00000000
 Cu     1   0   0     4.195192017305     0.00000000     0.00000000

---------------------
BASIS SET INFORMATION
---------------------
There are 1 groups of distinct atoms

 Group   1 Type Cu  : 17s13p7d2f1g contracted to 6s6p4d2f1g pattern {842111/631111/4111/11/1}

Atom   0Cu   basis set group =>   1
Atom   1Cu   basis set group =>   1
----------------------------------
AUXILIARY/JK BASIS SET INFORMATION
----------------------------------
There are 1 groups of distinct atoms

 Group   1 Type Cu  : 19s14p12d10f7g3h1i contracted to 16s13p11d9f5g3h1i pattern {4111111111111111/2111111111111/21111111111/211111111/31111/111/1}

Atom   0Cu   basis set group =>   1
Atom   1Cu   basis set group =>   1


           ************************************************************
           *        Program running with 28 parallel MPI-processes    *
           *              working on a common directory               *
           ************************************************************
------------------------------------------------------------------------------
                           ORCA GTO INTEGRAL CALCULATION
------------------------------------------------------------------------------

                         BASIS SET STATISTICS AND STARTUP INFO

 # of primitive gaussian shells          ...   80
 # of primitive gaussian functions       ...  228
 # of contracted shells                  ...   38
 # of contracted basis functions         ...  134
 Highest angular momentum                ...    4
 Maximum contraction depth               ...    8
 Integral package used                   ... LIBINT
 Integral threshhold            Thresh   ...  1.000e-10
 Primitive cut-off              TCut     ...  1.000e-11


------------------------------ INTEGRAL EVALUATION ----------------------------


 * One electron integrals 
 Pre-screening matrix                    ... done
 Shell pair data                         ... done (   0.000 sec)



           ************************************************************
           *        Program running with 28 parallel MPI-processes    *
           *              working on a common directory               *
           ************************************************************
-------------------------------------------------------------------------------
                                 ORCA SCF
-------------------------------------------------------------------------------

------------
SCF SETTINGS
------------
Hamiltonian:
 Density Functional     Method          .... DFT(GTOs)
 Exchange Functional    Exchange        .... M06
 Correlation Functional Correlation     .... M06
 Gradients option       PostSCFGGA      .... off
 Hybrid DFT is turned on
   Fraction HF Exchange ScalHFX         ....  0.270000
   Scaling of DF-GGA-X  ScalDFX         ....  0.730000
   Scaling of DF-GGA-C  ScalDFC         ....  1.000000
   Scaling of DF-LDA-C  ScalLDAC        ....  1.000000
   Perturbative correction              ....  0.000000
   Density functional embedding theory  .... OFF


General Settings:
 Integral files         IntName         .... Cu2
 Hartree-Fock type      HFTyp           .... RHF
 Total Charge           Charge          ....    0
 Multiplicity           Mult            ....    1
 Number of Electrons    NEL             ....   58
 Basis Dimension        Dim             ....  134
 Nuclear Repulsion      ENuc            ....    200.4675820632 Eh

Convergence Acceleration:
 DIIS                   CNVDIIS         .... on
   Start iteration      DIISMaxIt       ....    12
   Startup error        DIISStart       ....  0.200000
   # of expansion vecs  DIISMaxEq       ....     5
   Bias factor          DIISBfac        ....   1.050
   Max. coefficient     DIISMaxC        ....  10.000
 Newton-Raphson         CNVNR           .... off
 SOSCF                  CNVSOSCF        .... off
 Level Shifting         CNVShift        .... on
   Level shift para.    LevelShift      ....    0.2500
   Turn off err/grad.   ShiftErr        ....    0.0010
 Zerner damping         CNVZerner       .... off
 Static damping         CNVDamp         .... on
   Fraction old density DampFac         ....    0.7000
   Max. Damping (<1)    DampMax         ....    0.9800
   Min. Damping (>=0)   DampMin         ....    0.0000
   Turn off err/grad.   DampErr         ....    0.1000
 Fernandez-Rico         CNVRico         .... off

SCF Procedure:
 Maximum # iterations   MaxIter         ....   125
 SCF integral mode      SCFMode         .... Direct
   Integral package                     .... LIBINT
 Reset frequency        DirectResetFreq ....    20
 Integral Threshold     Thresh          ....  1.000e-10 Eh
 Primitive CutOff       TCut            ....  1.000e-11 Eh

Convergence Tolerance:
 Convergence Check Mode ConvCheckMode   .... Total+1el-Energy
 Convergence forced     ConvForced      .... 0
 Energy Change          TolE            ....  1.000e-06 Eh
 1-El. energy change                    ....  1.000e-03 Eh
 DIIS Error             TolErr          ....  1.000e-06


Diagonalization of the overlap matrix:
Smallest eigenvalue                        ... 7.789e-04
Time for diagonalization                   ...    0.003 sec
Threshold for overlap eigenvalues          ... 1.000e-08
Number of eigenvalues below threshold      ... 0
Time for construction of square roots      ...    0.058 sec
Total time needed                          ...    0.062 sec

-------------------
DFT GRID GENERATION
-------------------

General Integration Accuracy     IntAcc      ...  4.670
Radial Grid Type                 RadialGrid  ... Gauss-Chebyshev
Angular Grid (max. acc.)         AngularGrid ... Lebedev-302
Angular grid pruning method      GridPruning ... 3 (G Style)
Weight generation scheme         WeightScheme... Becke
Basis function cutoff            BFCut       ...    1.0000e-10
Integration weight cutoff        WCut        ...    1.0000e-14
Grids for H and He will be reduced by one unit

# of grid points (after initial pruning)     ...  19112 (   0.0 sec)
# of grid points (after weights+screening)   ...  19084 (   0.0 sec)
nearest neighbour list constructed           ...    0.0 sec
Grid point re-assignment to atoms done       ...    0.0 sec
Grid point division into batches done        ...    0.2 sec
Reduced shell lists constructed in    0.2 sec

Total number of grid points                  ...    19084
Total number of batches                      ...      300
Average number of points per batch           ...       63
Average number of grid points per atom       ...     9542
Average number of shells per batch           ...     7.17 (18.86%)
Average number of basis functions per batch  ...    20.00 (14.93%)
Average number of large shells per batch     ...     5.50 (76.74%)
Average number of large basis fcns per batch ...    15.83 (79.17%)
Maximum spatial batch extension              ...  22.17, 22.17, 16.37 au
Average spatial batch extension              ...   0.65,  0.64,  0.49 au

Time for grid setup =    2.566 sec

------------------------------
INITIAL GUESS: MODEL POTENTIAL
------------------------------
Loading Hartree-Fock densities                     ... done
Calculating cut-offs                               ... done
Setting up the integral package                    ... done
Initializing the effective Hamiltonian             ... done
Starting the Coulomb interaction                   ... done (   0.0 sec)
Reading the grid                                   ... done
Mapping shells                                     ... done
Starting the XC term evaluation                    ... done (   0.0 sec)
  promolecular density results
     # of electrons  =     58.000033924
     EX              =   -130.945276993
     EC              =     -2.692507760
     EX+EC           =   -133.637784753
Transforming the Hamiltonian                       ... done (   0.0 sec)
Diagonalizing the Hamiltonian                      ... done (   0.0 sec)
Back transforming the eigenvectors                 ... done (   0.0 sec)
Now organizing SCF variables                       ... done
                      ------------------
                      INITIAL GUESS DONE (   3.2 sec)
                      ------------------
--------------
SCF ITERATIONS
--------------
ITER       Energy         Delta-E        Max-DP      RMS-DP      [F,P]     Damp
               ***  Starting incremental Fock matrix formation  ***
  0  -3280.8768819904   0.000000000000 0.03833397  0.00160579  0.2052956 0.7000
  1  -3280.9229152483  -0.046033257896 0.02598509  0.00081684  0.0607760 0.7000
                               ***Turning on DIIS***
  2  -3280.9402887682  -0.017373519955 0.04359668  0.00149266  0.0344327 0.0000
  3  -3280.9791588592  -0.038870090971 0.02388431  0.00058605  0.0380401 0.0000
  4  -3280.9832356747  -0.004076815533 0.01183220  0.00025129  0.0067659 0.0000
  5  -3280.9834435161  -0.000207841369 0.00288703  0.00008810  0.0070044 0.0000
  6  -3280.9835317533  -0.000088237211 0.00232944  0.00005719  0.0003714 0.0000
  7  -3280.9835350993  -0.000003346019 0.00069569  0.00001167  0.0001118 0.0000
  8  -3280.9835352070  -0.000000107667 0.00009430  0.00000211  0.0000459 0.0000
  9  -3280.9835352178  -0.000000010766 0.00003633  0.00000076  0.0000063 0.0000
                 **** Energy Check signals convergence ****

               *****************************************************
               *                     SUCCESS                       *
               *           SCF CONVERGED AFTER  10 CYCLES          *
               *****************************************************


----------------
TOTAL SCF ENERGY
----------------

Total Energy       :        -3280.98353522 Eh          -89280.10091 eV

Components:
Nuclear Repulsion  :          200.46758206 Eh            5455.00023 eV
Electronic Energy  :        -3481.45111728 Eh          -94735.10114 eV
One Electron Energy:        -4976.70966326 Eh         -135423.15472 eV
Two Electron Energy:         1495.25854598 Eh           40688.05358 eV

Virial components:
Potential Energy   :        -6558.14641463 Eh         -178456.23648 eV
Kinetic Energy     :         3277.16287941 Eh           89176.13558 eV
Virial Ratio       :            2.00116584


DFT components:
N(Alpha)           :       29.000000724233 electrons
N(Beta)            :       29.000000724233 electrons
N(Total)           :       58.000001448465 electrons
E(XC)              :      -98.947382686870 Eh       
DFET-embed. en.    :        0.000000000000 Eh       

---------------
SCF CONVERGENCE
---------------

  Last Energy change         ...   -1.8504e-09  Tolerance :   1.0000e-06
  Last MAX-Density change    ...    1.6297e-05  Tolerance :   1.0000e-05
  Last RMS-Density change    ...    3.2189e-07  Tolerance :   1.0000e-06
  Last DIIS Error            ...    9.5282e-06  Tolerance :   1.0000e-06

             **** THE GBW FILE WAS UPDATED (Cu2.gbw) ****
             **** DENSITY FILE WAS UPDATED (Cu2.scfp) ****
             **** ENERGY FILE WAS UPDATED (Cu2.en.tmp) ****
             **** THE GBW FILE WAS UPDATED (Cu2.gbw) ****
             **** DENSITY FILE WAS UPDATED (Cu2.scfp) ****
----------------
ORBITAL ENERGIES
----------------

  NO   OCC          E(Eh)            E(eV) 
   0   2.0000    -323.255851     -8796.2389 
   1   2.0000    -323.255843     -8796.2387 
   2   2.0000     -39.033568     -1062.1574 
   3   2.0000     -39.033539     -1062.1566 
   4   2.0000     -34.146604      -929.1763 
   5   2.0000     -34.146600      -929.1762 
   6   2.0000     -34.145861      -929.1561 
   7   2.0000     -34.145861      -929.1561 
   8   2.0000     -34.145856      -929.1560 
   9   2.0000     -34.145856      -929.1560 
  10   2.0000      -4.378723      -119.1511 
  11   2.0000      -4.378082      -119.1337 
  12   2.0000      -2.837074       -77.2007 
  13   2.0000      -2.831645       -77.0530 
  14   2.0000      -2.830985       -77.0350 
  15   2.0000      -2.830985       -77.0350 
  16   2.0000      -2.830521       -77.0224 
  17   2.0000      -2.830521       -77.0224 
  18   2.0000      -0.313670        -8.5354 
  19   2.0000      -0.300556        -8.1785 
  20   2.0000      -0.300556        -8.1785 
  21   2.0000      -0.283482        -7.7139 
  22   2.0000      -0.283466        -7.7135 
  23   2.0000      -0.275597        -7.4994 
  24   2.0000      -0.275582        -7.4990 
  25   2.0000      -0.266097        -7.2409 
  26   2.0000      -0.266097        -7.2409 
  27   2.0000      -0.262173        -7.1341 
  28   2.0000      -0.226084        -6.1521 
  29   0.0000      -0.090838        -2.4718 
  30   0.0000      -0.030037        -0.8173 
  31   0.0000      -0.030037        -0.8173 
  32   0.0000      -0.012987        -0.3534 
  33   0.0000       0.008720         0.2373 
  34   0.0000       0.015246         0.4149 
  35   0.0000       0.015247         0.4149 
  36   0.0000       0.074237         2.0201 
  37   0.0000       0.074237         2.0201 
  38   0.0000       0.087747         2.3877 
  39   0.0000       0.091597         2.4925 
  40   0.0000       0.140377         3.8199 
  41   0.0000       0.140377         3.8199 
  42   0.0000       0.143787         3.9126 
  43   0.0000       0.165259         4.4969 
  44   0.0000       0.165260         4.4970 
  45   0.0000       0.210462         5.7270 
  46   0.0000       0.219288         5.9671 
  47   0.0000       0.219288         5.9671 
  48   0.0000       0.230766         6.2795 
  49   0.0000       0.230766         6.2795 
  50   0.0000       0.299267         8.1435 
  51   0.0000       0.309803         8.4302 
  52   0.0000       0.309803         8.4302 
  53   0.0000       0.481473        13.1015 
  54   0.0000       0.620342        16.8804 
  55   0.0000       0.638523        17.3751 
  56   0.0000       0.638523        17.3751 
  57   0.0000       0.718600        19.5541 
  58   0.0000       0.718600        19.5541 
  59   0.0000       0.762958        20.7611 
  60   0.0000       0.821366        22.3505 
  61   0.0000       0.821366        22.3505 
  62   0.0000       0.850009        23.1299 
  63   0.0000       0.850053        23.1311 
  64   0.0000       0.923723        25.1358 
  65   0.0000       0.923768        25.1370 
  66   0.0000       0.957296        26.0494 
  67   0.0000       1.064647        28.9705 
  68   0.0000       1.064647        28.9705 
  69   0.0000       1.282375        34.8952 
  70   0.0000       3.023700        82.2791 
  71   0.0000       3.045116        82.8618 
  72   0.0000       3.045116        82.8618 
  73   0.0000       3.091618        84.1272 
  74   0.0000       3.129235        85.1508 
  75   0.0000       3.129235        85.1508 
  76   0.0000       3.184011        86.6414 
  77   0.0000       3.446038        93.7715 
  78   0.0000       3.446038        93.7715 
  79   0.0000       3.459389        94.1348 
  80   0.0000       3.469297        94.4044 
  81   0.0000       3.469368        94.4063 
  82   0.0000       3.477734        94.6339 
  83   0.0000       3.481324        94.7316 
  84   0.0000       3.481416        94.7342 
  85   0.0000       3.482763        94.7708 
  86   0.0000       3.482763        94.7708 
  87   0.0000       3.483308        94.7856 
  88   0.0000       3.483308        94.7856 
  89   0.0000       3.499964        95.2389 
  90   0.0000       3.499964        95.2389 
  91   0.0000       3.663957        99.7013 
  92   0.0000       3.725841       101.3853 
  93   0.0000       3.725946       101.3882 
  94   0.0000       3.770285       102.5947 
  95   0.0000       3.770375       102.5971 
  96   0.0000       3.787057       103.0511 
  97   0.0000       3.787057       103.0511 
  98   0.0000       3.861267       105.0704 
  99   0.0000       3.861267       105.0704 
 100   0.0000       4.054237       110.3214 
 101   0.0000       4.139024       112.6286 
 102   0.0000      13.028650       354.5276 
 103   0.0000      13.028839       354.5327 
 104   0.0000      13.028839       354.5327 
 105   0.0000      13.029374       354.5473 
 106   0.0000      13.029374       354.5473 
 107   0.0000      13.029450       354.5494 
 108   0.0000      13.029471       354.5499 
 109   0.0000      13.029976       354.5637 
 110   0.0000      13.029999       354.5643 
 111   0.0000      13.030565       354.5797 
 112   0.0000      13.031371       354.6016 
 113   0.0000      13.031371       354.6016 
 114   0.0000      13.031377       354.6018 
 115   0.0000      13.031377       354.6018 
 116   0.0000      13.033124       354.6493 
 117   0.0000      13.033125       354.6493 
 118   0.0000      13.033346       354.6554 
 119   0.0000      13.033347       354.6554 
 120   0.0000      13.228405       359.9632 
 121   0.0000      13.234237       360.1219 
 122   0.0000      13.234237       360.1219 
 123   0.0000      13.238335       360.2334 
 124   0.0000      13.238597       360.2405 
 125   0.0000      13.241566       360.3213 
 126   0.0000      13.241566       360.3213 
 127   0.0000      13.241736       360.3259 
 128   0.0000      13.241736       360.3259 
 129   0.0000      13.241903       360.3305 
 130   0.0000      13.242164       360.3376 
 131   0.0000      13.265424       360.9705 
 132   0.0000      13.265424       360.9705 
 133   0.0000      13.386236       364.2580 

                    ********************************
                    * MULLIKEN POPULATION ANALYSIS *
                    ********************************

-----------------------
MULLIKEN ATOMIC CHARGES
-----------------------
   0 Cu:    0.000007
   1 Cu:   -0.000007
Sum of atomic charges:   -0.0000000

--------------------------------
MULLIKEN REDUCED ORBITAL CHARGES
--------------------------------
  0 Cus       :     7.021947  s :     7.021947
      pz      :     4.009745  p :    12.026775
      px      :     4.008515
      py      :     4.008515
      dz2     :     1.968221  d :     9.951079
      dxz     :     1.991440
      dyz     :     1.991440
      dx2y2   :     1.999990
      dxy     :     1.999990
      f0      :     0.000080  f :     0.000190
      f+1     :     0.000045
      f-1     :     0.000045
      f+2     :     0.000010
      f-2     :     0.000010
      f+3     :     0.000000
      f-3     :     0.000000
      g0      :     0.000000  g :     0.000001
      g+1     :     0.000000
      g-1     :     0.000000
      g+2     :     0.000000
      g-2     :     0.000000
      g+3     :     0.000000
      g-3     :     0.000000
      g+4     :     0.000000
      g-4     :     0.000000
  1 Cus       :     7.021959  s :     7.021959
      pz      :     4.009747  p :    12.026778
      px      :     4.008515
      py      :     4.008515
      dz2     :     1.968221  d :     9.951080
      dxz     :     1.991440
      dyz     :     1.991440
      dx2y2   :     1.999990
      dxy     :     1.999990
      f0      :     0.000080  f :     0.000190
      f+1     :     0.000045
      f-1     :     0.000045
      f+2     :     0.000010
      f-2     :     0.000010
      f+3     :     0.000000
      f-3     :     0.000000
      g0      :     0.000000  g :     0.000001
      g+1     :     0.000000
      g-1     :     0.000000
      g+2     :     0.000000
      g-2     :     0.000000
      g+3     :     0.000000
      g-3     :     0.000000
      g+4     :     0.000000
      g-4     :     0.000000


                     *******************************
                     * LOEWDIN POPULATION ANALYSIS *
                     *******************************

----------------------
LOEWDIN ATOMIC CHARGES
----------------------
   0 Cu:    0.000000
   1 Cu:   -0.000000

-------------------------------
LOEWDIN REDUCED ORBITAL CHARGES
-------------------------------
  0 Cus       :     6.857346  s :     6.857346
      pz      :     4.115797  p :    12.135742
      px      :     4.009973
      py      :     4.009973
      dz2     :     2.026660  d :    10.006454
      dxz     :     1.989911
      dyz     :     1.989911
      dx2y2   :     1.999986
      dxy     :     1.999986
      f0      :     0.000196  f :     0.000455
      f+1     :     0.000116
      f-1     :     0.000116
      f+2     :     0.000014
      f-2     :     0.000014
      f+3     :     0.000000
      f-3     :     0.000000
      g0      :     0.000001  g :     0.000002
      g+1     :     0.000000
      g-1     :     0.000000
      g+2     :     0.000000
      g-2     :     0.000000
      g+3     :     0.000000
      g-3     :     0.000000
      g+4     :     0.000000
      g-4     :     0.000000
  1 Cus       :     6.857347  s :     6.857347
      pz      :     4.115797  p :    12.135742
      px      :     4.009973
      py      :     4.009973
      dz2     :     2.026660  d :    10.006455
      dxz     :     1.989911
      dyz     :     1.989911
      dx2y2   :     1.999986
      dxy     :     1.999986
      f0      :     0.000196  f :     0.000455
      f+1     :     0.000116
      f-1     :     0.000116
      f+2     :     0.000014
      f-2     :     0.000014
      f+3     :     0.000000
      f-3     :     0.000000
      g0      :     0.000001  g :     0.000002
      g+1     :     0.000000
      g-1     :     0.000000
      g+2     :     0.000000
      g-2     :     0.000000
      g+3     :     0.000000
      g-3     :     0.000000
      g+4     :     0.000000
      g-4     :     0.000000


                      *****************************
                      * MAYER POPULATION ANALYSIS *
                      *****************************

  NA   - Mulliken gross atomic population
  ZA   - Total nuclear charge
  QA   - Mulliken gross atomic charge
  VA   - Mayer's total valence
  BVA  - Mayer's bonded valence
  FA   - Mayer's free valence

  ATOM       NA         ZA         QA         VA         BVA        FA
  0 Cu    29.0000    29.0000     0.0000     1.0759     1.0759    -0.0000
  1 Cu    29.0000    29.0000    -0.0000     1.0759     1.0759    -0.0000

  Mayer bond orders larger than 0.100000
B(  0-Cu,  1-Cu) :   1.0759 

-------
TIMINGS
-------

Total SCF time: 0 days 0 hours 2 min 49 sec 

Total time                  ....     169.884 sec
Sum of individual times     ....     168.789 sec  ( 99.4%)

Fock matrix formation       ....     163.156 sec  ( 96.0%)
  XC integration            ....     159.623 sec  ( 97.8% of F)
    Basis function eval.    ....       0.022 sec  (  0.0% of XC)
    Density eval.           ....       0.031 sec  (  0.0% of XC)
    XC-Functional eval.     ....       0.059 sec  (  0.0% of XC)
    XC-Potential eval.      ....       0.065 sec  (  0.0% of XC)
Diagonalization             ....       1.912 sec  (  1.1%)
Density matrix formation    ....       0.006 sec  (  0.0%)
Population analysis         ....       0.428 sec  (  0.3%)
Initial guess               ....       0.628 sec  (  0.4%)
Orbital Transformation      ....       0.000 sec  (  0.0%)
Orbital Orthonormalization  ....       0.000 sec  (  0.0%)
DIIS solution               ....       0.093 sec  (  0.1%)
Grid generation             ....       2.566 sec  (  1.5%)


-------------------------------------------------------------------------------
                          DFT DISPERSION CORRECTION                            
                                                                               
                              DFTD3 V3.1  Rev 1                                
                              USING zero damping                               
-------------------------------------------------------------------------------
The M06 functional is recognized
Active option DFTDOPT                   ...         3   

molecular C6(AA) [au] = 711.688489 


            DFT-D V3
 parameters
 s6 scaling factor         :     1.0000 
 rs6 scaling factor        :     1.3250 
 s8 scaling factor         :     0.0000 
 rs8 scaling factor        :     1.0000 
 Damping factor alpha6     :    14.0000 
 Damping factor alpha8     :    16.0000 
 ad hoc parameters k1-k3   :    16.0000     1.3333    -4.0000 

 Edisp/kcal,au: -0.000257296280  -0.000000410028 
 E6   /kcal   :  -0.000257296 
 E8   /kcal   :  -0.000000000 
 % E8         :   0.000000000 

-------------------------   ----------------
Dispersion correction           -0.000000410
-------------------------   ----------------


-------------------------   --------------------
FINAL SINGLE POINT ENERGY     -3280.983535629641
-------------------------   --------------------


                            ***************************************
                            *     ORCA property calculations      *
                            ***************************************

                                    ---------------------
                                    Active property flags
                                    ---------------------
   (+) Dipole Moment


------------------------------------------------------------------------------
                       ORCA ELECTRIC PROPERTIES CALCULATION
------------------------------------------------------------------------------

Dipole Moment Calculation                       ... on
Quadrupole Moment Calculation                   ... off
Polarizability Calculation                      ... off
GBWName                                         ... Cu2.gbw
Electron density file                           ... Cu2.scfp
The origin for moment calculation is the CENTER OF MASS  = ( 0.000000,  0.000000  2.097596)

-------------
DIPOLE MOMENT
-------------
                                X             Y             Z
Electronic contribution:     -0.00000       0.00000      -0.00000
Nuclear contribution   :      0.00000       0.00000       0.00000
                        -----------------------------------------
Total Dipole Moment    :     -0.00000       0.00000      -0.00000
                        -----------------------------------------
Magnitude (a.u.)       :      0.00000
Magnitude (Debye)      :      0.00000



--------------------
Rotational spectrum 
--------------------
 
Rotational constants in cm-1:     0.000000     0.107648     0.107648 
Rotational constants in MHz :     0.000000  3227.201597  3227.201597 

 Dipole components along the rotational axes: 
x,y,z [a.u.] :    -0.000001     0.000000    -0.000000 
x,y,z [Debye]:    -0.000003     0.000000    -0.000001 

 

Timings for individual modules:

Sum of individual times         ...      176.523 sec (=   2.942 min)
GTO integral calculation        ...        5.702 sec (=   0.095 min)   3.2 %
SCF iterations                  ...      170.821 sec (=   2.847 min)  96.8 %
                             ****ORCA TERMINATED NORMALLY****
TOTAL RUN TIME: 0 days 0 hours 4 minutes 40 seconds 984 msec
