
                                 *****************
                                 * O   R   C   A *
                                 *****************

           --- An Ab Initio, DFT and Semiempirical electronic structure package ---

                  #######################################################
                  #                        -***-                        #
                  #          Department of theory and spectroscopy      #
                  #               Directorship: Frank Neese             #
                  #        Max Planck Institute fuer Kohlenforschung    #
                  #                Kaiser Wilhelm Platz 1               #
                  #                 D-45470 Muelheim/Ruhr               #
                  #                      Germany                        #
                  #                                                     #
                  #                  All rights reserved                #
                  #                        -***-                        #
                  #######################################################


                         Program Version 4.2.0 -  RELEASE  -


 With contributions from (in alphabetic order):
   Daniel Aravena         : Magnetic Suceptibility
   Michael Atanasov       : Ab Initio Ligand Field Theory (pilot matlab implementation)
   Alexander A. Auer      : GIAO ZORA, VPT2
   Ute Becker             : Parallelization
   Giovanni Bistoni       : ED, misc. LED, open-shell LED, HFLED
   Martin Brehm           : Molecular dynamics
   Dmytro Bykov           : SCF Hessian
   Vijay G. Chilkuri      : MRCI spin determinant printing, contributions to CSF-ICE
   Dipayan Datta          : RHF DLPNO-CCSD density
   Achintya Kumar Dutta   : EOM-CC, STEOM-CC
   Dmitry Ganyushin       : Spin-Orbit,Spin-Spin,Magnetic field MRCI
   Miquel Garcia          : C-PCM Hessian, Gaussian charge scheme
   Yang Guo               : DLPNO-NEVPT2, CIM, IAO-localization
   Andreas Hansen         : Spin unrestricted coupled pair/coupled cluster methods
   Benjamin Helmich-Paris : CASSCF linear response (MC-RPA)
   Lee Huntington         : MR-EOM, pCC
   Robert Izsak           : Overlap fitted RIJCOSX, COSX-SCS-MP3, EOM
   Christian Kollmar      : KDIIS, OOCD, Brueckner-CCSD(T), CCSD density
   Simone Kossmann        : Meta GGA functionals, TD-DFT gradient, OOMP2, MP2 Hessian
   Martin Krupicka        : AUTO-CI
   Lucas Lang             : DCDCAS
   Dagmar Lenk            : GEPOL surface, SMD
   Dimitrios Liakos       : Extrapolation schemes; Compound Job, initial MDCI parallelization
   Dimitrios Manganas     : Further ROCIS development; embedding schemes
   Dimitrios Pantazis     : SARC Basis sets
   Taras Petrenko         : DFT Hessian,TD-DFT gradient, ASA, ECA, R-Raman, ABS, FL, XAS/XES, NRVS
   Peter Pinski           : DLPNO-MP2, DLPNO-MP2 Gradient
   Christoph Reimann      : Effective Core Potentials
   Marius Retegan         : Local ZFS, SOC
   Christoph Riplinger    : Optimizer, TS searches, QM/MM, DLPNO-CCSD(T), (RO)-DLPNO pert. Triples
   Tobias Risthaus        : Range-separated hybrids, TD-DFT gradient, RPA, STAB
   Michael Roemelt        : Original ROCIS implementation
   Masaaki Saitow         : Open-shell DLPNO-CCSD energy and density
   Barbara Sandhoefer     : DKH picture change effects
   Avijit Sen             : IP-ROCIS
   Kantharuban Sivalingam : CASSCF convergence, NEVPT2, FIC-MRCI
   Bernardo de Souza      : ESD, SOC TD-DFT
   Georgi Stoychev        : AutoAux, RI-MP2 NMR
   Willem Van den Heuvel  : Paramagnetic NMR
   Boris Wezisla          : Elementary symmetry handling
   Frank Wennmohs         : Technical directorship


 We gratefully acknowledge several colleagues who have allowed us to
 interface, adapt or use parts of their codes:
   Stefan Grimme, W. Hujo, H. Kruse,             : VdW corrections, initial TS optimization,
                  C. Bannwarth                     DFT functionals, gCP, sTDA/sTD-DF
   Ed Valeev, F. Pavosevic, A. Kumar             : LibInt (2-el integral package), F12 methods
   Garnet Chan, S. Sharma, J. Yang, R. Olivares  : DMRG
   Ulf Ekstrom                                   : XCFun DFT Library
   Mihaly Kallay                                 : mrcc  (arbitrary order and MRCC methods)
   Andreas Klamt, Michael Diedenhofen            : otool_cosmo (COSMO solvation model)
   Jiri Pittner, Ondrej Demel                    : Mk-CCSD
   Frank Weinhold                                : gennbo (NPA and NBO analysis)
   Christopher J. Cramer and Donald G. Truhlar   : smd solvation model
   Lars Goerigk                                  : TD-DFT with DH, B97 family of functionals
   V. Asgeirsson, H. Jonsson                     : NEB implementation
   FAccTs GmbH                                   : IRC, NEB, NEB-TS, Multilevel, MM, QM/MM, CI optimization
   S Lehtola, MJT Oliveira, MAL Marques          : LibXC Library


 Your calculation uses the libint2 library for the computation of 2-el integrals
 For citations please refer to: http://libint.valeyev.net

 Your ORCA version has been built with support for libXC version: 4.2.3
 For citations please refer to: https://tddft.org/programs/libxc/

 This ORCA versions uses:
   CBLAS   interface :  Fast vector & matrix operations
   LAPACKE interface :  Fast linear algebra routines
   SCALAPACK package :  Parallel linear algebra routines


Your calculation utilizes the atom-pairwise dispersion correction
with the zero-damping scheme (D30)
Cite in your paper:
S.Grimme, J.Antony, S.Ehrlich and H.Krieg, J.Chem.Phys., 132, (2010), 154104 
   

XCFun DFT library Copyright 2009-2010 Ulf Ekstrom and contributors.
See http://admol.org/xcfun for more information. This is free soft-
ware; see the source code for copying conditions. There is ABSOLUTELY
NO WARRANTY; not even for MERCHANTABILITY or FITNESS FOR A PARTICULAR
PURPOSE. For details see the documentation. Scientific users of this 
library should cite U. Ekstrom, L. Visscher, R. Bast, A. J. Thorvald-
sen and K. Ruud; J.Chem.Theor.Comp. 2010, DOI: 10.1021/ct100117s
XCFun Version 0.99 
----- Orbital basis set information -----
Your calculation utilizes the basis: def2-TZVPPD
   F. Weigend and R. Ahlrichs, Phys. Chem. Chem. Phys. 7, 3297 (2005).
   D. Rappoport and F. Furche, J. Chem. Phys. 133 134105 (2010).

----- AuxJK basis set information -----
Your calculation utilizes the auxiliary basis: def2/JK
   H-Ba, Hf-Rn: F. Weigend, J. Comput. Chem. 29, 167 (2008).

cite the ECPs for Ag [Def2-ECP] as follows:
Ce-Yb(ecp-28): M. Dolg, H. Stoll, H.Preuss, J. Chem. Phys., 1989, 90, 1730-1734.
Y-Cd(ecp-28), Hf-Hg(ecp-46): D. Andrae,U. Haeussermann, M. Dolg, H. Stoll, H. Preuss, Theor. Chim. Acta, 1990, 77, 123-141.
In-Sb(ecp-28), Tl-Bi(ecp-46): B. Metz, H. Stoll, M. Dolg, J. Chem. Phys., 2000, 113, 2563-2569.
Te-Xe(ecp-28), Po-Rn(ecp-46): K. A. Peterson, D. Figgen, E. Goll, H. Stoll, M. Dolg, J. Chem. Phys., 2003, 119, 11113-11123.
Rb(ecp-28), Cs(ecp-46): T. Leininger, A. Nicklass, W. Kuechle, H. Stoll, M. Dolg, A. Bergner, Chem. Phys. Lett., 1996, 255, 274-280.
Sr(ecp-28), Ba(ecp-46): M. Kaupp, P. V. Schleyer, H. Stoll and H. Preuss, J. Chem. Phys., 1991, 94, 1360-1366.
La(ecp-46): M. Dolg, H. Stoll, A. Savin, H. Preuss, Theor. Chim. Acta, 1989, 75, 173-194.
Lu(ecp-28): X. Cao, M. Dolg, J. Chem. Phys., 2001, 115, 7348-7355.

ECP parameters for Ag [Def2-ECP] have been obtained from:
TURBOMOLE (7.0.2)

================================================================================
                                        WARNINGS
                       Please study these warnings very carefully!
================================================================================


WARNING: Minnesota functionals are quite sensitive to the integration grid.
         see SE Wheeler, KN Houk, JCTC 2010, 6, 395,
             N Mardirossian, M Head-Gordon, JCTC 2016, 12, 4303.
         Grid6 seems to be a minimum grid for reliable results with these functionals!
  ===> : Please increase the integration grid!


INFO   : the flag for use of LIBINT has been found!

================================================================================
                                       INPUT FILE
================================================================================
NAME = CuAg.in
|  1> #
|  2> # CuAg M06-D3/Def2-TZVPPD
|  3> #
|  4> ! m06 d3zero def2-tzvppd def2/jk grid4 nofinalgrid
|  5> 
|  6> *xyz 0 1
|  7> Cu         0.00000        0.00000        0.00000
|  8> Ag         0.00000        0.00000        2.25929
|  9> *
| 10> 
| 11> %maxcore 5000
| 12> 
| 13> %pal
| 14> nprocs = 28
| 15> end
| 16> 
| 17> 
| 18>                          ****END OF INPUT****
================================================================================

                       ****************************
                       * Single Point Calculation *
                       ****************************

---------------------------------
CARTESIAN COORDINATES (ANGSTROEM)
---------------------------------
  Cu     0.000000    0.000000    0.000000
  Ag     0.000000    0.000000    2.259290

----------------------------
CARTESIAN COORDINATES (A.U.)
----------------------------
  NO LB      ZA    FRAG     MASS         X           Y           Z
   0 Cu   29.0000    0    63.550    0.000000    0.000000    0.000000
   1 Ag   19.0000*   0   107.870    0.000000    0.000000    4.269439
* core charge reduced due to ECP

--------------------------------
INTERNAL COORDINATES (ANGSTROEM)
--------------------------------
 Cu     0   0   0     0.000000000000     0.00000000     0.00000000
 Ag     1   0   0     2.259290000000     0.00000000     0.00000000

---------------------------
INTERNAL COORDINATES (A.U.)
---------------------------
 Cu     0   0   0     0.000000000000     0.00000000     0.00000000
 Ag     1   0   0     4.269439357107     0.00000000     0.00000000

---------------------
BASIS SET INFORMATION
---------------------
There are 2 groups of distinct atoms

 Group   1 Type Cu  : 17s13p7d2f1g contracted to 6s6p4d2f1g pattern {842111/631111/4111/11/1}
 Group   2 Type Ag  : 7s7p6d2f1g contracted to 6s4p3d2f1g pattern {211111/4111/411/11/1}

Atom   0Cu   basis set group =>   1
Atom   1Ag   basis set group =>   2
----------------------------------
AUXILIARY/JK BASIS SET INFORMATION
----------------------------------
There are 2 groups of distinct atoms

 Group   1 Type Cu  : 19s14p12d10f7g3h1i contracted to 16s13p11d9f5g3h1i pattern {4111111111111111/2111111111111/21111111111/211111111/31111/111/1}
 Group   2 Type Ag  : 13s12p10d9f6g3h2i contracted to 11s10p9d8f6g3h2i pattern {31111111111/3111111111/211111111/21111111/111111/111/11}

Atom   0Cu   basis set group =>   1
Atom   1Ag   basis set group =>   2
-------------------------
ECP PARAMETER INFORMATION
-------------------------

 Group 1, Type Ag ECP Def2-ECP (replacing 28 core electrons, lmax=3)

Atom   1Ag   ECP group =>   1



           ************************************************************
           *        Program running with 28 parallel MPI-processes    *
           *              working on a common directory               *
           ************************************************************
------------------------------------------------------------------------------
                           ORCA GTO INTEGRAL CALCULATION
------------------------------------------------------------------------------

                         BASIS SET STATISTICS AND STARTUP INFO

 # of primitive gaussian shells          ...   63
 # of primitive gaussian functions       ...  195
 # of contracted shells                  ...   35
 # of contracted basis functions         ...  123
 Highest angular momentum                ...    4
 Maximum contraction depth               ...    8
 Integral package used                   ... LIBINT
 Integral threshhold            Thresh   ...  1.000e-10
 Primitive cut-off              TCut     ...  1.000e-11


------------------------------ INTEGRAL EVALUATION ----------------------------


 * One electron integrals 

   ECP integrals                         ... done
 Pre-screening matrix                    ... done
 Shell pair data                         ... done (   0.000 sec)



           ************************************************************
           *        Program running with 28 parallel MPI-processes    *
           *              working on a common directory               *
           ************************************************************
-------------------------------------------------------------------------------
                                 ORCA SCF
-------------------------------------------------------------------------------

------------
SCF SETTINGS
------------
Hamiltonian:
 Density Functional     Method          .... DFT(GTOs)
 Exchange Functional    Exchange        .... M06
 Correlation Functional Correlation     .... M06
 Gradients option       PostSCFGGA      .... off
 Hybrid DFT is turned on
   Fraction HF Exchange ScalHFX         ....  0.270000
   Scaling of DF-GGA-X  ScalDFX         ....  0.730000
   Scaling of DF-GGA-C  ScalDFC         ....  1.000000
   Scaling of DF-LDA-C  ScalLDAC        ....  1.000000
   Perturbative correction              ....  0.000000
   Density functional embedding theory  .... OFF


General Settings:
 Integral files         IntName         .... CuAg
 Hartree-Fock type      HFTyp           .... RHF
 Total Charge           Charge          ....    0
 Multiplicity           Mult            ....    1
 Number of Electrons    NEL             ....   48
 Basis Dimension        Dim             ....  123
 Nuclear Repulsion      ENuc            ....    129.0567575536 Eh

Convergence Acceleration:
 DIIS                   CNVDIIS         .... on
   Start iteration      DIISMaxIt       ....    12
   Startup error        DIISStart       ....  0.200000
   # of expansion vecs  DIISMaxEq       ....     5
   Bias factor          DIISBfac        ....   1.050
   Max. coefficient     DIISMaxC        ....  10.000
 Newton-Raphson         CNVNR           .... off
 SOSCF                  CNVSOSCF        .... off
 Level Shifting         CNVShift        .... on
   Level shift para.    LevelShift      ....    0.2500
   Turn off err/grad.   ShiftErr        ....    0.0010
 Zerner damping         CNVZerner       .... off
 Static damping         CNVDamp         .... on
   Fraction old density DampFac         ....    0.7000
   Max. Damping (<1)    DampMax         ....    0.9800
   Min. Damping (>=0)   DampMin         ....    0.0000
   Turn off err/grad.   DampErr         ....    0.1000
 Fernandez-Rico         CNVRico         .... off

SCF Procedure:
 Maximum # iterations   MaxIter         ....   125
 SCF integral mode      SCFMode         .... Direct
   Integral package                     .... LIBINT
 Reset frequency        DirectResetFreq ....    20
 Integral Threshold     Thresh          ....  1.000e-10 Eh
 Primitive CutOff       TCut            ....  1.000e-11 Eh

Convergence Tolerance:
 Convergence Check Mode ConvCheckMode   .... Total+1el-Energy
 Convergence forced     ConvForced      .... 0
 Energy Change          TolE            ....  1.000e-06 Eh
 1-El. energy change                    ....  1.000e-03 Eh
 DIIS Error             TolErr          ....  1.000e-06


Diagonalization of the overlap matrix:
Smallest eigenvalue                        ... 1.389e-03
Time for diagonalization                   ...    0.003 sec
Threshold for overlap eigenvalues          ... 1.000e-08
Number of eigenvalues below threshold      ... 0
Time for construction of square roots      ...    0.034 sec
Total time needed                          ...    0.037 sec

-------------------
DFT GRID GENERATION
-------------------

General Integration Accuracy     IntAcc      ...  4.670
Radial Grid Type                 RadialGrid  ... Gauss-Chebyshev
Angular Grid (max. acc.)         AngularGrid ... Lebedev-302
Angular grid pruning method      GridPruning ... 3 (G Style)
Weight generation scheme         WeightScheme... Becke
Basis function cutoff            BFCut       ...    1.0000e-10
Integration weight cutoff        WCut        ...    1.0000e-14
Grids for H and He will be reduced by one unit

# of grid points (after initial pruning)     ...  20214 (   0.0 sec)
# of grid points (after weights+screening)   ...  20181 (   0.0 sec)
nearest neighbour list constructed           ...    0.0 sec
Grid point re-assignment to atoms done       ...    0.0 sec
Grid point division into batches done        ...    0.2 sec
Reduced shell lists constructed in    0.2 sec

Total number of grid points                  ...    20181
Total number of batches                      ...      316
Average number of points per batch           ...       63
Average number of grid points per atom       ...    10090
Average number of shells per batch           ...     5.15 (14.73%)
Average number of basis functions per batch  ...    13.62 (11.07%)
Average number of large shells per batch     ...     3.77 (73.13%)
Average number of large basis fcns per batch ...     9.46 (69.49%)
Maximum spatial batch extension              ...  24.44, 24.44, 21.72 au
Average spatial batch extension              ...   0.84,  0.84,  0.61 au

Time for grid setup =    2.182 sec

------------------------------
INITIAL GUESS: MODEL POTENTIAL
------------------------------
Loading Hartree-Fock densities                     ... done
  calling /mnt/storage/software/apps/orca-4.2.0/orca_4_2_0_linux_x86-64_openmpi314/orca CuAg_atom47.inp > CuAg_atom47.out in order to generate an atomic fitting density for atom 1 (Ag with ECP) on-the-fly... 
    atom 1 (Ag), assumed electronic state with S=2: 1s2 2s2 2p6 3s2 3p6 4s2 3d10 4p6 5s2 4d9           ... done
Calculating cut-offs                               ... done
Setting up the integral package                    ... done
Initializing the effective Hamiltonian             ... done
Starting the Coulomb interaction                   ... done (   0.0 sec)
Reading the grid                                   ... done
Mapping shells                                     ... done
Starting the XC term evaluation                    ... done (   0.0 sec)
  promolecular density results
     # of electrons  =     76.000936569
     EX              =   -208.909671623
     EC              =     -3.835187384
     EX+EC           =   -212.744859007
Transforming the Hamiltonian                       ... done (   0.0 sec)
Diagonalizing the Hamiltonian                      ... done (   0.0 sec)
Back transforming the eigenvectors                 ... done (   0.0 sec)
Now organizing SCF variables                       ... done
                      ------------------
                      INITIAL GUESS DONE (  13.3 sec)
                      ------------------
--------------
SCF ITERATIONS
--------------
ITER       Energy         Delta-E        Max-DP      RMS-DP      [F,P]     Damp
               ***  Starting incremental Fock matrix formation  ***
  0  -1787.3668549097   0.000000000000 0.12775439  0.00275833  0.4988758 0.7000
  1  -1787.4434193573  -0.076564447612 0.06867322  0.00158542  0.3255070 0.7000
  2  -1787.4701485252  -0.026729167905 0.03215531  0.00074512  0.2154894 0.7000
                               ***Turning on DIIS***
  3  -1787.4887380769  -0.018589551681 0.01649340  0.00039045  0.1481786 0.7000
  4  -1787.5019771171  -0.013239040219 0.01156260  0.00029208  0.1042392 0.7000
  5  -1787.5112306196  -0.009253502408 0.03189616  0.00084383  0.0734885 0.0000
  6  -1787.5329508941  -0.021720274525 0.00480281  0.00016064  0.0135313 0.0000
  7  -1787.5329956658  -0.000044771731 0.00360291  0.00008025  0.0115962 0.0000
  8  -1787.5331006530  -0.000104987142 0.00208093  0.00003328  0.0011681 0.0000
  9  -1787.5331038630  -0.000003210051 0.00149880  0.00002793  0.0003036 0.0000
 10  -1787.5331048611  -0.000000998107 0.00123639  0.00001882  0.0003375 0.0000
                 **** Energy Check signals convergence ****

               *****************************************************
               *                     SUCCESS                       *
               *           SCF CONVERGED AFTER  11 CYCLES          *
               *****************************************************


----------------
TOTAL SCF ENERGY
----------------

Total Energy       :        -1787.53310517 Eh          -48641.24866 eV

Components:
Nuclear Repulsion  :          129.05675755 Eh            3511.81291 eV
Electronic Energy  :        -1916.58986272 Eh          -52153.06158 eV
One Electron Energy:        -2807.16137351 Eh          -76386.74440 eV
Two Electron Energy:          890.57151079 Eh           24233.68283 eV

Virial components:
Potential Energy   :        -3482.48550348 Eh          -94763.24822 eV
Kinetic Energy     :         1694.95239831 Eh           46121.99956 eV
Virial Ratio       :            2.05462142


DFT components:
N(Alpha)           :       23.999997525025 electrons
N(Beta)            :       23.999997525025 electrons
N(Total)           :       47.999995050051 electrons
E(XC)              :      -60.099724947609 Eh       
DFET-embed. en.    :        0.000000000000 Eh       

---------------
SCF CONVERGENCE
---------------

  Last Energy change         ...   -3.0543e-07  Tolerance :   1.0000e-06
  Last MAX-Density change    ...    1.9635e-04  Tolerance :   1.0000e-05
  Last RMS-Density change    ...    5.0879e-06  Tolerance :   1.0000e-06
  Last DIIS Error            ...    7.9526e-05  Tolerance :   1.0000e-06

             **** THE GBW FILE WAS UPDATED (CuAg.gbw) ****
             **** DENSITY FILE WAS UPDATED (CuAg.scfp) ****
             **** ENERGY FILE WAS UPDATED (CuAg.en.tmp) ****
             **** THE GBW FILE WAS UPDATED (CuAg.gbw) ****
             **** DENSITY FILE WAS UPDATED (CuAg.scfp) ****
----------------
ORBITAL ENERGIES
----------------

  NO   OCC          E(Eh)            E(eV) 
   0   2.0000    -323.253799     -8796.1831 
   1   2.0000     -39.031605     -1062.1040 
   2   2.0000     -34.144479      -929.1185 
   3   2.0000     -34.143970      -929.1047 
   4   2.0000     -34.143970      -929.1047 
   5   2.0000      -4.377430      -119.1159 
   6   2.0000      -3.721355      -101.2632 
   7   2.0000      -2.833897       -77.1143 
   8   2.0000      -2.829769       -77.0019 
   9   2.0000      -2.829769       -77.0019 
  10   2.0000      -2.331490       -63.4431 
  11   2.0000      -2.326678       -63.3121 
  12   2.0000      -2.326678       -63.3121 
  13   2.0000      -0.369115       -10.0441 
  14   2.0000      -0.353605        -9.6221 
  15   2.0000      -0.353605        -9.6221 
  16   2.0000      -0.340032        -9.2527 
  17   2.0000      -0.340005        -9.2520 
  18   2.0000      -0.278329        -7.5737 
  19   2.0000      -0.278307        -7.5731 
  20   2.0000      -0.275352        -7.4927 
  21   2.0000      -0.275352        -7.4927 
  22   2.0000      -0.271905        -7.3989 
  23   2.0000      -0.225118        -6.1258 
  24   0.0000      -0.088159        -2.3989 
  25   0.0000      -0.029901        -0.8137 
  26   0.0000      -0.029901        -0.8137 
  27   0.0000      -0.009448        -0.2571 
  28   0.0000       0.021854         0.5947 
  29   0.0000       0.021854         0.5947 
  30   0.0000       0.028063         0.7636 
  31   0.0000       0.089391         2.4325 
  32   0.0000       0.094091         2.5604 
  33   0.0000       0.094091         2.5604 
  34   0.0000       0.124432         3.3860 
  35   0.0000       0.136812         3.7229 
  36   0.0000       0.178155         4.8478 
  37   0.0000       0.178155         4.8478 
  38   0.0000       0.181643         4.9427 
  39   0.0000       0.181643         4.9428 
  40   0.0000       0.249092         6.7781 
  41   0.0000       0.249092         6.7781 
  42   0.0000       0.256124         6.9695 
  43   0.0000       0.425494        11.5783 
  44   0.0000       0.425494        11.5783 
  45   0.0000       0.429890        11.6979 
  46   0.0000       0.548790        14.9333 
  47   0.0000       0.548790        14.9333 
  48   0.0000       0.612130        16.6569 
  49   0.0000       0.660057        17.9611 
  50   0.0000       0.660057        17.9611 
  51   0.0000       0.731330        19.9005 
  52   0.0000       0.878337        23.9008 
  53   0.0000       0.878403        23.9026 
  54   0.0000       0.890374        24.2283 
  55   0.0000       0.890374        24.2283 
  56   0.0000       1.002964        27.2920 
  57   0.0000       1.609344        43.7925 
  58   0.0000       1.609417        43.7945 
  59   0.0000       1.613281        43.8996 
  60   0.0000       1.613281        43.8996 
  61   0.0000       1.649109        44.8745 
  62   0.0000       1.649109        44.8745 
  63   0.0000       1.694038        46.0971 
  64   0.0000       1.694038        46.0971 
  65   0.0000       1.710444        46.5436 
  66   0.0000       1.799733        48.9732 
  67   0.0000       2.074473        56.4493 
  68   0.0000       2.074493        56.4498 
  69   0.0000       2.153022        58.5867 
  70   0.0000       2.154091        58.6158 
  71   0.0000       2.154091        58.6158 
  72   0.0000       2.275292        61.9139 
  73   0.0000       3.078320        83.7654 
  74   0.0000       3.078320        83.7654 
  75   0.0000       3.190496        86.8178 
  76   0.0000       3.241113        88.1952 
  77   0.0000       3.476987        94.6136 
  78   0.0000       3.477109        94.6169 
  79   0.0000       3.483044        94.7784 
  80   0.0000       3.483044        94.7784 
  81   0.0000       3.489830        94.9631 
  82   0.0000       3.489830        94.9631 
  83   0.0000       3.609326        98.2148 
  84   0.0000       3.741359       101.8076 
  85   0.0000       3.741545       101.8126 
  86   0.0000       3.777836       102.8001 
  87   0.0000       3.777836       102.8001 
  88   0.0000       4.002451       108.9122 
  89   0.0000       4.793049       130.4255 
  90   0.0000       4.793069       130.4260 
  91   0.0000       4.793521       130.4383 
  92   0.0000       4.793521       130.4383 
  93   0.0000       4.853420       132.0683 
  94   0.0000       4.853420       132.0683 
  95   0.0000       5.065595       137.8419 
  96   0.0000       5.541289       150.7862 
  97   0.0000       5.541435       150.7901 
  98   0.0000       5.544104       150.8627 
  99   0.0000       5.544104       150.8627 
 100   0.0000       5.547491       150.9549 
 101   0.0000       5.547599       150.9578 
 102   0.0000       5.547599       150.9578 
 103   0.0000       5.547734       150.9615 
 104   0.0000       5.567487       151.4990 
 105   0.0000      13.028674       354.5282 
 106   0.0000      13.028674       354.5282 
 107   0.0000      13.029595       354.5533 
 108   0.0000      13.029954       354.5631 
 109   0.0000      13.030466       354.5770 
 110   0.0000      13.031965       354.6178 
 111   0.0000      13.031965       354.6178 
 112   0.0000      13.033901       354.6705 
 113   0.0000      13.034211       354.6789 
 114   0.0000      13.241329       360.3149 
 115   0.0000      13.241664       360.3240 
 116   0.0000      13.242760       360.3538 
 117   0.0000      13.242760       360.3538 
 118   0.0000      13.249295       360.5317 
 119   0.0000      13.249295       360.5317 
 120   0.0000      13.292277       361.7013 
 121   0.0000      33.654910       915.7967 
 122   0.0000     110.335773      3002.3890 

                    ********************************
                    * MULLIKEN POPULATION ANALYSIS *
                    ********************************

-----------------------
MULLIKEN ATOMIC CHARGES
-----------------------
   0 Cu:   -0.042643
   1 Ag:    0.042643
Sum of atomic charges:   -0.0000000

--------------------------------
MULLIKEN REDUCED ORBITAL CHARGES
--------------------------------
  0 Cus       :     7.005253  s :     7.005253
      pz      :     4.042668  p :    12.062175
      px      :     4.009754
      py      :     4.009754
      dz2     :     1.988401  d :     9.974818
      dxz     :     1.992741
      dyz     :     1.992741
      dx2y2   :     2.000468
      dxy     :     2.000468
      f0      :     0.000178  f :     0.000396
      f+1     :     0.000098
      f-1     :     0.000098
      f+2     :     0.000011
      f-2     :     0.000011
      f+3     :     0.000000
      f-3     :     0.000000
      g0      :     0.000001  g :     0.000002
      g+1     :     0.000000
      g-1     :     0.000000
      g+2     :     0.000000
      g-2     :     0.000000
      g+3     :     0.000000
      g-3     :     0.000000
      g+4     :     0.000000
      g-4     :     0.000000
  1 Ags       :     2.989282  s :     2.989282
      pz      :     2.011313  p :     6.026676
      px      :     2.007681
      py      :     2.007681
      dz2     :     1.962126  d :     9.939637
      dxz     :     1.989307
      dyz     :     1.989307
      dx2y2   :     1.999448
      dxy     :     1.999448
      f0      :     0.000763  f :     0.001727
      f+1     :     0.000411
      f-1     :     0.000411
      f+2     :     0.000071
      f-2     :     0.000071
      f+3     :     0.000000
      f-3     :     0.000000
      g0      :     0.000016  g :     0.000034
      g+1     :     0.000008
      g-1     :     0.000008
      g+2     :     0.000002
      g-2     :     0.000002
      g+3     :     0.000000
      g-3     :     0.000000
      g+4     :     0.000000
      g-4     :     0.000000


                     *******************************
                     * LOEWDIN POPULATION ANALYSIS *
                     *******************************

----------------------
LOEWDIN ATOMIC CHARGES
----------------------
   0 Cu:   -0.135748
   1 Ag:    0.135748

-------------------------------
LOEWDIN REDUCED ORBITAL CHARGES
-------------------------------
  0 Cus       :     6.939220  s :     6.939220
      pz      :     4.122675  p :    12.155242
      px      :     4.016284
      py      :     4.016284
      dz2     :     2.042095  d :    10.040673
      dxz     :     1.996832
      dyz     :     1.996832
      dx2y2   :     2.002456
      dxy     :     2.002457
      f0      :     0.000268  f :     0.000611
      f+1     :     0.000156
      f-1     :     0.000156
      f+2     :     0.000016
      f-2     :     0.000016
      f+3     :     0.000000
      f-3     :     0.000000
      g0      :     0.000001  g :     0.000002
      g+1     :     0.000001
      g-1     :     0.000001
      g+2     :     0.000000
      g-2     :     0.000000
      g+3     :     0.000000
      g-3     :     0.000000
      g+4     :     0.000000
      g-4     :     0.000000
  1 Ags       :     2.824458  s :     2.824458
      pz      :     2.087332  p :     6.100996
      px      :     2.006832
      py      :     2.006832
      dz2     :     1.982273  d :     9.935027
      dxz     :     1.978953
      dyz     :     1.978953
      dx2y2   :     1.997424
      dxy     :     1.997424
      f0      :     0.001652  f :     0.003706
      f+1     :     0.000926
      f-1     :     0.000926
      f+2     :     0.000101
      f-2     :     0.000101
      f+3     :     0.000000
      f-3     :     0.000000
      g0      :     0.000026  g :     0.000065
      g+1     :     0.000017
      g-1     :     0.000017
      g+2     :     0.000003
      g-2     :     0.000003
      g+3     :     0.000000
      g-3     :     0.000000
      g+4     :     0.000000
      g-4     :     0.000000


                      *****************************
                      * MAYER POPULATION ANALYSIS *
                      *****************************

  NA   - Mulliken gross atomic population
  ZA   - Total nuclear charge
  QA   - Mulliken gross atomic charge
  VA   - Mayer's total valence
  BVA  - Mayer's bonded valence
  FA   - Mayer's free valence

  ATOM       NA         ZA         QA         VA         BVA        FA
  0 Cu    29.0426    29.0000    -0.0426     1.1206     1.1206     0.0000
  1 Ag    18.9574    19.0000     0.0426     1.1206     1.1206    -0.0000

  Mayer bond orders larger than 0.100000
B(  0-Cu,  1-Ag) :   1.1206 

-------
TIMINGS
-------

Total SCF time: 0 days 0 hours 3 min 20 sec 

Total time                  ....     200.165 sec
Sum of individual times     ....     199.233 sec  ( 99.5%)

Fock matrix formation       ....     183.730 sec  ( 91.8%)
  XC integration            ....     180.012 sec  ( 98.0% of F)
    Basis function eval.    ....       0.024 sec  (  0.0% of XC)
    Density eval.           ....       0.039 sec  (  0.0% of XC)
    XC-Functional eval.     ....       0.069 sec  (  0.0% of XC)
    XC-Potential eval.      ....       0.070 sec  (  0.0% of XC)
Diagonalization             ....       1.878 sec  (  0.9%)
Density matrix formation    ....       0.006 sec  (  0.0%)
Population analysis         ....       0.236 sec  (  0.1%)
Initial guess               ....      11.104 sec  (  5.5%)
Orbital Transformation      ....       0.000 sec  (  0.0%)
Orbital Orthonormalization  ....       0.000 sec  (  0.0%)
DIIS solution               ....       0.097 sec  (  0.0%)
Grid generation             ....       2.182 sec  (  1.1%)


-------------------------------------------------------------------------------
                          DFT DISPERSION CORRECTION                            
                                                                               
                              DFTD3 V3.1  Rev 1                                
                              USING zero damping                               
-------------------------------------------------------------------------------
The M06 functional is recognized
Active option DFTDOPT                   ...         3   

molecular C6(AA) [au] = 885.761287 


            DFT-D V3
 parameters
 s6 scaling factor         :     1.0000 
 rs6 scaling factor        :     1.3250 
 s8 scaling factor         :     0.0000 
 rs8 scaling factor        :     1.0000 
 Damping factor alpha6     :    14.0000 
 Damping factor alpha8     :    16.0000 
 ad hoc parameters k1-k3   :    16.0000     1.3333    -4.0000 

 Edisp/kcal,au: -0.001521551844  -0.000002424747 
 E6   /kcal   :  -0.001521552 
 E8   /kcal   :  -0.000000000 
 % E8         :   0.000000000 

-------------------------   ----------------
Dispersion correction           -0.000002425
-------------------------   ----------------


-------------------------   --------------------
FINAL SINGLE POINT ENERGY     -1787.533107591293
-------------------------   --------------------


                            ***************************************
                            *     ORCA property calculations      *
                            ***************************************

                                    ---------------------
                                    Active property flags
                                    ---------------------
   (+) Dipole Moment


------------------------------------------------------------------------------
                       ORCA ELECTRIC PROPERTIES CALCULATION
------------------------------------------------------------------------------

Dipole Moment Calculation                       ... on
Quadrupole Moment Calculation                   ... off
Polarizability Calculation                      ... off
GBWName                                         ... CuAg.gbw
Electron density file                           ... CuAg.scfp
The origin for moment calculation is the CENTER OF MASS  = ( 0.000000,  0.000000  2.686643)

-------------
DIPOLE MOMENT
-------------
                                X             Y             Z
Electronic contribution:      0.00000      -0.00000      47.92658
Nuclear contribution   :      0.00000       0.00000     -47.83954
                        -----------------------------------------
Total Dipole Moment    :      0.00000      -0.00000       0.08704
                        -----------------------------------------
Magnitude (a.u.)       :      0.08704
Magnitude (Debye)      :      0.22124



--------------------
Rotational spectrum 
--------------------
 
Rotational constants in cm-1:     0.000000     0.082584     0.082584 
Rotational constants in MHz :     0.000000  2475.819054  2475.819054 

 Dipole components along the rotational axes: 
x,y,z [a.u.] :     0.087042    -0.000000     0.000000 
x,y,z [Debye]:     0.221244    -0.000001     0.000000 

 

Timings for individual modules:

Sum of individual times         ...      206.476 sec (=   3.441 min)
GTO integral calculation        ...        5.439 sec (=   0.091 min)   2.6 %
SCF iterations                  ...      201.037 sec (=   3.351 min)  97.4 %
                             ****ORCA TERMINATED NORMALLY****
TOTAL RUN TIME: 0 days 0 hours 4 minutes 43 seconds 219 msec
