
                                 *****************
                                 * O   R   C   A *
                                 *****************

           --- An Ab Initio, DFT and Semiempirical electronic structure package ---

                  #######################################################
                  #                        -***-                        #
                  #          Department of theory and spectroscopy      #
                  #               Directorship: Frank Neese             #
                  #        Max Planck Institute fuer Kohlenforschung    #
                  #                Kaiser Wilhelm Platz 1               #
                  #                 D-45470 Muelheim/Ruhr               #
                  #                      Germany                        #
                  #                                                     #
                  #                  All rights reserved                #
                  #                        -***-                        #
                  #######################################################


                         Program Version 4.2.0 -  RELEASE  -


 With contributions from (in alphabetic order):
   Daniel Aravena         : Magnetic Suceptibility
   Michael Atanasov       : Ab Initio Ligand Field Theory (pilot matlab implementation)
   Alexander A. Auer      : GIAO ZORA, VPT2
   Ute Becker             : Parallelization
   Giovanni Bistoni       : ED, misc. LED, open-shell LED, HFLED
   Martin Brehm           : Molecular dynamics
   Dmytro Bykov           : SCF Hessian
   Vijay G. Chilkuri      : MRCI spin determinant printing, contributions to CSF-ICE
   Dipayan Datta          : RHF DLPNO-CCSD density
   Achintya Kumar Dutta   : EOM-CC, STEOM-CC
   Dmitry Ganyushin       : Spin-Orbit,Spin-Spin,Magnetic field MRCI
   Miquel Garcia          : C-PCM Hessian, Gaussian charge scheme
   Yang Guo               : DLPNO-NEVPT2, CIM, IAO-localization
   Andreas Hansen         : Spin unrestricted coupled pair/coupled cluster methods
   Benjamin Helmich-Paris : CASSCF linear response (MC-RPA)
   Lee Huntington         : MR-EOM, pCC
   Robert Izsak           : Overlap fitted RIJCOSX, COSX-SCS-MP3, EOM
   Christian Kollmar      : KDIIS, OOCD, Brueckner-CCSD(T), CCSD density
   Simone Kossmann        : Meta GGA functionals, TD-DFT gradient, OOMP2, MP2 Hessian
   Martin Krupicka        : AUTO-CI
   Lucas Lang             : DCDCAS
   Dagmar Lenk            : GEPOL surface, SMD
   Dimitrios Liakos       : Extrapolation schemes; Compound Job, initial MDCI parallelization
   Dimitrios Manganas     : Further ROCIS development; embedding schemes
   Dimitrios Pantazis     : SARC Basis sets
   Taras Petrenko         : DFT Hessian,TD-DFT gradient, ASA, ECA, R-Raman, ABS, FL, XAS/XES, NRVS
   Peter Pinski           : DLPNO-MP2, DLPNO-MP2 Gradient
   Christoph Reimann      : Effective Core Potentials
   Marius Retegan         : Local ZFS, SOC
   Christoph Riplinger    : Optimizer, TS searches, QM/MM, DLPNO-CCSD(T), (RO)-DLPNO pert. Triples
   Tobias Risthaus        : Range-separated hybrids, TD-DFT gradient, RPA, STAB
   Michael Roemelt        : Original ROCIS implementation
   Masaaki Saitow         : Open-shell DLPNO-CCSD energy and density
   Barbara Sandhoefer     : DKH picture change effects
   Avijit Sen             : IP-ROCIS
   Kantharuban Sivalingam : CASSCF convergence, NEVPT2, FIC-MRCI
   Bernardo de Souza      : ESD, SOC TD-DFT
   Georgi Stoychev        : AutoAux, RI-MP2 NMR
   Willem Van den Heuvel  : Paramagnetic NMR
   Boris Wezisla          : Elementary symmetry handling
   Frank Wennmohs         : Technical directorship


 We gratefully acknowledge several colleagues who have allowed us to
 interface, adapt or use parts of their codes:
   Stefan Grimme, W. Hujo, H. Kruse,             : VdW corrections, initial TS optimization,
                  C. Bannwarth                     DFT functionals, gCP, sTDA/sTD-DF
   Ed Valeev, F. Pavosevic, A. Kumar             : LibInt (2-el integral package), F12 methods
   Garnet Chan, S. Sharma, J. Yang, R. Olivares  : DMRG
   Ulf Ekstrom                                   : XCFun DFT Library
   Mihaly Kallay                                 : mrcc  (arbitrary order and MRCC methods)
   Andreas Klamt, Michael Diedenhofen            : otool_cosmo (COSMO solvation model)
   Jiri Pittner, Ondrej Demel                    : Mk-CCSD
   Frank Weinhold                                : gennbo (NPA and NBO analysis)
   Christopher J. Cramer and Donald G. Truhlar   : smd solvation model
   Lars Goerigk                                  : TD-DFT with DH, B97 family of functionals
   V. Asgeirsson, H. Jonsson                     : NEB implementation
   FAccTs GmbH                                   : IRC, NEB, NEB-TS, Multilevel, MM, QM/MM, CI optimization
   S Lehtola, MJT Oliveira, MAL Marques          : LibXC Library


 Your calculation uses the libint2 library for the computation of 2-el integrals
 For citations please refer to: http://libint.valeyev.net

 Your ORCA version has been built with support for libXC version: 4.2.3
 For citations please refer to: https://tddft.org/programs/libxc/

 This ORCA versions uses:
   CBLAS   interface :  Fast vector & matrix operations
   LAPACKE interface :  Fast linear algebra routines
   SCALAPACK package :  Parallel linear algebra routines


Your calculation utilizes the atom-pairwise dispersion correction
with the zero-damping scheme (D30)
Cite in your paper:
S.Grimme, J.Antony, S.Ehrlich and H.Krieg, J.Chem.Phys., 132, (2010), 154104 
   

XCFun DFT library Copyright 2009-2010 Ulf Ekstrom and contributors.
See http://admol.org/xcfun for more information. This is free soft-
ware; see the source code for copying conditions. There is ABSOLUTELY
NO WARRANTY; not even for MERCHANTABILITY or FITNESS FOR A PARTICULAR
PURPOSE. For details see the documentation. Scientific users of this 
library should cite U. Ekstrom, L. Visscher, R. Bast, A. J. Thorvald-
sen and K. Ruud; J.Chem.Theor.Comp. 2010, DOI: 10.1021/ct100117s
XCFun Version 0.99 
----- Orbital basis set information -----
Your calculation utilizes the basis: def2-TZVPPD
   F. Weigend and R. Ahlrichs, Phys. Chem. Chem. Phys. 7, 3297 (2005).
   D. Rappoport and F. Furche, J. Chem. Phys. 133 134105 (2010).

----- AuxJK basis set information -----
Your calculation utilizes the auxiliary basis: def2/JK
   H-Ba, Hf-Rn: F. Weigend, J. Comput. Chem. 29, 167 (2008).

================================================================================
                                        WARNINGS
                       Please study these warnings very carefully!
================================================================================


WARNING: Minnesota functionals are quite sensitive to the integration grid.
         see SE Wheeler, KN Houk, JCTC 2010, 6, 395,
             N Mardirossian, M Head-Gordon, JCTC 2016, 12, 4303.
         Grid6 seems to be a minimum grid for reliable results with these functionals!
  ===> : Please increase the integration grid!


INFO   : the flag for use of LIBINT has been found!

================================================================================
                                       INPUT FILE
================================================================================
NAME = LiCl.in
|  1> #
|  2> # LiCl M06-D3/Def2-TZVPPD
|  3> #
|  4> ! m06 d3zero def2-tzvppd def2/jk grid4 nofinalgrid
|  5> 
|  6> *xyz 0 1
|  7> Li         0.00000        0.00000        0.00000
|  8> Cl         0.00000        0.00000        2.02067
|  9> *
| 10> 
| 11> %maxcore 5000
| 12> 
| 13> %pal
| 14> nprocs = 28
| 15> end
| 16> 
| 17> 
| 18>                          ****END OF INPUT****
================================================================================

                       ****************************
                       * Single Point Calculation *
                       ****************************

---------------------------------
CARTESIAN COORDINATES (ANGSTROEM)
---------------------------------
  Li     0.000000    0.000000    0.000000
  Cl     0.000000    0.000000    2.020670

----------------------------
CARTESIAN COORDINATES (A.U.)
----------------------------
  NO LB      ZA    FRAG     MASS         X           Y           Z
   0 Li    3.0000    0     6.941    0.000000    0.000000    0.000000
   1 Cl   17.0000    0    35.453    0.000000    0.000000    3.818513

--------------------------------
INTERNAL COORDINATES (ANGSTROEM)
--------------------------------
 Li     0   0   0     0.000000000000     0.00000000     0.00000000
 Cl     1   0   0     2.020670000000     0.00000000     0.00000000

---------------------------
INTERNAL COORDINATES (A.U.)
---------------------------
 Li     0   0   0     0.000000000000     0.00000000     0.00000000
 Cl     1   0   0     3.818512907031     0.00000000     0.00000000

---------------------
BASIS SET INFORMATION
---------------------
There are 2 groups of distinct atoms

 Group   1 Type Li  : 11s4p1d contracted to 5s4p1d pattern {62111/1111/1}
 Group   2 Type Cl  : 15s10p4d1f contracted to 6s6p4d1f pattern {732111/511111/1111/1}

Atom   0Li   basis set group =>   1
Atom   1Cl   basis set group =>   2
----------------------------------
AUXILIARY/JK BASIS SET INFORMATION
----------------------------------
There are 2 groups of distinct atoms

 Group   1 Type Li  : 10s7p4d2f contracted to 7s5p3d2f pattern {4111111/31111/211/11}
 Group   2 Type Cl  : 16s12p10d4f1g contracted to 13s11p9d4f1g pattern {4111111111111/21111111111/211111111/1111/1}

Atom   0Li   basis set group =>   1
Atom   1Cl   basis set group =>   2


           ************************************************************
           *        Program running with 28 parallel MPI-processes    *
           *              working on a common directory               *
           ************************************************************
------------------------------------------------------------------------------
                           ORCA GTO INTEGRAL CALCULATION
------------------------------------------------------------------------------

                         BASIS SET STATISTICS AND STARTUP INFO

 # of primitive gaussian shells          ...   46
 # of primitive gaussian functions       ...  100
 # of contracted shells                  ...   27
 # of contracted basis functions         ...   73
 Highest angular momentum                ...    3
 Maximum contraction depth               ...    7
 Integral package used                   ... LIBINT
 Integral threshhold            Thresh   ...  1.000e-10
 Primitive cut-off              TCut     ...  1.000e-11


------------------------------ INTEGRAL EVALUATION ----------------------------


 * One electron integrals 
 Pre-screening matrix                    ... done
 Shell pair data                         ... done (   0.000 sec)



           ************************************************************
           *        Program running with 28 parallel MPI-processes    *
           *              working on a common directory               *
           ************************************************************
-------------------------------------------------------------------------------
                                 ORCA SCF
-------------------------------------------------------------------------------

------------
SCF SETTINGS
------------
Hamiltonian:
 Density Functional     Method          .... DFT(GTOs)
 Exchange Functional    Exchange        .... M06
 Correlation Functional Correlation     .... M06
 Gradients option       PostSCFGGA      .... off
 Hybrid DFT is turned on
   Fraction HF Exchange ScalHFX         ....  0.270000
   Scaling of DF-GGA-X  ScalDFX         ....  0.730000
   Scaling of DF-GGA-C  ScalDFC         ....  1.000000
   Scaling of DF-LDA-C  ScalLDAC        ....  1.000000
   Perturbative correction              ....  0.000000
   Density functional embedding theory  .... OFF


General Settings:
 Integral files         IntName         .... LiCl
 Hartree-Fock type      HFTyp           .... RHF
 Total Charge           Charge          ....    0
 Multiplicity           Mult            ....    1
 Number of Electrons    NEL             ....   20
 Basis Dimension        Dim             ....   73
 Nuclear Repulsion      ENuc            ....     13.3559847097 Eh

Convergence Acceleration:
 DIIS                   CNVDIIS         .... on
   Start iteration      DIISMaxIt       ....    12
   Startup error        DIISStart       ....  0.200000
   # of expansion vecs  DIISMaxEq       ....     5
   Bias factor          DIISBfac        ....   1.050
   Max. coefficient     DIISMaxC        ....  10.000
 Newton-Raphson         CNVNR           .... off
 SOSCF                  CNVSOSCF        .... on
   Start iteration      SOSCFMaxIt      ....   150
   Startup grad/error   SOSCFStart      ....  0.003300
 Level Shifting         CNVShift        .... on
   Level shift para.    LevelShift      ....    0.2500
   Turn off err/grad.   ShiftErr        ....    0.0010
 Zerner damping         CNVZerner       .... off
 Static damping         CNVDamp         .... on
   Fraction old density DampFac         ....    0.7000
   Max. Damping (<1)    DampMax         ....    0.9800
   Min. Damping (>=0)   DampMin         ....    0.0000
   Turn off err/grad.   DampErr         ....    0.1000
 Fernandez-Rico         CNVRico         .... off

SCF Procedure:
 Maximum # iterations   MaxIter         ....   125
 SCF integral mode      SCFMode         .... Direct
   Integral package                     .... LIBINT
 Reset frequency        DirectResetFreq ....    20
 Integral Threshold     Thresh          ....  1.000e-10 Eh
 Primitive CutOff       TCut            ....  1.000e-11 Eh

Convergence Tolerance:
 Convergence Check Mode ConvCheckMode   .... Total+1el-Energy
 Convergence forced     ConvForced      .... 0
 Energy Change          TolE            ....  1.000e-06 Eh
 1-El. energy change                    ....  1.000e-03 Eh
 Orbital Gradient       TolG            ....  5.000e-05
 Orbital Rotation angle TolX            ....  5.000e-05
 DIIS Error             TolErr          ....  1.000e-06


Diagonalization of the overlap matrix:
Smallest eigenvalue                        ... 3.984e-03
Time for diagonalization                   ...    0.002 sec
Threshold for overlap eigenvalues          ... 1.000e-08
Number of eigenvalues below threshold      ... 0
Time for construction of square roots      ...    0.028 sec
Total time needed                          ...    0.030 sec

-------------------
DFT GRID GENERATION
-------------------

General Integration Accuracy     IntAcc      ...  4.670
Radial Grid Type                 RadialGrid  ... Gauss-Chebyshev
Angular Grid (max. acc.)         AngularGrid ... Lebedev-302
Angular grid pruning method      GridPruning ... 3 (G Style)
Weight generation scheme         WeightScheme... Becke
Basis function cutoff            BFCut       ...    1.0000e-10
Integration weight cutoff        WCut        ...    1.0000e-14
Grids for H and He will be reduced by one unit

# of grid points (after initial pruning)     ...  12614 (   0.0 sec)
# of grid points (after weights+screening)   ...  12585 (   0.0 sec)
nearest neighbour list constructed           ...    0.0 sec
Grid point re-assignment to atoms done       ...    0.0 sec
Grid point division into batches done        ...    0.1 sec
Reduced shell lists constructed in    0.1 sec

Total number of grid points                  ...    12585
Total number of batches                      ...      198
Average number of points per batch           ...       63
Average number of grid points per atom       ...     6292
Average number of shells per batch           ...     3.89 (14.40%)
Average number of basis functions per batch  ...     8.78 (12.02%)
Average number of large shells per batch     ...     2.56 (65.71%)
Average number of large basis fcns per batch ...     6.11 (69.62%)
Maximum spatial batch extension              ...  43.84, 39.87, 24.07 au
Average spatial batch extension              ...   1.35,  1.20,  0.90 au

Time for grid setup =    1.558 sec

------------------------------
INITIAL GUESS: MODEL POTENTIAL
------------------------------
Loading Hartree-Fock densities                     ... done
Calculating cut-offs                               ... done
Setting up the integral package                    ... done
Initializing the effective Hamiltonian             ... done
Starting the Coulomb interaction                   ... done (   0.0 sec)
Reading the grid                                   ... done
Mapping shells                                     ... done
Starting the XC term evaluation                    ... done (   0.0 sec)
  promolecular density results
     # of electrons  =     20.000059835
     EX              =    -29.120097864
     EC              =     -0.714454631
     EX+EC           =    -29.834552495
Transforming the Hamiltonian                       ... done (   0.1 sec)
Diagonalizing the Hamiltonian                      ... done (   0.0 sec)
Back transforming the eigenvectors                 ... done (   0.0 sec)
Now organizing SCF variables                       ... done
                      ------------------
                      INITIAL GUESS DONE (   2.7 sec)
                      ------------------
--------------
SCF ITERATIONS
--------------
ITER       Energy         Delta-E        Max-DP      RMS-DP      [F,P]     Damp
               ***  Starting incremental Fock matrix formation  ***
  0   -467.7563948624   0.000000000000 0.07491248  0.00207219  0.1346100 0.7000
  1   -467.7744202572  -0.018025394806 0.04407943  0.00149990  0.0786292 0.7000
                               ***Turning on DIIS***
  2   -467.7833066477  -0.008886390490 0.07401035  0.00268489  0.0356012 0.0000
  3   -467.7944602467  -0.011153599010 0.04765622  0.00120609  0.0417412 0.0000
  4   -467.7981410254  -0.003680778625 0.00578371  0.00022255  0.0078955 0.0000
                      *** Initiating the SOSCF procedure ***
                           *** Shutting down DIIS ***
                      *** Re-Reading the Fockian *** 
                      *** Removing any level shift *** 
ITER      Energy       Delta-E        Grad      Rot      Max-DP    RMS-DP
  5   -467.79832074  -0.0001797155  0.000614  0.000614  0.001303  0.000067
               *** Restarting incremental Fock matrix formation ***
  6   -467.79833975  -0.0000190080  0.000341  0.001456  0.001113  0.000053
  7   -467.79834144  -0.0000016865  0.000379  0.000274  0.001292  0.000032
  8   -467.79834314  -0.0000017052  0.000070  0.000085  0.000151  0.000007
                 **** Energy Check signals convergence ****
              ***Rediagonalizing the Fockian in SOSCF/NRSCF***

               *****************************************************
               *                     SUCCESS                       *
               *           SCF CONVERGED AFTER   9 CYCLES          *
               *****************************************************


----------------
TOTAL SCF ENERGY
----------------

Total Energy       :         -467.79834317 Eh          -12729.44007 eV

Components:
Nuclear Repulsion  :           13.35598471 Eh             363.43482 eV
Electronic Energy  :         -481.15432788 Eh          -13092.87489 eV
One Electron Energy:         -673.78579324 Eh          -18334.64355 eV
Two Electron Energy:          192.63146535 Eh            5241.76866 eV

Virial components:
Potential Energy   :         -934.74623772 Eh          -25435.73826 eV
Kinetic Energy     :          466.94789455 Eh           12706.29819 eV
Virial Ratio       :            2.00182129


DFT components:
N(Alpha)           :       10.000026912982 electrons
N(Beta)            :       10.000026912982 electrons
N(Total)           :       20.000053825965 electrons
E(XC)              :      -22.246048757967 Eh       
DFET-embed. en.    :        0.000000000000 Eh       

---------------
SCF CONVERGENCE
---------------

  Last Energy change         ...   -3.2987e-08  Tolerance :   1.0000e-06
  Last MAX-Density change    ...    2.2443e-05  Tolerance :   1.0000e-05
  Last RMS-Density change    ...    1.3290e-06  Tolerance :   1.0000e-06
  Last Orbital Gradient      ...    2.3179e-05  Tolerance :   5.0000e-05
  Last Orbital Rotation      ...    2.2395e-05  Tolerance :   5.0000e-05

             **** THE GBW FILE WAS UPDATED (LiCl.gbw) ****
             **** DENSITY FILE WAS UPDATED (LiCl.scfp) ****
             **** ENERGY FILE WAS UPDATED (LiCl.en.tmp) ****
             **** THE GBW FILE WAS UPDATED (LiCl.gbw) ****
             **** DENSITY FILE WAS UPDATED (LiCl.scfp) ****
----------------
ORBITAL ENERGIES
----------------

  NO   OCC          E(Eh)            E(eV) 
   0   2.0000    -101.611271     -2764.9832 
   1   2.0000      -9.488241      -258.1882 
   2   2.0000      -7.191726      -195.6968 
   3   2.0000      -7.190907      -195.6745 
   4   2.0000      -7.190907      -195.6745 
   5   2.0000      -2.059626       -56.0453 
   6   2.0000      -0.734147       -19.9772 
   7   2.0000      -0.283425        -7.7124 
   8   2.0000      -0.260002        -7.0750 
   9   2.0000      -0.260002        -7.0750 
  10   0.0000      -0.098025        -2.6674 
  11   0.0000      -0.026363        -0.7174 
  12   0.0000      -0.026363        -0.7174 
  13   0.0000      -0.003359        -0.0914 
  14   0.0000       0.018341         0.4991 
  15   0.0000       0.038829         1.0566 
  16   0.0000       0.038829         1.0566 
  17   0.0000       0.048616         1.3229 
  18   0.0000       0.071817         1.9542 
  19   0.0000       0.071817         1.9542 
  20   0.0000       0.144609         3.9350 
  21   0.0000       0.199578         5.4308 
  22   0.0000       0.199586         5.4310 
  23   0.0000       0.205937         5.6038 
  24   0.0000       0.232030         6.3138 
  25   0.0000       0.232030         6.3139 
  26   0.0000       0.244516         6.6536 
  27   0.0000       0.311150         8.4668 
  28   0.0000       0.311151         8.4669 
  29   0.0000       0.350915         9.5489 
  30   0.0000       0.351579         9.5670 
  31   0.0000       0.351580         9.5670 
  32   0.0000       0.498531        13.5657 
  33   0.0000       0.498531        13.5657 
  34   0.0000       0.545134        14.8338 
  35   0.0000       0.591759        16.1026 
  36   0.0000       0.591759        16.1026 
  37   0.0000       0.659693        17.9511 
  38   0.0000       0.659739        17.9524 
  39   0.0000       0.668228        18.1834 
  40   0.0000       0.683108        18.5883 
  41   0.0000       0.683108        18.5883 
  42   0.0000       0.858353        23.3570 
  43   0.0000       1.102602        30.0033 
  44   0.0000       1.440219        39.1904 
  45   0.0000       1.986672        54.0601 
  46   0.0000       1.986792        54.0633 
  47   0.0000       2.006861        54.6095 
  48   0.0000       2.006861        54.6095 
  49   0.0000       2.068727        56.2929 
  50   0.0000       2.175648        59.2024 
  51   0.0000       2.175648        59.2024 
  52   0.0000       2.176484        59.2251 
  53   0.0000       2.177241        59.2457 
  54   0.0000       2.202074        59.9215 
  55   0.0000       2.202074        59.9215 
  56   0.0000       2.407931        65.5231 
  57   0.0000       2.407931        65.5231 
  58   0.0000       2.418327        65.8060 
  59   0.0000       2.498084        67.9763 
  60   0.0000       5.839243       158.8939 
  61   0.0000       5.839243       158.8939 
  62   0.0000       6.118645       166.4968 
  63   0.0000       8.277589       225.2447 
  64   0.0000       8.277646       225.2462 
  65   0.0000       8.295179       225.7233 
  66   0.0000       8.295179       225.7233 
  67   0.0000       8.356348       227.3878 
  68   0.0000      10.950822       297.9870 
  69   0.0000      10.950822       297.9870 
  70   0.0000      11.040333       300.4227 
  71   0.0000      14.132019       384.5518 
  72   0.0000      24.922802       678.1839 

                    ********************************
                    * MULLIKEN POPULATION ANALYSIS *
                    ********************************

-----------------------
MULLIKEN ATOMIC CHARGES
-----------------------
   0 Li:    0.788142
   1 Cl:   -0.788142
Sum of atomic charges:    0.0000000

--------------------------------
MULLIKEN REDUCED ORBITAL CHARGES
--------------------------------
  0 Lis       :     2.019880  s :     2.019880
      pz      :     0.072321  p :     0.163311
      px      :     0.045495
      py      :     0.045495
      dz2     :     0.002898  d :     0.028667
      dxz     :     0.012884
      dyz     :     0.012884
      dx2y2   :     0.000000
      dxy     :     0.000000
  1 Cls       :     5.972494  s :     5.972494
      pz      :     3.927358  p :    11.799999
      px      :     3.936320
      py      :     3.936320
      dz2     :     0.004876  d :     0.015296
      dxz     :     0.005210
      dyz     :     0.005210
      dx2y2   :     0.000000
      dxy     :     0.000000
      f0      :     0.000173  f :     0.000353
      f+1     :     0.000090
      f-1     :     0.000090
      f+2     :    -0.000000
      f-2     :    -0.000000
      f+3     :     0.000000
      f-3     :     0.000000


                     *******************************
                     * LOEWDIN POPULATION ANALYSIS *
                     *******************************

----------------------
LOEWDIN ATOMIC CHARGES
----------------------
   0 Li:    0.262865
   1 Cl:   -0.262865

-------------------------------
LOEWDIN REDUCED ORBITAL CHARGES
-------------------------------
  0 Lis       :     2.075133  s :     2.075133
      pz      :     0.224351  p :     0.387850
      px      :     0.081750
      py      :     0.081749
      dz2     :     0.114696  d :     0.274153
      dxz     :     0.079728
      dyz     :     0.079728
      dx2y2   :     0.000000
      dxy     :     0.000000
  1 Cls       :     5.710840  s :     5.710840
      pz      :     3.848138  p :    11.521815
      px      :     3.836839
      py      :     3.836839
      dz2     :     0.026636  d :     0.029949
      dxz     :     0.001657
      dyz     :     0.001657
      dx2y2   :     0.000000
      dxy     :     0.000000
      f0      :     0.000208  f :     0.000261
      f+1     :     0.000027
      f-1     :     0.000027
      f+2     :     0.000000
      f-2     :     0.000000
      f+3     :     0.000000
      f-3     :     0.000000


                      *****************************
                      * MAYER POPULATION ANALYSIS *
                      *****************************

  NA   - Mulliken gross atomic population
  ZA   - Total nuclear charge
  QA   - Mulliken gross atomic charge
  VA   - Mayer's total valence
  BVA  - Mayer's bonded valence
  FA   - Mayer's free valence

  ATOM       NA         ZA         QA         VA         BVA        FA
  0 Li     2.2119     3.0000     0.7881     0.4037     0.4037     0.0000
  1 Cl    17.7881    17.0000    -0.7881     0.4037     0.4037    -0.0000

  Mayer bond orders larger than 0.100000
B(  0-Li,  1-Cl) :   0.4037 

-------
TIMINGS
-------

Total SCF time: 0 days 0 hours 2 min 32 sec 

Total time                  ....     152.585 sec
Sum of individual times     ....     151.489 sec  ( 99.3%)

Fock matrix formation       ....     147.577 sec  ( 96.7%)
  XC integration            ....     145.226 sec  ( 98.4% of F)
    Basis function eval.    ....       0.011 sec  (  0.0% of XC)
    Density eval.           ....       0.017 sec  (  0.0% of XC)
    XC-Functional eval.     ....       0.046 sec  (  0.0% of XC)
    XC-Potential eval.      ....       0.018 sec  (  0.0% of XC)
Diagonalization             ....       0.704 sec  (  0.5%)
Density matrix formation    ....       0.003 sec  (  0.0%)
Population analysis         ....       0.314 sec  (  0.2%)
Initial guess               ....       1.163 sec  (  0.8%)
Orbital Transformation      ....       0.000 sec  (  0.0%)
Orbital Orthonormalization  ....       0.000 sec  (  0.0%)
DIIS solution               ....       0.021 sec  (  0.0%)
SOSCF solution              ....       0.149 sec  (  0.1%)
Grid generation             ....       1.558 sec  (  1.0%)


-------------------------------------------------------------------------------
                          DFT DISPERSION CORRECTION                            
                                                                               
                              DFTD3 V3.1  Rev 1                                
                              USING zero damping                               
-------------------------------------------------------------------------------
The M06 functional is recognized
Active option DFTDOPT                   ...         3   

molecular C6(AA) [au] = 342.309734 


            DFT-D V3
 parameters
 s6 scaling factor         :     1.0000 
 rs6 scaling factor        :     1.3250 
 s8 scaling factor         :     0.0000 
 rs8 scaling factor        :     1.0000 
 Damping factor alpha6     :    14.0000 
 Damping factor alpha8     :    16.0000 
 ad hoc parameters k1-k3   :    16.0000     1.3333    -4.0000 

 Edisp/kcal,au: -0.000228108106  -0.000000363513 
 E6   /kcal   :  -0.000228108 
 E8   /kcal   :  -0.000000000 
 % E8         :   0.000000000 

-------------------------   ----------------
Dispersion correction           -0.000000364
-------------------------   ----------------


-------------------------   --------------------
FINAL SINGLE POINT ENERGY      -467.798343537040
-------------------------   --------------------


                            ***************************************
                            *     ORCA property calculations      *
                            ***************************************

                                    ---------------------
                                    Active property flags
                                    ---------------------
   (+) Dipole Moment


------------------------------------------------------------------------------
                       ORCA ELECTRIC PROPERTIES CALCULATION
------------------------------------------------------------------------------

Dipole Moment Calculation                       ... on
Quadrupole Moment Calculation                   ... off
Polarizability Calculation                      ... off
GBWName                                         ... LiCl.gbw
Electron density file                           ... LiCl.scfp
The origin for moment calculation is the CENTER OF MASS  = ( 0.000000,  0.000000  3.193323)

-------------
DIPOLE MOMENT
-------------
                                X             Y             Z
Electronic contribution:      0.00000       0.00000      -3.81230
Nuclear contribution   :      0.00000       0.00000       1.04826
                        -----------------------------------------
Total Dipole Moment    :      0.00000       0.00000      -2.76404
                        -----------------------------------------
Magnitude (a.u.)       :      2.76404
Magnitude (Debye)      :      7.02564



--------------------
Rotational spectrum 
--------------------
 
Rotational constants in cm-1:     0.000000     0.711272     0.711272 
Rotational constants in MHz :     0.000000 21323.386404 21323.386404 

 Dipole components along the rotational axes: 
x,y,z [a.u.] :    -2.764045     0.000000     0.000000 
x,y,z [Debye]:    -7.025643     0.000000     0.000000 

 

Timings for individual modules:

Sum of individual times         ...      158.937 sec (=   2.649 min)
GTO integral calculation        ...        5.487 sec (=   0.091 min)   3.5 %
SCF iterations                  ...      153.450 sec (=   2.558 min)  96.5 %
                             ****ORCA TERMINATED NORMALLY****
TOTAL RUN TIME: 0 days 0 hours 4 minutes 38 seconds 162 msec
