
                                 *****************
                                 * O   R   C   A *
                                 *****************

           --- An Ab Initio, DFT and Semiempirical electronic structure package ---

                  #######################################################
                  #                        -***-                        #
                  #          Department of theory and spectroscopy      #
                  #               Directorship: Frank Neese             #
                  #        Max Planck Institute fuer Kohlenforschung    #
                  #                Kaiser Wilhelm Platz 1               #
                  #                 D-45470 Muelheim/Ruhr               #
                  #                      Germany                        #
                  #                                                     #
                  #                  All rights reserved                #
                  #                        -***-                        #
                  #######################################################


                         Program Version 4.2.0 -  RELEASE  -


 With contributions from (in alphabetic order):
   Daniel Aravena         : Magnetic Suceptibility
   Michael Atanasov       : Ab Initio Ligand Field Theory (pilot matlab implementation)
   Alexander A. Auer      : GIAO ZORA, VPT2
   Ute Becker             : Parallelization
   Giovanni Bistoni       : ED, misc. LED, open-shell LED, HFLED
   Martin Brehm           : Molecular dynamics
   Dmytro Bykov           : SCF Hessian
   Vijay G. Chilkuri      : MRCI spin determinant printing, contributions to CSF-ICE
   Dipayan Datta          : RHF DLPNO-CCSD density
   Achintya Kumar Dutta   : EOM-CC, STEOM-CC
   Dmitry Ganyushin       : Spin-Orbit,Spin-Spin,Magnetic field MRCI
   Miquel Garcia          : C-PCM Hessian, Gaussian charge scheme
   Yang Guo               : DLPNO-NEVPT2, CIM, IAO-localization
   Andreas Hansen         : Spin unrestricted coupled pair/coupled cluster methods
   Benjamin Helmich-Paris : CASSCF linear response (MC-RPA)
   Lee Huntington         : MR-EOM, pCC
   Robert Izsak           : Overlap fitted RIJCOSX, COSX-SCS-MP3, EOM
   Christian Kollmar      : KDIIS, OOCD, Brueckner-CCSD(T), CCSD density
   Simone Kossmann        : Meta GGA functionals, TD-DFT gradient, OOMP2, MP2 Hessian
   Martin Krupicka        : AUTO-CI
   Lucas Lang             : DCDCAS
   Dagmar Lenk            : GEPOL surface, SMD
   Dimitrios Liakos       : Extrapolation schemes; Compound Job, initial MDCI parallelization
   Dimitrios Manganas     : Further ROCIS development; embedding schemes
   Dimitrios Pantazis     : SARC Basis sets
   Taras Petrenko         : DFT Hessian,TD-DFT gradient, ASA, ECA, R-Raman, ABS, FL, XAS/XES, NRVS
   Peter Pinski           : DLPNO-MP2, DLPNO-MP2 Gradient
   Christoph Reimann      : Effective Core Potentials
   Marius Retegan         : Local ZFS, SOC
   Christoph Riplinger    : Optimizer, TS searches, QM/MM, DLPNO-CCSD(T), (RO)-DLPNO pert. Triples
   Tobias Risthaus        : Range-separated hybrids, TD-DFT gradient, RPA, STAB
   Michael Roemelt        : Original ROCIS implementation
   Masaaki Saitow         : Open-shell DLPNO-CCSD energy and density
   Barbara Sandhoefer     : DKH picture change effects
   Avijit Sen             : IP-ROCIS
   Kantharuban Sivalingam : CASSCF convergence, NEVPT2, FIC-MRCI
   Bernardo de Souza      : ESD, SOC TD-DFT
   Georgi Stoychev        : AutoAux, RI-MP2 NMR
   Willem Van den Heuvel  : Paramagnetic NMR
   Boris Wezisla          : Elementary symmetry handling
   Frank Wennmohs         : Technical directorship


 We gratefully acknowledge several colleagues who have allowed us to
 interface, adapt or use parts of their codes:
   Stefan Grimme, W. Hujo, H. Kruse,             : VdW corrections, initial TS optimization,
                  C. Bannwarth                     DFT functionals, gCP, sTDA/sTD-DF
   Ed Valeev, F. Pavosevic, A. Kumar             : LibInt (2-el integral package), F12 methods
   Garnet Chan, S. Sharma, J. Yang, R. Olivares  : DMRG
   Ulf Ekstrom                                   : XCFun DFT Library
   Mihaly Kallay                                 : mrcc  (arbitrary order and MRCC methods)
   Andreas Klamt, Michael Diedenhofen            : otool_cosmo (COSMO solvation model)
   Jiri Pittner, Ondrej Demel                    : Mk-CCSD
   Frank Weinhold                                : gennbo (NPA and NBO analysis)
   Christopher J. Cramer and Donald G. Truhlar   : smd solvation model
   Lars Goerigk                                  : TD-DFT with DH, B97 family of functionals
   V. Asgeirsson, H. Jonsson                     : NEB implementation
   FAccTs GmbH                                   : IRC, NEB, NEB-TS, Multilevel, MM, QM/MM, CI optimization
   S Lehtola, MJT Oliveira, MAL Marques          : LibXC Library


 Your calculation uses the libint2 library for the computation of 2-el integrals
 For citations please refer to: http://libint.valeyev.net

 Your ORCA version has been built with support for libXC version: 4.2.3
 For citations please refer to: https://tddft.org/programs/libxc/

 This ORCA versions uses:
   CBLAS   interface :  Fast vector & matrix operations
   LAPACKE interface :  Fast linear algebra routines
   SCALAPACK package :  Parallel linear algebra routines


Your calculation utilizes the atom-pairwise dispersion correction
with the zero-damping scheme (D30)
Cite in your paper:
S.Grimme, J.Antony, S.Ehrlich and H.Krieg, J.Chem.Phys., 132, (2010), 154104 
   

XCFun DFT library Copyright 2009-2010 Ulf Ekstrom and contributors.
See http://admol.org/xcfun for more information. This is free soft-
ware; see the source code for copying conditions. There is ABSOLUTELY
NO WARRANTY; not even for MERCHANTABILITY or FITNESS FOR A PARTICULAR
PURPOSE. For details see the documentation. Scientific users of this 
library should cite U. Ekstrom, L. Visscher, R. Bast, A. J. Thorvald-
sen and K. Ruud; J.Chem.Theor.Comp. 2010, DOI: 10.1021/ct100117s
XCFun Version 0.99 
----- Orbital basis set information -----
Your calculation utilizes the basis: def2-TZVPPD
   F. Weigend and R. Ahlrichs, Phys. Chem. Chem. Phys. 7, 3297 (2005).
   D. Rappoport and F. Furche, J. Chem. Phys. 133 134105 (2010).

----- AuxJK basis set information -----
Your calculation utilizes the auxiliary basis: def2/JK
   H-Ba, Hf-Rn: F. Weigend, J. Comput. Chem. 29, 167 (2008).

================================================================================
                                        WARNINGS
                       Please study these warnings very carefully!
================================================================================


WARNING: your system is open-shell and RHF/RKS was chosen
  ===> : WILL SWITCH to UHF/UKS


WARNING: Minnesota functionals are quite sensitive to the integration grid.
         see SE Wheeler, KN Houk, JCTC 2010, 6, 395,
             N Mardirossian, M Head-Gordon, JCTC 2016, 12, 4303.
         Grid6 seems to be a minimum grid for reliable results with these functionals!
  ===> : Please increase the integration grid!


INFO   : the flag for use of LIBINT has been found!

================================================================================
                                       INPUT FILE
================================================================================
NAME = V+.in
|  1> #
|  2> # V+ M06-D3/Def2-TZVPPD
|  3> #
|  4> ! m06 d3zero def2-tzvppd def2/jk grid4 nofinalgrid
|  5> 
|  6> *xyz 1 5
|  7> V          0.00000        0.00000        0.00000
|  8> *
|  9> 
| 10> %maxcore 5000
| 11> 
| 12> %pal
| 13> nprocs = 28
| 14> end
| 15> 
| 16> 
| 17>                          ****END OF INPUT****
================================================================================

                       ****************************
                       * Single Point Calculation *
                       ****************************

---------------------------------
CARTESIAN COORDINATES (ANGSTROEM)
---------------------------------
  V      0.000000    0.000000    0.000000

----------------------------
CARTESIAN COORDINATES (A.U.)
----------------------------
  NO LB      ZA    FRAG     MASS         X           Y           Z
   0 V    23.0000    0    50.940    0.000000    0.000000    0.000000

--------------------------------
INTERNAL COORDINATES (ANGSTROEM)
--------------------------------
 V      0   0   0     0.000000000000     0.00000000     0.00000000

---------------------------
INTERNAL COORDINATES (A.U.)
---------------------------
 V      0   0   0     0.000000000000     0.00000000     0.00000000

---------------------
BASIS SET INFORMATION
---------------------
There are 1 groups of distinct atoms

 Group   1 Type V   : 17s13p7d2f1g contracted to 6s6p4d2f1g pattern {842111/631111/4111/11/1}

Atom   0V    basis set group =>   1
----------------------------------
AUXILIARY/JK BASIS SET INFORMATION
----------------------------------
There are 1 groups of distinct atoms

 Group   1 Type V   : 19s14p12d10f7g3h1i contracted to 16s13p11d9f5g3h1i pattern {4111111111111111/2111111111111/21111111111/211111111/31111/111/1}

Atom   0V    basis set group =>   1


           ************************************************************
           *        Program running with 28 parallel MPI-processes    *
           *              working on a common directory               *
           ************************************************************
------------------------------------------------------------------------------
                           ORCA GTO INTEGRAL CALCULATION
------------------------------------------------------------------------------

                         BASIS SET STATISTICS AND STARTUP INFO

 # of primitive gaussian shells          ...   40
 # of primitive gaussian functions       ...  114
 # of contracted shells                  ...   19
 # of contracted basis functions         ...   67
 Highest angular momentum                ...    4
 Maximum contraction depth               ...    8
 Integral package used                   ... LIBINT
 Integral threshhold            Thresh   ...  1.000e-10
 Primitive cut-off              TCut     ...  1.000e-11


------------------------------ INTEGRAL EVALUATION ----------------------------


 * One electron integrals 
 Pre-screening matrix                    ... done
 Shell pair data                         ... done (   0.000 sec)



           ************************************************************
           *        Program running with 28 parallel MPI-processes    *
           *              working on a common directory               *
           ************************************************************
-------------------------------------------------------------------------------
                                 ORCA SCF
-------------------------------------------------------------------------------

------------
SCF SETTINGS
------------
Hamiltonian:
 Density Functional     Method          .... DFT(GTOs)
 Exchange Functional    Exchange        .... M06
 Correlation Functional Correlation     .... M06
 Gradients option       PostSCFGGA      .... off
 Hybrid DFT is turned on
   Fraction HF Exchange ScalHFX         ....  0.270000
   Scaling of DF-GGA-X  ScalDFX         ....  0.730000
   Scaling of DF-GGA-C  ScalDFC         ....  1.000000
   Scaling of DF-LDA-C  ScalLDAC        ....  1.000000
   Perturbative correction              ....  0.000000
   Density functional embedding theory  .... OFF


General Settings:
 Integral files         IntName         .... V+
 Hartree-Fock type      HFTyp           .... UHF
 Total Charge           Charge          ....    1
 Multiplicity           Mult            ....    5
 Number of Electrons    NEL             ....   22
 Basis Dimension        Dim             ....   67
 Nuclear Repulsion      ENuc            ....      0.0000000000 Eh

Convergence Acceleration:
 DIIS                   CNVDIIS         .... on
   Start iteration      DIISMaxIt       ....    12
   Startup error        DIISStart       ....  0.200000
   # of expansion vecs  DIISMaxEq       ....     5
   Bias factor          DIISBfac        ....   1.050
   Max. coefficient     DIISMaxC        ....  10.000
 Newton-Raphson         CNVNR           .... off
 SOSCF                  CNVSOSCF        .... off
 Level Shifting         CNVShift        .... on
   Level shift para.    LevelShift      ....    0.2500
   Turn off err/grad.   ShiftErr        ....    0.0010
 Zerner damping         CNVZerner       .... off
 Static damping         CNVDamp         .... on
   Fraction old density DampFac         ....    0.7000
   Max. Damping (<1)    DampMax         ....    0.9800
   Min. Damping (>=0)   DampMin         ....    0.0000
   Turn off err/grad.   DampErr         ....    0.1000
 Fernandez-Rico         CNVRico         .... off

SCF Procedure:
 Maximum # iterations   MaxIter         ....   125
 SCF integral mode      SCFMode         .... Direct
   Integral package                     .... LIBINT
 Reset frequency        DirectResetFreq ....    20
 Integral Threshold     Thresh          ....  1.000e-10 Eh
 Primitive CutOff       TCut            ....  1.000e-11 Eh

Convergence Tolerance:
 Convergence Check Mode ConvCheckMode   .... Total+1el-Energy
 Convergence forced     ConvForced      .... 0
 Energy Change          TolE            ....  1.000e-06 Eh
 1-El. energy change                    ....  1.000e-03 Eh
 DIIS Error             TolErr          ....  1.000e-06


Diagonalization of the overlap matrix:
Smallest eigenvalue                        ... 3.674e-02
Time for diagonalization                   ...    0.002 sec
Threshold for overlap eigenvalues          ... 1.000e-08
Number of eigenvalues below threshold      ... 0
Time for construction of square roots      ...    0.152 sec
Total time needed                          ...    0.154 sec

-------------------
DFT GRID GENERATION
-------------------

General Integration Accuracy     IntAcc      ...  4.670
Radial Grid Type                 RadialGrid  ... Gauss-Chebyshev
Angular Grid (max. acc.)         AngularGrid ... Lebedev-302
Angular grid pruning method      GridPruning ... 3 (G Style)
Weight generation scheme         WeightScheme... Becke
Basis function cutoff            BFCut       ...    1.0000e-10
Integration weight cutoff        WCut        ...    1.0000e-14
Grids for H and He will be reduced by one unit

# of grid points (after initial pruning)     ...   9664 (   0.0 sec)
# of grid points (after weights+screening)   ...   9664 (   0.0 sec)
Grid point division into batches done        ...    0.1 sec
Reduced shell lists constructed in    0.1 sec

Total number of grid points                  ...     9664
Total number of batches                      ...      152
Average number of points per batch           ...       63
Average number of grid points per atom       ...     9664
Average number of shells per batch           ...     3.43 (18.05%)
Average number of basis functions per batch  ...    10.29 (15.35%)
Average number of large shells per batch     ...     3.43 (100.00%)
Average number of large basis fcns per batch ...    10.29 (100.00%)
Maximum spatial batch extension              ...  22.27, 22.27, 22.27 au
Average spatial batch extension              ...   0.77,  0.76,  0.74 au

Time for grid setup =    3.345 sec

------------------------------
INITIAL GUESS: MODEL POTENTIAL
------------------------------
Loading Hartree-Fock densities                     ... done
Calculating cut-offs                               ... done
Setting up the integral package                    ... done
Initializing the effective Hamiltonian             ... done
Starting the Coulomb interaction                   ... done (   0.0 sec)
Reading the grid                                   ... done
Mapping shells                                     ... done
Starting the XC term evaluation                    ... done (   0.0 sec)
  promolecular density results
     # of electrons  =     23.000003052
     EX              =    -43.918520832
     EC              =     -0.944824995
     EX+EC           =    -44.863345827
Transforming the Hamiltonian                       ... done (   0.0 sec)
Diagonalizing the Hamiltonian                      ... done (   0.0 sec)
Back transforming the eigenvectors                 ... done (   0.0 sec)
Now organizing SCF variables                       ... done
                      ------------------
                      INITIAL GUESS DONE (   3.8 sec)
                      ------------------
--------------
SCF ITERATIONS
--------------
ITER       Energy         Delta-E        Max-DP      RMS-DP      [F,P]     Damp
               ***  Starting incremental Fock matrix formation  ***
  0   -943.5829141915   0.000000000000 0.01875528  0.00064598  0.1007351 0.7000
  1   -943.5897006210  -0.006786429490 0.01078792  0.00036489  0.0524799 0.7000
                               ***Turning on DIIS***
  2   -943.5927024004  -0.003001779407 0.01745190  0.00060311  0.0248384 0.0000
  3   -943.5985373164  -0.005834915992 0.00730964  0.00029535  0.0149584 0.0000
  4   -943.5992270843  -0.000689767912 0.00416056  0.00011359  0.0062741 0.0000
  5   -943.5993611430  -0.000134058727 0.00430854  0.00008351  0.0019606 0.0000
  6   -943.5994349258  -0.000073782770 0.00429081  0.00008257  0.0018707 0.0000
  7   -943.5995046377  -0.000069711876 0.00531735  0.00010214  0.0018094 0.0000
  8   -943.5995859691  -0.000081331396 0.00540942  0.00010502  0.0017684 0.0000
  9   -943.5996662275  -0.000080258422 0.00711648  0.00013817  0.0017341 0.0000
 10   -943.5997625908  -0.000096363260 0.00189095  0.00004711  0.0017164 0.0000
 11   -943.5997997119  -0.000037121092 0.01498843  0.00029191  0.0015481 0.0000
 12   -943.5999524917  -0.000152779865 0.00242523  0.00006840  0.0023685 0.0000
 13   -943.6000034358  -0.000050944101 0.01367223  0.00027703  0.0014078 0.0000
 14   -943.6001119537  -0.000108517885 0.00291477  0.00008071  0.0026582 0.0000
 15   -943.6001600046  -0.000048050886 0.01034529  0.00022263  0.0012266 0.0000
 16   -943.6002189767  -0.000058972081 0.00230623  0.00006134  0.0024882 0.0000
 17   -943.6002474793  -0.000028502582 0.01660463  0.00041730  0.0009213 0.0000
 18   -943.6002971528  -0.000049673527 0.00408512  0.00009377  0.0005806 0.0000
 19   -943.6002987670  -0.000001614207 0.00103156  0.00002878  0.0000883 0.0000
               *** Restarting incremental Fock matrix formation ***
                                   *** Resetting DIIS ***
 20   -943.6002993878  -0.000000620796 0.00016304  0.00000503  0.0000497 0.0000
 21   -943.6002994815  -0.000000093695 0.00005026  0.00000159  0.0000889 0.0000
                 **** Energy Check signals convergence ****

               *****************************************************
               *                     SUCCESS                       *
               *           SCF CONVERGED AFTER  22 CYCLES          *
               *****************************************************


----------------
TOTAL SCF ENERGY
----------------

Total Energy       :         -943.60029953 Eh          -25676.66953 eV

Components:
Nuclear Repulsion  :            0.00000000 Eh               0.00000 eV
Electronic Energy  :         -943.60029953 Eh          -25676.66953 eV
One Electron Energy:        -1291.92106402 Eh          -35154.95940 eV
Two Electron Energy:          348.32076449 Eh            9478.28987 eV

Virial components:
Potential Energy   :        -1885.78543796 Eh          -51314.83056 eV
Kinetic Energy     :          942.18513843 Eh           25638.16104 eV
Virial Ratio       :            2.00150200


DFT components:
N(Alpha)           :       12.999999669657 electrons
N(Beta)            :        8.999999671169 electrons
N(Total)           :       21.999999340826 electrons
E(XC)              :      -33.270526785422 Eh       
DFET-embed. en.    :        0.000000000000 Eh       

---------------
SCF CONVERGENCE
---------------

  Last Energy change         ...   -4.5570e-08  Tolerance :   1.0000e-06
  Last MAX-Density change    ...    1.4773e-04  Tolerance :   1.0000e-05
  Last RMS-Density change    ...    4.5203e-06  Tolerance :   1.0000e-06
  Last DIIS Error            ...    4.9063e-05  Tolerance :   1.0000e-06

             **** THE GBW FILE WAS UPDATED (V+.gbw) ****
             **** DENSITY FILE WAS UPDATED (V+.scfp) ****
             **** ENERGY FILE WAS UPDATED (V+.en.tmp) ****
----------------------
UHF SPIN CONTAMINATION
----------------------

Warning: in a DFT calculation there is little theoretical justification to 
         calculate <S**2> as in Hartree-Fock theory. We will do it anyways
         but you should keep in mind that the values have only limited relevance

Expectation value of <S**2>     :     6.000369
Ideal value S*(S+1) for S=2.0   :     6.000000
Deviation                       :     0.000369

             **** THE GBW FILE WAS UPDATED (V+.gbw) ****
             **** DENSITY FILE WAS UPDATED (V+.scfp) ****
----------------
ORBITAL ENERGIES
----------------
                 SPIN UP ORBITALS
  NO   OCC          E(Eh)            E(eV) 
   0   1.0000    -197.261091     -5367.7472 
   1   1.0000     -22.553160      -613.7027 
   2   1.0000     -18.993150      -516.8299 
   3   1.0000     -18.981401      -516.5102 
   4   1.0000     -18.978522      -516.4318 
   5   1.0000      -2.868269       -78.0496 
   6   1.0000      -1.893586       -51.5271 
   7   1.0000      -1.891849       -51.4798 
   8   1.0000      -1.890675       -51.4479 
   9   1.0000      -0.426066       -11.5938 
  10   1.0000      -0.425039       -11.5659 
  11   1.0000      -0.417418       -11.3585 
  12   1.0000      -0.411330       -11.1929 
  13   0.0000      -0.302913        -8.2427 
  14   0.0000      -0.268417        -7.3040 
  15   0.0000      -0.212637        -5.7862 
  16   0.0000      -0.204971        -5.5775 
  17   0.0000      -0.204700        -5.5702 
  18   0.0000      -0.116893        -3.1808 
  19   0.0000      -0.092357        -2.5132 
  20   0.0000      -0.086949        -2.3660 
  21   0.0000      -0.085758        -2.3336 
  22   0.0000      -0.079363        -2.1596 
  23   0.0000      -0.079120        -2.1530 
  24   0.0000      -0.077888        -2.1195 
  25   0.0000      -0.077045        -2.0965 
  26   0.0000      -0.068809        -1.8724 
  27   0.0000       0.172012         4.6807 
  28   0.0000       0.175379         4.7723 
  29   0.0000       0.177817         4.8387 
  30   0.0000       0.400100        10.8873 
  31   0.0000       0.412760        11.2318 
  32   0.0000       0.416884        11.3440 
  33   0.0000       0.418271        11.3817 
  34   0.0000       0.455246        12.3879 
  35   0.0000       0.894605        24.3434 
  36   0.0000       0.899050        24.4644 
  37   0.0000       0.907231        24.6870 
  38   0.0000       0.909989        24.7621 
  39   0.0000       0.921942        25.0873 
  40   0.0000       0.938805        25.5462 
  41   0.0000       0.952079        25.9074 
  42   0.0000       1.511095        41.1190 
  43   0.0000       1.526427        41.5362 
  44   0.0000       1.533836        41.7378 
  45   0.0000       1.691453        46.0268 
  46   0.0000       2.225469        60.5581 
  47   0.0000       2.231226        60.7148 
  48   0.0000       2.232244        60.7424 
  49   0.0000       2.244622        61.0793 
  50   0.0000       2.245004        61.0897 
  51   0.0000       3.892037       105.9077 
  52   0.0000       3.894376       105.9714 
  53   0.0000       3.894981       105.9878 
  54   0.0000       3.896684       106.0342 
  55   0.0000       3.896796       106.0372 
  56   0.0000       3.897500       106.0564 
  57   0.0000       3.911786       106.4451 
  58   0.0000       3.912652       106.4687 
  59   0.0000       3.923775       106.7713 
  60   0.0000       4.367542       118.8469 
  61   0.0000       4.370456       118.9262 
  62   0.0000       4.372163       118.9726 
  63   0.0000       4.374015       119.0230 
  64   0.0000       4.387632       119.3935 
  65   0.0000       4.388803       119.4254 
  66   0.0000       4.397274       119.6559 

                 SPIN DOWN ORBITALS
  NO   OCC          E(Eh)            E(eV) 
   0   1.0000    -197.260859     -5367.7409 
   1   1.0000     -22.516103      -612.6943 
   2   1.0000     -18.961881      -515.9790 
   3   1.0000     -18.944590      -515.5085 
   4   1.0000     -18.939345      -515.3658 
   5   1.0000      -2.736244       -74.4570 
   6   1.0000      -1.771956       -48.2174 
   7   1.0000      -1.737361       -47.2760 
   8   1.0000      -1.722198       -46.8634 
   9   0.0000      -0.247060        -6.7228 
  10   0.0000      -0.196312        -5.3419 
  11   0.0000      -0.182253        -4.9594 
  12   0.0000      -0.170187        -4.6310 
  13   0.0000      -0.157138        -4.2759 
  14   0.0000      -0.157002        -4.2722 
  15   0.0000      -0.155072        -4.2197 
  16   0.0000      -0.152140        -4.1399 
  17   0.0000      -0.138822        -3.7775 
  18   0.0000      -0.034460        -0.9377 
  19   0.0000      -0.031015        -0.8440 
  20   0.0000      -0.023089        -0.6283 
  21   0.0000      -0.022481        -0.6117 
  22   0.0000      -0.007170        -0.1951 
  23   0.0000      -0.002452        -0.0667 
  24   0.0000       0.003055         0.0831 
  25   0.0000       0.006112         0.1663 
  26   0.0000       0.006933         0.1887 
  27   0.0000       0.270789         7.3685 
  28   0.0000       0.279662         7.6100 
  29   0.0000       0.299002         8.1363 
  30   0.0000       0.504376        13.7248 
  31   0.0000       0.533456        14.5161 
  32   0.0000       0.552355        15.0303 
  33   0.0000       0.556854        15.1528 
  34   0.0000       0.558663        15.2020 
  35   0.0000       0.966880        26.3101 
  36   0.0000       0.970619        26.4119 
  37   0.0000       0.989215        26.9179 
  38   0.0000       1.002634        27.2831 
  39   0.0000       1.007467        27.4146 
  40   0.0000       1.009734        27.4762 
  41   0.0000       1.011109        27.5137 
  42   0.0000       1.541898        41.9572 
  43   0.0000       1.562329        42.5131 
  44   0.0000       1.585339        43.1393 
  45   0.0000       1.745453        47.4962 
  46   0.0000       2.252922        61.3051 
  47   0.0000       2.273210        61.8572 
  48   0.0000       2.283869        62.1472 
  49   0.0000       2.296176        62.4821 
  50   0.0000       2.296798        62.4991 
  51   0.0000       3.874071       105.4188 
  52   0.0000       3.874422       105.4284 
  53   0.0000       3.886747       105.7638 
  54   0.0000       3.894118       105.9643 
  55   0.0000       3.897357       106.0525 
  56   0.0000       3.910727       106.4163 
  57   0.0000       3.910948       106.4223 
  58   0.0000       3.913596       106.4944 
  59   0.0000       3.913656       106.4960 
  60   0.0000       4.494685       122.3066 
  61   0.0000       4.502162       122.5101 
  62   0.0000       4.514396       122.8430 
  63   0.0000       4.537889       123.4823 
  64   0.0000       4.538402       123.4962 
  65   0.0000       4.552167       123.8708 
  66   0.0000       4.552205       123.8718 

                    ********************************
                    * MULLIKEN POPULATION ANALYSIS *
                    ********************************

--------------------------------------------
MULLIKEN ATOMIC CHARGES AND SPIN POPULATIONS
--------------------------------------------
   0 V :    1.000000    4.000000
Sum of atomic charges         :    1.0000000
Sum of atomic spin populations:    4.0000000

-----------------------------------------------------
MULLIKEN REDUCED ORBITAL CHARGES AND SPIN POPULATIONS
-----------------------------------------------------
CHARGE
  0 V s       :     6.055004  s :     6.055004
      pz      :     3.999915  p :    11.999841
      px      :     3.999967
      py      :     3.999959
      dz2     :     0.137400  d :     3.944972
      dxz     :     0.957201
      dyz     :     0.926374
      dx2y2   :     0.928364
      dxy     :     0.995632
      f0      :     0.000071  f :     0.000159
      f+1     :     0.000027
      f-1     :     0.000039
      f+2     :     0.000007
      f-2     :     0.000003
      f+3     :     0.000006
      f-3     :     0.000006
      g0      :     0.000003  g :     0.000024
      g+1     :     0.000004
      g-1     :     0.000005
      g+2     :     0.000005
      g-2     :     0.000004
      g+3     :     0.000001
      g-3     :     0.000001
      g+4     :     0.000001
      g-4     :     0.000001

SPIN
  0 V s       :     0.055335  s :     0.055335
      pz      :     0.000020  p :     0.000032
      px      :    -0.000001
      py      :     0.000013
      dz2     :     0.137137  d :     3.944643
      dxz     :     0.957196
      dyz     :     0.926341
      dx2y2   :     0.928342
      dxy     :     0.995628
      f0      :    -0.000015  f :    -0.000032
      f+1     :     0.000005
      f-1     :    -0.000013
      f+2     :    -0.000001
      f-2     :    -0.000001
      f+3     :    -0.000004
      f-3     :    -0.000003
      g0      :     0.000002  g :     0.000022
      g+1     :     0.000004
      g-1     :     0.000004
      g+2     :     0.000005
      g-2     :     0.000004
      g+3     :     0.000001
      g-3     :     0.000001
      g+4     :     0.000001
      g-4     :     0.000001


                     *******************************
                     * LOEWDIN POPULATION ANALYSIS *
                     *******************************

-------------------------------------------
LOEWDIN ATOMIC CHARGES AND SPIN POPULATIONS
-------------------------------------------
   0 V :    1.000000    4.000000

----------------------------------------------------
LOEWDIN REDUCED ORBITAL CHARGES AND SPIN POPULATIONS
----------------------------------------------------
CHARGE
  0 V s       :     6.055004  s :     6.055004
      pz      :     3.999915  p :    11.999841
      px      :     3.999967
      py      :     3.999959
      dz2     :     0.137400  d :     3.944972
      dxz     :     0.957201
      dyz     :     0.926374
      dx2y2   :     0.928364
      dxy     :     0.995632
      f0      :     0.000071  f :     0.000159
      f+1     :     0.000027
      f-1     :     0.000039
      f+2     :     0.000007
      f-2     :     0.000003
      f+3     :     0.000006
      f-3     :     0.000006
      g0      :     0.000003  g :     0.000024
      g+1     :     0.000004
      g-1     :     0.000005
      g+2     :     0.000005
      g-2     :     0.000004
      g+3     :     0.000001
      g-3     :     0.000001
      g+4     :     0.000001
      g-4     :     0.000001

SPIN
  0 V s       :     0.055335  s :     0.055335
      pz      :     0.000020  p :     0.000032
      px      :    -0.000001
      py      :     0.000013
      dz2     :     0.137137  d :     3.944643
      dxz     :     0.957196
      dyz     :     0.926341
      dx2y2   :     0.928342
      dxy     :     0.995628
      f0      :    -0.000015  f :    -0.000032
      f+1     :     0.000005
      f-1     :    -0.000013
      f+2     :    -0.000001
      f-2     :    -0.000001
      f+3     :    -0.000004
      f-3     :    -0.000003
      g0      :     0.000002  g :     0.000022
      g+1     :     0.000004
      g-1     :     0.000004
      g+2     :     0.000005
      g-2     :     0.000004
      g+3     :     0.000001
      g-3     :     0.000001
      g+4     :     0.000001
      g-4     :     0.000001


                      *****************************
                      * MAYER POPULATION ANALYSIS *
                      *****************************

  NA   - Mulliken gross atomic population
  ZA   - Total nuclear charge
  QA   - Mulliken gross atomic charge
  VA   - Mayer's total valence
  BVA  - Mayer's bonded valence
  FA   - Mayer's free valence

  ATOM       NA         ZA         QA         VA         BVA        FA
  0 V     22.0000    23.0000     1.0000     4.0007     0.0000     4.0007

  Mayer bond orders larger than 0.100000


-------
TIMINGS
-------

Total SCF time: 0 days 0 hours 4 min 14 sec 

Total time                  ....     254.773 sec
Sum of individual times     ....     253.461 sec  ( 99.5%)

Fock matrix formation       ....     245.244 sec  ( 96.3%)
  XC integration            ....     238.468 sec  ( 97.2% of F)
    Basis function eval.    ....       0.017 sec  (  0.0% of XC)
    Density eval.           ....       0.045 sec  (  0.0% of XC)
    XC-Functional eval.     ....       0.081 sec  (  0.0% of XC)
    XC-Potential eval.      ....       0.069 sec  (  0.0% of XC)
Diagonalization             ....       3.793 sec  (  1.5%)
Density matrix formation    ....       0.009 sec  (  0.0%)
Population analysis         ....       0.407 sec  (  0.2%)
Initial guess               ....       0.415 sec  (  0.2%)
Orbital Transformation      ....       0.000 sec  (  0.0%)
Orbital Orthonormalization  ....       0.000 sec  (  0.0%)
DIIS solution               ....       0.248 sec  (  0.1%)
Grid generation             ....       3.345 sec  (  1.3%)


-------------------------------------------------------------------------------
                          DFT DISPERSION CORRECTION                            
                                                                               
                              DFTD3 V3.1  Rev 1                                
                              USING zero damping                               
-------------------------------------------------------------------------------
The M06 functional is recognized
Active option DFTDOPT                   ...         3   

molecular C6(AA) [au] = 1116.097907 


            DFT-D V3
 parameters
 s6 scaling factor         :     1.0000 
 rs6 scaling factor        :     1.3250 
 s8 scaling factor         :     0.0000 
 rs8 scaling factor        :     1.0000 
 Damping factor alpha6     :    14.0000 
 Damping factor alpha8     :    16.0000 
 ad hoc parameters k1-k3   :    16.0000     1.3333    -4.0000 

 Edisp/kcal,au: -0.000000000000  -0.000000000000 
 E6   /kcal   :  -0.000000000 
 E8   /kcal   :  -0.000000000 
 % E8         :          -nan 

-------------------------   ----------------
Dispersion correction            0.000000000
-------------------------   ----------------


-------------------------   --------------------
FINAL SINGLE POINT ENERGY      -943.600299527046
-------------------------   --------------------


                            ***************************************
                            *     ORCA property calculations      *
                            ***************************************

                                    ---------------------
                                    Active property flags
                                    ---------------------
   (+) Dipole Moment


------------------------------------------------------------------------------
                       ORCA ELECTRIC PROPERTIES CALCULATION
------------------------------------------------------------------------------

Dipole Moment Calculation                       ... on
Quadrupole Moment Calculation                   ... off
Polarizability Calculation                      ... off
GBWName                                         ... V+.gbw
Electron density file                           ... V+.scfp
The origin for moment calculation is the CENTER OF MASS  = ( 0.000000,  0.000000  0.000000)

-------------
DIPOLE MOMENT
-------------
                                X             Y             Z
Electronic contribution:     -0.00000      -0.00000       0.00000
Nuclear contribution   :      0.00000       0.00000       0.00000
                        -----------------------------------------
Total Dipole Moment    :     -0.00000      -0.00000       0.00000
                        -----------------------------------------
Magnitude (a.u.)       :      0.00000
Magnitude (Debye)      :      0.00000



--------------------
Rotational spectrum 
--------------------
 
Rotational constants in cm-1:     0.000000     0.000000     0.000000 
Rotational constants in MHz :     0.000000     0.000000     0.000000 

 Dipole components along the rotational axes: 
x,y,z [a.u.] :    -0.000000    -0.000000     0.000000 
x,y,z [Debye]:    -0.000000    -0.000000     0.000000 

 

Timings for individual modules:

Sum of individual times         ...      256.476 sec (=   4.275 min)
GTO integral calculation        ...        1.024 sec (=   0.017 min)   0.4 %
SCF iterations                  ...      255.452 sec (=   4.258 min)  99.6 %
                             ****ORCA TERMINATED NORMALLY****
TOTAL RUN TIME: 0 days 0 hours 4 minutes 49 seconds 739 msec
