
    -----------------------------------------------------------------------
          Psi4: An Open-Source Ab Initio Electronic Structure Package
                               Psi4 1.4.1 release

                         Git: Rev {HEAD} cd00f19 


    D. G. A. Smith, L. A. Burns, A. C. Simmonett, R. M. Parrish,
    M. C. Schieber, R. Galvelis, P. Kraus, H. Kruse, R. Di Remigio,
    A. Alenaizan, A. M. James, S. Lehtola, J. P. Misiewicz, M. Scheurer,
    R. A. Shaw, J. B. Schriber, Y. Xie, Z. L. Glick, D. A. Sirianni,
    J. S. O'Brien, J. M. Waldrop, A. Kumar, E. G. Hohenstein,
    B. P. Pritchard, B. R. Brooks, H. F. Schaefer III, A. Yu. Sokolov,
    K. Patkowski, A. E. DePrince III, U. Bozkaya, R. A. King,
    F. A. Evangelista, J. M. Turney, T. D. Crawford, C. D. Sherrill,
    J. Chem. Phys. 152(18) 184108 (2020). https://doi.org/10.1063/5.0006002

                            Additional Code Authors
    E. T. Seidl, C. L. Janssen, E. F. Valeev, M. L. Leininger,
    J. F. Gonthier, R. M. Richard, H. R. McAlexander, M. Saitow, X. Wang,
    P. Verma, and M. H. Lechner

             Previous Authors, Complete List of Code Contributors,
                       and Citations for Specific Modules
    https://github.com/psi4/psi4/blob/master/codemeta.json
    https://github.com/psi4/psi4/graphs/contributors
    http://psicode.org/psi4manual/master/introduction.html#citing-psifour

    -----------------------------------------------------------------------


    Psi4 started on: Sunday, 07 November 2021 05:07AM

    Process ID: 18841
    Host:       compute428.bc4.acrc.priv
    PSIDATADIR: /mnt/storage/home/zw18965/.conda/envs/p4env/share/psi4
    Memory:     500.0 MiB
    Threads:    28
    
  ==> Input File <==

--------------------------------------------------------------------------
memory 120 GB

molecule {
0 2
Ag         0.00000        0.00000        0.00000
 }

set reference uks
set dynamic_level 1
set basis Def2-TZVPPD

energy("M11-D3BJ")
--------------------------------------------------------------------------

  Memory set to 111.759 GiB by Python driver.

Scratch directory: /tmp/

*** tstart() called on compute428.bc4.acrc.priv
*** at Sun Nov  7 05:07:21 2021

   => Loading Basis Set <=

    Name: DEF2-TZVPPD
    Role: ORBITAL
    Keyword: BASIS
    atoms 1 entry AG         line  2174 (ECP: line  3646) file /mnt/storage/home/zw18965/.conda/envs/p4env/share/psi4/basis/def2-tzvppd.gbs 

    !!!  WARNING: ECP capability is in beta. Please check occupations closely.  !!!

   => M11-D3(BJ): Empirical Dispersion <=

    Grimme's -D3 (BJ-damping) Dispersion Correction
    Grimme S.; Ehrlich S.; Goerigk L. (2011), J. Comput. Chem., 32: 1456
    Parametrisation from:    L. Goerigk, J. Phys. Chem. Lett. 6, 3891-3896, 2015

        s6 =       1.000000
        s8 =       2.811200
        a1 =       0.000000
        a2 =      10.138900


         ---------------------------------------------------------
                                   SCF
               by Justin Turney, Rob Parrish, Andy Simmonett
                          and Daniel G. A. Smith
                              UKS Reference
                       28 Threads, 114440 MiB Core
         ---------------------------------------------------------

  ==> Geometry <==

    Molecular point group: d2h
    Geometry (in Angstrom), charge = 0, multiplicity = 2:

       Center              X                  Y                   Z               Mass       
    ------------   -----------------  -----------------  -----------------  -----------------
         AG           0.000000000000     0.000000000000     0.000000000000   106.905091600000

  Running in d2h symmetry.

  Rotational constants: A = ************  B = ************  C = ************ [cm^-1]
  Rotational constants: A = ************  B = ************  C = ************ [MHz]
  Nuclear repulsion =    0.000000000000000

  Charge       = 0
  Multiplicity = 2
  Electrons    = 19
  Nalpha       = 10
  Nbeta        = 9

  ==> Algorithm <==

  SCF Algorithm Type is DF.
  DIIS enabled.
  MOM disabled.
  Fractional occupation disabled.
  Guess Type is CORE.
  Energy threshold   = 1.00e-06
  Density threshold  = 1.00e-06
  Integral threshold = 1.00e-12

  ==> Primary Basis <==

  Basis Set: DEF2-TZVPPD
    Blend: DEF2-TZVPPD
    Number of shells: 16
    Number of basis functions: 56
    Number of Cartesian functions: 71
    Spherical Harmonics?: true
    Max angular momentum: 4

  Core potential: DEF2-TZVPPD
    Number of shells: 4
    Number of ECP primitives: 14
    Number of ECP core electrons: 28
    Max angular momentum: 3

  ==> DFT Potential <==

   => Composite Functional: M11-D3BJ <= 

    M11 Meta-GGA XC Functional
(10.1021/jz201170d)
    R. Peverati and D. G. Truhlar, J. Phys. Chem. Lett., 2, 2810, 2011


    Deriv               =              1
    GGA                 =           TRUE
    Meta                =           TRUE

    Exchange Hybrid     =           TRUE
    MP2 Hybrid          =          FALSE

   => Exchange Functionals <=

    1.0000   XC_HYB_MGGA_X_M11 [omega = 0.2500]

   => Exact (HF) Exchange <=

    0.5720            HF,LR [omega = 0.2500]
    0.4280               HF 

   => Correlation Functionals <=

    1.0000    XC_MGGA_C_M11

   => LibXC Density Thresholds  <==

    XC_MGGA_C_M11:  1.00E-15 
    XC_HYB_MGGA_X_M11:  1.00E-11 

   => Molecular Quadrature <=

    Radial Scheme          =       TREUTLER
    Pruning Scheme         =           NONE
    Nuclear Scheme         =       TREUTLER

    BS radius alpha        =              1
    Pruning alpha          =              1
    Radial Points          =             75
    Spherical Points       =            302
    Total Points           =          20832
    Total Blocks           =            235
    Max Points             =            255
    Max Functions          =             56
    Weights Tolerance      =       1.00E-15

   => Loading Basis Set <=

    Name: (DEF2-TZVPPD AUX)
    Role: JKFIT
    Keyword: DF_BASIS_SCF
    atoms 1 entry AG         line  4364 file /mnt/storage/home/zw18965/.conda/envs/p4env/share/psi4/basis/def2-universal-jkfit.gbs 

  ==> Integral Setup <==

  DFHelper Memory: AOs need 0.014 GiB; user supplied 83.748 GiB. Using in-core AOs.

  ==> MemDFJK: Density-Fitted J/K Matrices <==

    J tasked:                   Yes
    K tasked:                   Yes
    wK tasked:                  Yes
    Omega:                2.500E-01
    OpenMP threads:              28
    Memory [MiB]:             85757
    Algorithm:                 Core
    Schwarz Cutoff:           1E-12
    Mask sparsity (%):       0.0000
    Fitting Condition:        1E-10

   => Auxiliary Basis Set <=

  Basis Set: (DEF2-TZVPPD AUX)
    Blend: DEF2-UNIVERSAL-JKFIT
    Number of shells: 49
    Number of basis functions: 255
    Number of Cartesian functions: 384
    Spherical Harmonics?: true
    Max angular momentum: 6

  Cached 100.0% of DFT collocation blocks in 0.071 [GiB].

  Minimum eigenvalue in the overlap matrix is 2.2101858439E-02.
  Reciprocal condition number of the overlap matrix is 7.0222993859E-03.
    Using symmetric orthogonalization.

  ==> Pre-Iterations <==

  SCF Guess: Core (One-Electron) Hamiltonian.

   -------------------------------------------------------
    Irrep   Nso     Nmo     Nalpha   Nbeta   Ndocc  Nsocc
   -------------------------------------------------------
     Ag        15      15       3       3       3       0
     B1g        5       5       1       1       1       0
     B2g        5       5       1       1       1       0
     B3g        5       5       1       1       1       0
     Au         2       2       0       0       0       0
     B1u        8       8       1       1       1       0
     B2u        8       8       2       1       1       1
     B3u        8       8       1       1       1       0
   -------------------------------------------------------
    Total      56      56      10       9       9       1
   -------------------------------------------------------

  ==> Iterations <==

                           Total Energy        Delta E     RMS |[F,P]|

    Occupation by irrep:
             Ag   B1g   B2g   B3g    Au   B1u   B2u   B3u 
    DOCC [     3,    0,    0,    0,    0,    2,    2,    2 ]
    SOCC [     0,    1,    0,    0,    0,    0,    0,    0 ]

   @DF-UKS iter   1:  -131.33400982046592   -1.31334e+02   2.66476e-01 DIIS
    Occupation by irrep:
             Ag   B1g   B2g   B3g    Au   B1u   B2u   B3u 
    DOCC [     3,    1,    1,    1,    0,    1,    1,    1 ]
    SOCC [     1,    0,    0,    0,    0,    0,    0,    0 ]

   @DF-UKS iter   2:  -117.60432253622299    1.37297e+01   3.32946e-01 DIIS
   @DF-UKS iter   3:  -146.32853014777442   -2.87242e+01   5.18518e-02 DIIS
   @DF-UKS iter   4:  -146.81780060250799   -4.89270e-01   6.15928e-03 DIIS
   @DF-UKS iter   5:  -146.82154673226688   -3.74613e-03   5.71308e-03 DIIS
   @DF-UKS iter   6:  -146.82559042943160   -4.04370e-03   1.73201e-03 DIIS
   @DF-UKS iter   7:  -146.82610353485168   -5.13105e-04   2.36230e-04 DIIS
   @DF-UKS iter   8:  -146.82612230698567   -1.87721e-05   5.10748e-05 DIIS
   @DF-UKS iter   9:  -146.82612700673153   -4.69975e-06   2.01408e-05 DIIS
   @DF-UKS iter  10:  -146.82612805890938   -1.05218e-06   3.40515e-06 DIIS
   @DF-UKS iter  11:  -146.82612808544098   -2.65316e-08   2.29017e-07 DIIS
  Energy and wave function converged.


  ==> Post-Iterations <==

   Electrons on quadrature grid:
      Nalpha   =   10.0000000000 ; deviation = 1.599e-14
      Nbeta    =    9.0000000000 ; deviation = -1.421e-14
      Ntotal   =   19.0000000000 ; deviation = 1.776e-15 

   @Spin Contamination Metric:   4.841965052E-04
   @S^2 Expected:                7.500000000E-01
   @S^2 Observed:                7.504841965E-01
   @S   Expected:                5.000000000E-01
   @S   Observed:                5.000000000E-01

    Orbital Energies [Eh]
    ---------------------

    Alpha Occupied:                                                       

       1Ag    -3.861486     1B1u   -2.454641     1B2u   -2.454641  
       1B3u   -2.454641     1B3g   -0.444459     2Ag    -0.444459  
       3Ag    -0.444458     1B2g   -0.444458     1B1g   -0.444458  
       4Ag    -0.247654  

    Alpha Virtual:                                                        

       2B3u    0.045637     2B2u    0.045637     2B1u    0.045637  
       5Ag     0.144584     3B1u    0.261409     3B2u    0.261409  
       3B3u    0.261409     6Ag     0.490918     2B3g    0.490918  
       7Ag     0.490918     2B2g    0.490918     2B1g    0.490918  
       4B1u    1.686275     4B2u    1.686275     4B3u    1.686275  
       5B2u    1.708511     5B1u    1.708511     1Au     1.708511  
       5B3u    1.708511     6B2u    1.708511     6B1u    1.708511  
       6B3u    1.708511     8Ag     1.935276     3B3g    2.154011  
       9Ag     2.154011    10Ag     2.154011     3B2g    2.154011  
       3B1g    2.154011     7B2u    4.899001     7B1u    4.899001  
       7B3u    4.899001     8B1u    4.899001     8B2u    4.899001  
       2Au     4.899001     8B3u    4.899001     4B3g    5.662992  
      11Ag     5.662992     4B2g    5.662992     4B1g    5.662992  
       5B1g    5.662993     5B3g    5.662993    12Ag     5.662993  
       5B2g    5.662993    13Ag     5.662993    14Ag    33.242575  
      15Ag   110.490366  

    Beta Occupied:                                                        

       1Ag    -3.857253     1B3u   -2.451935     1B2u   -2.451935  
       1B1u   -2.451934     1B1g   -0.439317     1B2g   -0.439317  
       2Ag    -0.439317     3Ag    -0.439317     1B3g   -0.439317  

    Beta Virtual:                                                         

       4Ag    -0.050698     2B2u   -0.016207     2B1u   -0.016207  
       2B3u   -0.016207     5Ag     0.108780     3B1u    0.263526  
       3B2u    0.263526     3B3u    0.263527     6Ag     0.504237  
       2B3g    0.504237     2B2g    0.504237     7Ag     0.504237  
       2B1g    0.504237     4B2u    1.681402     4B1u    1.681402  
       4B3u    1.681402     5B3u    1.711876     1Au     1.711876  
       5B2u    1.711876     5B1u    1.711876     6B2u    1.711876  
       6B3u    1.711876     6B1u    1.711876     8Ag     1.950006  
       3B1g    2.147081     3B2g    2.147081     9Ag     2.147081  
       3B3g    2.147081    10Ag     2.147081     7B3u    4.896427  
       7B2u    4.896427     2Au     4.896427     7B1u    4.896427  
       8B3u    4.896427     8B1u    4.896427     8B2u    4.896427  
       4B1g    5.668510     4B2g    5.668510    11Ag     5.668510  
       5B1g    5.668510     4B3g    5.668510     5B2g    5.668510  
      12Ag     5.668510     5B3g    5.668510    13Ag     5.668510  
      14Ag    33.248750    15Ag   110.491515  

    Final Occupation by Irrep:
             Ag   B1g   B2g   B3g    Au   B1u   B2u   B3u 
    DOCC [     3,    1,    1,    1,    0,    1,    1,    1 ]
    SOCC [     1,    0,    0,    0,    0,    0,    0,    0 ]

  @DF-UKS Final Energy:  -146.82612808544098

   => Energetics <=

    Nuclear Repulsion Energy =              0.0000000000000000
    One-Electron Energy =                -261.2259006839776703
    Two-Electron Energy =                 121.2599209197064738
    DFT Exchange-Correlation Energy =      -6.8601483211697909
    Empirical Dispersion Energy =           0.0000000000000000
    VV10 Nonlocal Energy =                  0.0000000000000000
    Total Energy =                       -146.8261280854409847

  UHF NO Occupations:
  HONO-2 :    1B2g 1.9999535
  HONO-1 :    1B1g 1.9999535
  HONO-0 :    4 Ag 1.0000000
  LUNO+0 :    2B1g 0.0000465
  LUNO+1 :    2B2g 0.0000465
  LUNO+2 :    5 Ag 0.0000465
  LUNO+3 :    6 Ag 0.0000465


Computation Completed


Properties will be evaluated at   0.000000,   0.000000,   0.000000 [a0]

Properties computed using the SCF density matrix

  Nuclear Dipole Moment: [e a0]
     X:     0.0000      Y:     0.0000      Z:     0.0000

  Electronic Dipole Moment: [e a0]
     X:     0.0000      Y:     0.0000      Z:     0.0000

  Dipole Moment: [e a0]
     X:     0.0000      Y:     0.0000      Z:     0.0000     Total:     0.0000

  Dipole Moment: [D]
     X:     0.0000      Y:     0.0000      Z:     0.0000     Total:     0.0000


*** tstop() called on compute428.bc4.acrc.priv at Sun Nov  7 05:07:26 2021
Module time:
	user time   =      75.01 seconds =       1.25 minutes
	system time =       2.89 seconds =       0.05 minutes
	total time  =          5 seconds =       0.08 minutes
Total time:
	user time   =      75.01 seconds =       1.25 minutes
	system time =       2.89 seconds =       0.05 minutes
	total time  =          5 seconds =       0.08 minutes

    Psi4 stopped on: Sunday, 07 November 2021 05:07AM
    Psi4 wall time for execution: 0:00:05.75

*** Psi4 exiting successfully. Buy a developer a beer!
