
    -----------------------------------------------------------------------
          Psi4: An Open-Source Ab Initio Electronic Structure Package
                               Psi4 1.4.1 release

                         Git: Rev {HEAD} cd00f19 


    D. G. A. Smith, L. A. Burns, A. C. Simmonett, R. M. Parrish,
    M. C. Schieber, R. Galvelis, P. Kraus, H. Kruse, R. Di Remigio,
    A. Alenaizan, A. M. James, S. Lehtola, J. P. Misiewicz, M. Scheurer,
    R. A. Shaw, J. B. Schriber, Y. Xie, Z. L. Glick, D. A. Sirianni,
    J. S. O'Brien, J. M. Waldrop, A. Kumar, E. G. Hohenstein,
    B. P. Pritchard, B. R. Brooks, H. F. Schaefer III, A. Yu. Sokolov,
    K. Patkowski, A. E. DePrince III, U. Bozkaya, R. A. King,
    F. A. Evangelista, J. M. Turney, T. D. Crawford, C. D. Sherrill,
    J. Chem. Phys. 152(18) 184108 (2020). https://doi.org/10.1063/5.0006002

                            Additional Code Authors
    E. T. Seidl, C. L. Janssen, E. F. Valeev, M. L. Leininger,
    J. F. Gonthier, R. M. Richard, H. R. McAlexander, M. Saitow, X. Wang,
    P. Verma, and M. H. Lechner

             Previous Authors, Complete List of Code Contributors,
                       and Citations for Specific Modules
    https://github.com/psi4/psi4/blob/master/codemeta.json
    https://github.com/psi4/psi4/graphs/contributors
    http://psicode.org/psi4manual/master/introduction.html#citing-psifour

    -----------------------------------------------------------------------


    Psi4 started on: Sunday, 07 November 2021 05:07AM

    Process ID: 17331
    Host:       compute427.bc4.acrc.priv
    PSIDATADIR: /mnt/storage/home/zw18965/.conda/envs/p4env/share/psi4
    Memory:     500.0 MiB
    Threads:    28
    
  ==> Input File <==

--------------------------------------------------------------------------
memory 120 GB

molecule {
0 1
Ag         0.00000        0.00000        0.00000
Ag         0.00000        0.00000        2.58711
 }

set dynamic_level 1
set basis Def2-TZVPPD

energy("M11-D3BJ")
--------------------------------------------------------------------------

  Memory set to 111.759 GiB by Python driver.

Scratch directory: /tmp/

*** tstart() called on compute427.bc4.acrc.priv
*** at Sun Nov  7 05:07:21 2021

   => Loading Basis Set <=

    Name: DEF2-TZVPPD
    Role: ORBITAL
    Keyword: BASIS
    atoms 1-2 entry AG         line  2174 (ECP: line  3646) file /mnt/storage/home/zw18965/.conda/envs/p4env/share/psi4/basis/def2-tzvppd.gbs 

    !!!  WARNING: ECP capability is in beta. Please check occupations closely.  !!!

   => M11-D3(BJ): Empirical Dispersion <=

    Grimme's -D3 (BJ-damping) Dispersion Correction
    Grimme S.; Ehrlich S.; Goerigk L. (2011), J. Comput. Chem., 32: 1456
    Parametrisation from:    L. Goerigk, J. Phys. Chem. Lett. 6, 3891-3896, 2015

        s6 =       1.000000
        s8 =       2.811200
        a1 =       0.000000
        a2 =      10.138900


         ---------------------------------------------------------
                                   SCF
               by Justin Turney, Rob Parrish, Andy Simmonett
                          and Daniel G. A. Smith
                              RKS Reference
                       28 Threads, 114440 MiB Core
         ---------------------------------------------------------

  ==> Geometry <==

    Molecular point group: d2h
    Full point group: D_inf_h

    Geometry (in Angstrom), charge = 0, multiplicity = 1:

       Center              X                  Y                   Z               Mass       
    ------------   -----------------  -----------------  -----------------  -----------------
         AG           0.000000000000     0.000000000000    -1.293555000000   106.905091600000
         AG           0.000000000000     0.000000000000     1.293555000000   106.905091600000

  Running in d2h symmetry.

  Rotational constants: A = ************  B =      0.04712  C =      0.04712 [cm^-1]
  Rotational constants: A = ************  B =   1412.59939  C =   1412.59939 [MHz]
  Nuclear repulsion =   73.840297881369551

  Charge       = 0
  Multiplicity = 1
  Electrons    = 38
  Nalpha       = 19
  Nbeta        = 19

  ==> Algorithm <==

  SCF Algorithm Type is DF.
  DIIS enabled.
  MOM disabled.
  Fractional occupation disabled.
  Guess Type is SAD.
  Energy threshold   = 1.00e-06
  Density threshold  = 1.00e-06
  Integral threshold = 1.00e-12

  ==> Primary Basis <==

  Basis Set: DEF2-TZVPPD
    Blend: DEF2-TZVPPD
    Number of shells: 32
    Number of basis functions: 112
    Number of Cartesian functions: 142
    Spherical Harmonics?: true
    Max angular momentum: 4

  Core potential: DEF2-TZVPPD
    Number of shells: 8
    Number of ECP primitives: 28
    Number of ECP core electrons: 56
    Max angular momentum: 3

  ==> DFT Potential <==

   => Composite Functional: M11-D3BJ <= 

    M11 Meta-GGA XC Functional
(10.1021/jz201170d)
    R. Peverati and D. G. Truhlar, J. Phys. Chem. Lett., 2, 2810, 2011


    Deriv               =              1
    GGA                 =           TRUE
    Meta                =           TRUE

    Exchange Hybrid     =           TRUE
    MP2 Hybrid          =          FALSE

   => Exchange Functionals <=

    1.0000   XC_HYB_MGGA_X_M11 [omega = 0.2500]

   => Exact (HF) Exchange <=

    0.5720            HF,LR [omega = 0.2500]
    0.4280               HF 

   => Correlation Functionals <=

    1.0000    XC_MGGA_C_M11

   => LibXC Density Thresholds  <==

    XC_MGGA_C_M11:  1.00E-15 
    XC_HYB_MGGA_X_M11:  1.00E-11 

   => Molecular Quadrature <=

    Radial Scheme          =       TREUTLER
    Pruning Scheme         =           NONE
    Nuclear Scheme         =       TREUTLER

    BS radius alpha        =              1
    Pruning alpha          =              1
    Radial Points          =             75
    Spherical Points       =            302
    Total Points           =          41814
    Total Blocks           =            412
    Max Points             =            252
    Max Functions          =            110
    Weights Tolerance      =       1.00E-15

   => Loading Basis Set <=

    Name: (DEF2-TZVPPD AUX)
    Role: JKFIT
    Keyword: DF_BASIS_SCF
    atoms 1-2 entry AG         line  4364 file /mnt/storage/home/zw18965/.conda/envs/p4env/share/psi4/basis/def2-universal-jkfit.gbs 

  ==> Integral Setup <==

  DFHelper Memory: AOs need 0.102 GiB; user supplied 83.572 GiB. Using in-core AOs.

  ==> MemDFJK: Density-Fitted J/K Matrices <==

    J tasked:                   Yes
    K tasked:                   Yes
    wK tasked:                  Yes
    Omega:                2.500E-01
    OpenMP threads:              28
    Memory [MiB]:             85577
    Algorithm:                 Core
    Schwarz Cutoff:           1E-12
    Mask sparsity (%):       1.1798
    Fitting Condition:        1E-10

   => Auxiliary Basis Set <=

  Basis Set: (DEF2-TZVPPD AUX)
    Blend: DEF2-UNIVERSAL-JKFIT
    Number of shells: 98
    Number of basis functions: 510
    Number of Cartesian functions: 768
    Spherical Harmonics?: true
    Max angular momentum: 6

  Cached 100.0% of DFT collocation blocks in 0.248 [GiB].

  Minimum eigenvalue in the overlap matrix is 9.3036050550E-03.
  Reciprocal condition number of the overlap matrix is 2.4053126480E-03.
    Using symmetric orthogonalization.

  ==> Pre-Iterations <==

  SCF Guess: Superposition of Atomic Densities via on-the-fly atomic UHF (no occupation information).

   -------------------------
    Irrep   Nso     Nmo    
   -------------------------
     Ag        23      23 
     B1g        7       7 
     B2g       13      13 
     B3g       13      13 
     Au         7       7 
     B1u       23      23 
     B2u       13      13 
     B3u       13      13 
   -------------------------
    Total     112     112
   -------------------------

  ==> Iterations <==

                           Total Energy        Delta E     RMS |[F,P]|

   @DF-RKS iter SAD:  -293.17202673838892   -2.93172e+02   0.00000e+00 
   @DF-RKS iter   1:  -293.68357154067382   -5.11545e-01   5.22373e-03 DIIS
   @DF-RKS iter   2:  -293.69107601130281   -7.50447e-03   4.74307e-03 DIIS
   @DF-RKS iter   3:  -293.70209346024774   -1.10174e-02   3.47672e-04 DIIS
   @DF-RKS iter   4:  -293.70232176049683   -2.28300e-04   2.60589e-04 DIIS
   @DF-RKS iter   5:  -293.70240215374821   -8.03933e-05   9.08816e-05 DIIS
   @DF-RKS iter   6:  -293.70243225377124   -3.01000e-05   2.91150e-05 DIIS
   @DF-RKS iter   7:  -293.70243668510813   -4.43134e-06   7.15064e-06 DIIS
   @DF-RKS iter   8:  -293.70243696133201   -2.76224e-07   1.73995e-06 DIIS
   @DF-RKS iter   9:  -293.70243697188317   -1.05512e-08   4.54104e-07 DIIS
  Energy and wave function converged.


  ==> Post-Iterations <==

   Electrons on quadrature grid:
      Ntotal   =   37.9999764707 ; deviation = -2.353e-05 

    Orbital Energies [Eh]
    ---------------------

    Doubly Occupied:                                                      

       1Ag    -3.850693     1B1u   -3.850159     2Ag    -2.449073  
       1B2u   -2.442613     1B3u   -2.442613     2B1u   -2.442395  
       1B3g   -2.442024     1B2g   -2.442024     3Ag    -0.467661  
       2B2u   -0.452290     2B3u   -0.452290     1B1g   -0.432907  
       4Ag    -0.432900     1Au    -0.425817     3B1u   -0.425810  
       2B3g   -0.412559     2B2g   -0.412559     4B1u   -0.404762  
       5Ag    -0.258221  

    Virtual:                                                              

       5B1u   -0.015374     6Ag     0.037927     3B2u    0.041434  
       3B3u    0.041434     3B2g    0.077430     3B3g    0.077430  
       6B1u    0.103584     7Ag     0.158880     7B1u    0.180457  
       8Ag     0.237378     4B3u    0.243515     4B2u    0.243516  
       4B2g    0.310979     4B3g    0.310979     8B1u    0.457372  
       9Ag     0.475784     2B1g    0.475794     5B2u    0.509478  
       5B3u    0.509478     9B1u    0.559413     2Au     0.559415  
      10Ag     0.664599     5B3g    0.671232     5B2g    0.671232  
      10B1u    0.789570    11Ag     1.560231     6B2u    1.676882  
       6B3u    1.676882     7B3u    1.709921     7B2u    1.709921  
       3B1g    1.716424    12Ag     1.716447     6B2g    1.718367  
       6B3g    1.718367     8B2u    1.727768     8B3u    1.727768  
      11B1u    1.729269     7B3g    1.729507     7B2g    1.729507  
       3Au     1.741919    12B1u    1.741949    13Ag     1.814054  
       8B2g    1.843676     8B3g    1.843676    13B1u    1.864100  
      14Ag     2.027458    15Ag     2.157078     4B1g    2.157122  
       9B2u    2.186374     9B3u    2.186375    14B1u    2.189378  
       4Au     2.189429     9B3g    2.253708     9B2g    2.253708  
      16Ag     2.257874    15B1u    2.398453    16B1u    2.443651  
      17Ag     4.866638    10B2u    4.871139    10B3u    4.871139  
       5B1g    4.902466    18Ag     4.902642    11B2u    4.908950  
      11B3u    4.908950    10B3g    4.910308    10B2g    4.910308  
       5Au     4.922177    17B1u    4.922353    11B3g    4.993870  
      11B2g    4.993870    18B1u    5.174044    12B2u    5.676859  
      12B3u    5.676859    19Ag     5.677831    20Ag     5.678081  
       6B1g    5.678446    19B1u    5.678466     6Au     5.678831  
      13B2u    5.679481    13B3u    5.679481    12B3g    5.679497  
      12B2g    5.679497    20B1u    5.680164    21Ag     5.680165  
      13B3g    5.680358    13B2g    5.680358     7Au     5.680579  
       7B1g    5.680579    21B1u    5.689553    22Ag    33.297368  
      22B1u   33.539387    23Ag   110.512846    23B1u  110.590974  

    Final Occupation by Irrep:
             Ag   B1g   B2g   B3g    Au   B1u   B2u   B3u 
    DOCC [     5,    1,    2,    2,    1,    4,    2,    2 ]

  @DF-RKS Final Energy:  -293.70243697188317

   => Energetics <=

    Nuclear Repulsion Energy =             73.8402978813695512
    One-Electron Energy =                -670.5788603109185715
    Two-Electron Energy =                 316.7795441895608519
    DFT Exchange-Correlation Energy =     -13.7425646618950186
    Empirical Dispersion Energy =          -0.0008540700000000
    VV10 Nonlocal Energy =                  0.0000000000000000
    Total Energy =                       -293.7024369718831736

Computation Completed


Properties will be evaluated at   0.000000,   0.000000,   0.000000 [a0]

Properties computed using the SCF density matrix

  Nuclear Dipole Moment: [e a0]
     X:     0.0000      Y:     0.0000      Z:     0.0000

  Electronic Dipole Moment: [e a0]
     X:     0.0000      Y:     0.0000      Z:     0.0000

  Dipole Moment: [e a0]
     X:     0.0000      Y:     0.0000      Z:     0.0000     Total:     0.0000

  Dipole Moment: [D]
     X:     0.0000      Y:     0.0000      Z:     0.0000     Total:     0.0000


*** tstop() called on compute427.bc4.acrc.priv at Sun Nov  7 05:07:29 2021
Module time:
	user time   =      65.90 seconds =       1.10 minutes
	system time =       2.54 seconds =       0.04 minutes
	total time  =          8 seconds =       0.13 minutes
Total time:
	user time   =      65.90 seconds =       1.10 minutes
	system time =       2.54 seconds =       0.04 minutes
	total time  =          8 seconds =       0.13 minutes

    Psi4 stopped on: Sunday, 07 November 2021 05:07AM
    Psi4 wall time for execution: 0:00:08.72

*** Psi4 exiting successfully. Buy a developer a beer!
