
    -----------------------------------------------------------------------
          Psi4: An Open-Source Ab Initio Electronic Structure Package
                               Psi4 1.4.1 release

                         Git: Rev {HEAD} cd00f19 


    D. G. A. Smith, L. A. Burns, A. C. Simmonett, R. M. Parrish,
    M. C. Schieber, R. Galvelis, P. Kraus, H. Kruse, R. Di Remigio,
    A. Alenaizan, A. M. James, S. Lehtola, J. P. Misiewicz, M. Scheurer,
    R. A. Shaw, J. B. Schriber, Y. Xie, Z. L. Glick, D. A. Sirianni,
    J. S. O'Brien, J. M. Waldrop, A. Kumar, E. G. Hohenstein,
    B. P. Pritchard, B. R. Brooks, H. F. Schaefer III, A. Yu. Sokolov,
    K. Patkowski, A. E. DePrince III, U. Bozkaya, R. A. King,
    F. A. Evangelista, J. M. Turney, T. D. Crawford, C. D. Sherrill,
    J. Chem. Phys. 152(18) 184108 (2020). https://doi.org/10.1063/5.0006002

                            Additional Code Authors
    E. T. Seidl, C. L. Janssen, E. F. Valeev, M. L. Leininger,
    J. F. Gonthier, R. M. Richard, H. R. McAlexander, M. Saitow, X. Wang,
    P. Verma, and M. H. Lechner

             Previous Authors, Complete List of Code Contributors,
                       and Citations for Specific Modules
    https://github.com/psi4/psi4/blob/master/codemeta.json
    https://github.com/psi4/psi4/graphs/contributors
    http://psicode.org/psi4manual/master/introduction.html#citing-psifour

    -----------------------------------------------------------------------


    Psi4 started on: Sunday, 07 November 2021 05:07AM

    Process ID: 17077
    Host:       compute423.bc4.acrc.priv
    PSIDATADIR: /mnt/storage/home/zw18965/.conda/envs/p4env/share/psi4
    Memory:     500.0 MiB
    Threads:    28
    
  ==> Input File <==

--------------------------------------------------------------------------
memory 120 GB

molecule {
0 1
Ag         0.00000        0.00000        0.00000
H          0.00000        0.00000        1.61800
 }

set dynamic_level 1
set basis Def2-TZVPPD

energy("M11-D3BJ")
--------------------------------------------------------------------------

  Memory set to 111.759 GiB by Python driver.

Scratch directory: /tmp/

*** tstart() called on compute423.bc4.acrc.priv
*** at Sun Nov  7 05:07:21 2021

   => Loading Basis Set <=

    Name: DEF2-TZVPPD
    Role: ORBITAL
    Keyword: BASIS
    atoms 1 entry AG         line  2174 (ECP: line  3646) file /mnt/storage/home/zw18965/.conda/envs/p4env/share/psi4/basis/def2-tzvppd.gbs 
    atoms 2 entry H          line    14 file /mnt/storage/home/zw18965/.conda/envs/p4env/share/psi4/basis/def2-tzvppd.gbs 

    !!!  WARNING: ECP capability is in beta. Please check occupations closely.  !!!

   => M11-D3(BJ): Empirical Dispersion <=

    Grimme's -D3 (BJ-damping) Dispersion Correction
    Grimme S.; Ehrlich S.; Goerigk L. (2011), J. Comput. Chem., 32: 1456
    Parametrisation from:    L. Goerigk, J. Phys. Chem. Lett. 6, 3891-3896, 2015

        s6 =       1.000000
        s8 =       2.811200
        a1 =       0.000000
        a2 =      10.138900


         ---------------------------------------------------------
                                   SCF
               by Justin Turney, Rob Parrish, Andy Simmonett
                          and Daniel G. A. Smith
                              RKS Reference
                       28 Threads, 114440 MiB Core
         ---------------------------------------------------------

  ==> Geometry <==

    Molecular point group: c2v
    Full point group: C_inf_v

    Geometry (in Angstrom), charge = 0, multiplicity = 1:

       Center              X                  Y                   Z               Mass       
    ------------   -----------------  -----------------  -----------------  -----------------
         AG           0.000000000000     0.000000000000    -0.015110896388   106.905091600000
         H            0.000000000000     0.000000000000     1.602889103612     1.007825032230

  Running in c2v symmetry.

  Rotational constants: A = ************  B =      6.44955  C =      6.44955 [cm^-1]
  Rotational constants: A = ************  B = 193352.62136  C = 193352.62136 [MHz]
  Nuclear repulsion =    6.214071077088998

  Charge       = 0
  Multiplicity = 1
  Electrons    = 20
  Nalpha       = 10
  Nbeta        = 10

  ==> Algorithm <==

  SCF Algorithm Type is DF.
  DIIS enabled.
  MOM disabled.
  Fractional occupation disabled.
  Guess Type is SAD.
  Energy threshold   = 1.00e-06
  Density threshold  = 1.00e-06
  Integral threshold = 1.00e-12

  ==> Primary Basis <==

  Basis Set: DEF2-TZVPPD
    Blend: DEF2-TZVPPD
    Number of shells: 23
    Number of basis functions: 73
    Number of Cartesian functions: 89
    Spherical Harmonics?: true
    Max angular momentum: 4

  Core potential: DEF2-TZVPPD
    Number of shells: 4
    Number of ECP primitives: 14
    Number of ECP core electrons: 28
    Max angular momentum: 3

  ==> DFT Potential <==

   => Composite Functional: M11-D3BJ <= 

    M11 Meta-GGA XC Functional
(10.1021/jz201170d)
    R. Peverati and D. G. Truhlar, J. Phys. Chem. Lett., 2, 2810, 2011


    Deriv               =              1
    GGA                 =           TRUE
    Meta                =           TRUE

    Exchange Hybrid     =           TRUE
    MP2 Hybrid          =          FALSE

   => Exchange Functionals <=

    1.0000   XC_HYB_MGGA_X_M11 [omega = 0.2500]

   => Exact (HF) Exchange <=

    0.5720            HF,LR [omega = 0.2500]
    0.4280               HF 

   => Correlation Functionals <=

    1.0000    XC_MGGA_C_M11

   => LibXC Density Thresholds  <==

    XC_MGGA_C_M11:  1.00E-15 
    XC_HYB_MGGA_X_M11:  1.00E-11 

   => Molecular Quadrature <=

    Radial Scheme          =       TREUTLER
    Pruning Scheme         =           NONE
    Nuclear Scheme         =       TREUTLER

    BS radius alpha        =              1
    Pruning alpha          =              1
    Radial Points          =             75
    Spherical Points       =            302
    Total Points           =          43134
    Total Blocks           =            396
    Max Points             =            256
    Max Functions          =             73
    Weights Tolerance      =       1.00E-15

   => Loading Basis Set <=

    Name: (DEF2-TZVPPD AUX)
    Role: JKFIT
    Keyword: DF_BASIS_SCF
    atoms 1 entry AG         line  4364 file /mnt/storage/home/zw18965/.conda/envs/p4env/share/psi4/basis/def2-universal-jkfit.gbs 
    atoms 2 entry H          line    18 file /mnt/storage/home/zw18965/.conda/envs/p4env/share/psi4/basis/def2-universal-jkfit.gbs 

  ==> Integral Setup <==

  DFHelper Memory: AOs need 0.025 GiB; user supplied 83.614 GiB. Using in-core AOs.

  ==> MemDFJK: Density-Fitted J/K Matrices <==

    J tasked:                   Yes
    K tasked:                   Yes
    wK tasked:                  Yes
    Omega:                2.500E-01
    OpenMP threads:              28
    Memory [MiB]:             85621
    Algorithm:                 Core
    Schwarz Cutoff:           1E-12
    Mask sparsity (%):       0.0000
    Fitting Condition:        1E-10

   => Auxiliary Basis Set <=

  Basis Set: (DEF2-TZVPPD AUX)
    Blend: DEF2-UNIVERSAL-JKFIT
    Number of shells: 55
    Number of basis functions: 273
    Number of Cartesian functions: 404
    Spherical Harmonics?: true
    Max angular momentum: 6

  Cached 100.0% of DFT collocation blocks in 0.205 [GiB].

  Minimum eigenvalue in the overlap matrix is 3.4168603177E-03.
  Reciprocal condition number of the overlap matrix is 8.1811120032E-04.
    Using symmetric orthogonalization.

  ==> Pre-Iterations <==

  SCF Guess: Superposition of Atomic Densities via on-the-fly atomic UHF (no occupation information).

   -------------------------
    Irrep   Nso     Nmo    
   -------------------------
     A1        31      31 
     A2         8       8 
     B1        17      17 
     B2        17      17 
   -------------------------
    Total      73      73
   -------------------------

  ==> Iterations <==

                           Total Energy        Delta E     RMS |[F,P]|

   @DF-RKS iter SAD:  -147.06204638012338   -1.47062e+02   0.00000e+00 
   @DF-RKS iter   1:  -147.36590620008130   -3.03860e-01   6.54224e-03 DIIS
   @DF-RKS iter   2:  -147.40300656566490   -3.71004e-02   4.85320e-03 DIIS
   @DF-RKS iter   3:  -147.41474187199333   -1.17353e-02   7.24976e-04 DIIS
   @DF-RKS iter   4:  -147.41561733279784   -8.75461e-04   3.12672e-04 DIIS
   @DF-RKS iter   5:  -147.41608344030129   -4.66108e-04   1.91899e-04 DIIS
   @DF-RKS iter   6:  -147.41616220511702   -7.87648e-05   8.05799e-05 DIIS
   @DF-RKS iter   7:  -147.41618690053491   -2.46954e-05   2.77626e-05 DIIS
   @DF-RKS iter   8:  -147.41619137570981   -4.47517e-06   3.93567e-06 DIIS
   @DF-RKS iter   9:  -147.41619142837399   -5.26642e-08   1.08620e-06 DIIS
   @DF-RKS iter  10:  -147.41619143211878   -3.74479e-09   1.97385e-07 DIIS
  Energy and wave function converged.


  ==> Post-Iterations <==

   Electrons on quadrature grid:
      Ntotal   =   19.9999990420 ; deviation = -9.580e-07 

    Orbital Energies [Eh]
    ---------------------

    Doubly Occupied:                                                      

       1A1    -3.882609     2A1    -2.480998     1B1    -2.472158  
       1B2    -2.472158     3A1    -0.501569     2B1    -0.463909  
       2B2    -0.463909     1A2    -0.457015     4A1    -0.457015  
       5A1    -0.329961  

    Virtual:                                                              

       6A1    -0.023147     3B2     0.030332     3B1     0.030332  
       7A1     0.086881     8A1     0.126606     4B2     0.217904  
       4B1     0.217904     9A1     0.241291     5B1     0.291400  
       5B2     0.291400    10A1     0.451176     2A2     0.500771  
      11A1     0.500772    12A1     0.528645     6B2     0.593980  
       6B1     0.593980    13A1     0.661890     7B1     0.961216  
       7B2     0.961216    14A1     1.144315     8B1     1.685002  
       8B2     1.685002    15A1     1.695291     3A2     1.695296  
       9B1     1.703126     9B2     1.703126    16A1     1.753659  
      10B2     1.767189    10B1     1.767189    17A1     1.935866  
      18A1     2.113522    19A1     2.143145     4A2     2.143146  
      11B1     2.206019    11B2     2.206019    20A1     2.320688  
      21A1     2.739648    22A1     3.321024     5A2     3.322354  
      12B1     3.516579    12B2     3.516579    13B2     3.891548  
      13B1     3.891548    23A1     4.033568    24A1     4.570497  
      14B2     4.879534    14B1     4.879534    25A1     4.894568  
       6A2     4.894580    15B1     5.070017    15B2     5.070017  
      26A1     5.279403    16B1     5.651540    16B2     5.651540  
      27A1     5.652862     7A2     5.652863    28A1     5.654462  
       8A2     5.654466    17B1     5.778181    17B2     5.778181  
      29A1     6.203640    30A1    33.488060    31A1   110.549319  

    Final Occupation by Irrep:
             A1    A2    B1    B2 
    DOCC [     5,    1,    2,    2 ]

  @DF-RKS Final Energy:  -147.41619143211878

   => Energetics <=

    Nuclear Repulsion Energy =              6.2140710770889980
    One-Electron Energy =                -273.9058638713886467
    Two-Electron Energy =                 127.2732410657393416
    DFT Exchange-Correlation Energy =      -6.9975900135584563
    Empirical Dispersion Energy =          -0.0000496900000000
    VV10 Nonlocal Energy =                  0.0000000000000000
    Total Energy =                       -147.4161914321187794

Computation Completed


Properties will be evaluated at   0.000000,   0.000000,   0.000000 [a0]

Properties computed using the SCF density matrix

  Nuclear Dipole Moment: [e a0]
     X:     0.0000      Y:     0.0000      Z:     2.4865

  Electronic Dipole Moment: [e a0]
     X:     0.0000      Y:     0.0000      Z:    -3.8561

  Dipole Moment: [e a0]
     X:     0.0000      Y:     0.0000      Z:    -1.3697     Total:     1.3697

  Dipole Moment: [D]
     X:     0.0000      Y:     0.0000      Z:    -3.4814     Total:     3.4814


*** tstop() called on compute423.bc4.acrc.priv at Sun Nov  7 05:07:27 2021
Module time:
	user time   =      48.91 seconds =       0.82 minutes
	system time =       2.09 seconds =       0.03 minutes
	total time  =          6 seconds =       0.10 minutes
Total time:
	user time   =      48.91 seconds =       0.82 minutes
	system time =       2.09 seconds =       0.03 minutes
	total time  =          6 seconds =       0.10 minutes

    Psi4 stopped on: Sunday, 07 November 2021 05:07AM
    Psi4 wall time for execution: 0:00:06.22

*** Psi4 exiting successfully. Buy a developer a beer!
