
    -----------------------------------------------------------------------
          Psi4: An Open-Source Ab Initio Electronic Structure Package
                               Psi4 1.4.1 release

                         Git: Rev {HEAD} cd00f19 


    D. G. A. Smith, L. A. Burns, A. C. Simmonett, R. M. Parrish,
    M. C. Schieber, R. Galvelis, P. Kraus, H. Kruse, R. Di Remigio,
    A. Alenaizan, A. M. James, S. Lehtola, J. P. Misiewicz, M. Scheurer,
    R. A. Shaw, J. B. Schriber, Y. Xie, Z. L. Glick, D. A. Sirianni,
    J. S. O'Brien, J. M. Waldrop, A. Kumar, E. G. Hohenstein,
    B. P. Pritchard, B. R. Brooks, H. F. Schaefer III, A. Yu. Sokolov,
    K. Patkowski, A. E. DePrince III, U. Bozkaya, R. A. King,
    F. A. Evangelista, J. M. Turney, T. D. Crawford, C. D. Sherrill,
    J. Chem. Phys. 152(18) 184108 (2020). https://doi.org/10.1063/5.0006002

                            Additional Code Authors
    E. T. Seidl, C. L. Janssen, E. F. Valeev, M. L. Leininger,
    J. F. Gonthier, R. M. Richard, H. R. McAlexander, M. Saitow, X. Wang,
    P. Verma, and M. H. Lechner

             Previous Authors, Complete List of Code Contributors,
                       and Citations for Specific Modules
    https://github.com/psi4/psi4/blob/master/codemeta.json
    https://github.com/psi4/psi4/graphs/contributors
    http://psicode.org/psi4manual/master/introduction.html#citing-psifour

    -----------------------------------------------------------------------


    Psi4 started on: Sunday, 07 November 2021 05:08AM

    Process ID: 8196
    Host:       compute476.bc4.acrc.priv
    PSIDATADIR: /mnt/storage/home/zw18965/.conda/envs/p4env/share/psi4
    Memory:     500.0 MiB
    Threads:    28
    
  ==> Input File <==

--------------------------------------------------------------------------
memory 120 GB

molecule {
0 2
Al         0.00000        0.00000        0.00000
 }

set reference uks
set dynamic_level 1
set basis Def2-TZVPPD

energy("M11-D3BJ")
--------------------------------------------------------------------------

  Memory set to 111.759 GiB by Python driver.

Scratch directory: /tmp/

*** tstart() called on compute476.bc4.acrc.priv
*** at Sun Nov  7 05:08:21 2021

   => Loading Basis Set <=

    Name: DEF2-TZVPPD
    Role: ORBITAL
    Keyword: BASIS
    atoms 1 entry AL         line   417 file /mnt/storage/home/zw18965/.conda/envs/p4env/share/psi4/basis/def2-tzvppd.gbs 

   => M11-D3(BJ): Empirical Dispersion <=

    Grimme's -D3 (BJ-damping) Dispersion Correction
    Grimme S.; Ehrlich S.; Goerigk L. (2011), J. Comput. Chem., 32: 1456
    Parametrisation from:    L. Goerigk, J. Phys. Chem. Lett. 6, 3891-3896, 2015

        s6 =       1.000000
        s8 =       2.811200
        a1 =       0.000000
        a2 =      10.138900


         ---------------------------------------------------------
                                   SCF
               by Justin Turney, Rob Parrish, Andy Simmonett
                          and Daniel G. A. Smith
                              UKS Reference
                       28 Threads, 114440 MiB Core
         ---------------------------------------------------------

  ==> Geometry <==

    Molecular point group: d2h
    Geometry (in Angstrom), charge = 0, multiplicity = 2:

       Center              X                  Y                   Z               Mass       
    ------------   -----------------  -----------------  -----------------  -----------------
         AL           0.000000000000     0.000000000000     0.000000000000    26.981538530000

  Running in d2h symmetry.

  Rotational constants: A = ************  B = ************  C = ************ [cm^-1]
  Rotational constants: A = ************  B = ************  C = ************ [MHz]
  Nuclear repulsion =    0.000000000000000

  Charge       = 0
  Multiplicity = 2
  Electrons    = 13
  Nalpha       = 7
  Nbeta        = 6

  ==> Algorithm <==

  SCF Algorithm Type is DF.
  DIIS enabled.
  MOM disabled.
  Fractional occupation disabled.
  Guess Type is CORE.
  Energy threshold   = 1.00e-06
  Density threshold  = 1.00e-06
  Integral threshold = 1.00e-12

  ==> Primary Basis <==

  Basis Set: DEF2-TZVPPD
    Blend: DEF2-TZVPPD
    Number of shells: 16
    Number of basis functions: 48
    Number of Cartesian functions: 55
    Spherical Harmonics?: true
    Max angular momentum: 3

  ==> DFT Potential <==

   => Composite Functional: M11-D3BJ <= 

    M11 Meta-GGA XC Functional
(10.1021/jz201170d)
    R. Peverati and D. G. Truhlar, J. Phys. Chem. Lett., 2, 2810, 2011


    Deriv               =              1
    GGA                 =           TRUE
    Meta                =           TRUE

    Exchange Hybrid     =           TRUE
    MP2 Hybrid          =          FALSE

   => Exchange Functionals <=

    1.0000   XC_HYB_MGGA_X_M11 [omega = 0.2500]

   => Exact (HF) Exchange <=

    0.5720            HF,LR [omega = 0.2500]
    0.4280               HF 

   => Correlation Functionals <=

    1.0000    XC_MGGA_C_M11

   => LibXC Density Thresholds  <==

    XC_MGGA_C_M11:  1.00E-15 
    XC_HYB_MGGA_X_M11:  1.00E-11 

   => Molecular Quadrature <=

    Radial Scheme          =       TREUTLER
    Pruning Scheme         =           NONE
    Nuclear Scheme         =       TREUTLER

    BS radius alpha        =              1
    Pruning alpha          =              1
    Radial Points          =             75
    Spherical Points       =            302
    Total Points           =          22016
    Total Blocks           =            242
    Max Points             =            245
    Max Functions          =             48
    Weights Tolerance      =       1.00E-15

   => Loading Basis Set <=

    Name: (DEF2-TZVPPD AUX)
    Role: JKFIT
    Keyword: DF_BASIS_SCF
    atoms 1 entry AL         line   654 file /mnt/storage/home/zw18965/.conda/envs/p4env/share/psi4/basis/def2-universal-jkfit.gbs 

  ==> Integral Setup <==

  DFHelper Memory: AOs need 0.005 GiB; user supplied 83.750 GiB. Using in-core AOs.

  ==> MemDFJK: Density-Fitted J/K Matrices <==

    J tasked:                   Yes
    K tasked:                   Yes
    wK tasked:                  Yes
    Omega:                2.500E-01
    OpenMP threads:              28
    Memory [MiB]:             85760
    Algorithm:                 Core
    Schwarz Cutoff:           1E-12
    Mask sparsity (%):       0.0000
    Fitting Condition:        1E-10

   => Auxiliary Basis Set <=

  Basis Set: (DEF2-TZVPPD AUX)
    Blend: DEF2-UNIVERSAL-JKFIT
    Number of shells: 38
    Number of basis functions: 128
    Number of Cartesian functions: 155
    Spherical Harmonics?: true
    Max angular momentum: 4

  Cached 100.0% of DFT collocation blocks in 0.069 [GiB].

  Minimum eigenvalue in the overlap matrix is 2.4089687170E-02.
  Reciprocal condition number of the overlap matrix is 8.2205348864E-03.
    Using symmetric orthogonalization.

  ==> Pre-Iterations <==

  SCF Guess: Core (One-Electron) Hamiltonian.

   -------------------------------------------------------
    Irrep   Nso     Nmo     Nalpha   Nbeta   Ndocc  Nsocc
   -------------------------------------------------------
     Ag        14      14       2       2       2       0
     B1g        4       4       0       0       0       0
     B2g        4       4       0       0       0       0
     B3g        4       4       0       0       0       0
     Au         1       1       0       0       0       0
     B1u        7       7       2       1       1       1
     B2u        7       7       2       2       2       0
     B3u        7       7       1       1       1       0
   -------------------------------------------------------
    Total      48      48       7       6       6       1
   -------------------------------------------------------

  ==> Iterations <==

                           Total Energy        Delta E     RMS |[F,P]|

    Occupation by irrep:
             Ag   B1g   B2g   B3g    Au   B1u   B2u   B3u 
    DOCC [     3,    0,    0,    0,    0,    1,    1,    1 ]
    SOCC [     1,    0,    0,    0,    0,    0,    0,    0 ]

   @DF-UKS iter   1:  -217.13590485002601   -2.17136e+02   6.38132e-01 DIIS
    Occupation by irrep:
             Ag   B1g   B2g   B3g    Au   B1u   B2u   B3u 
    DOCC [     3,    0,    0,    0,    0,    1,    1,    1 ]
    SOCC [     0,    0,    0,    0,    0,    1,    0,    0 ]

   @DF-UKS iter   2:  -206.98016008052593    1.01557e+01   4.33698e-01 DIIS
   @DF-UKS iter   3:  -240.10930629440855   -3.31291e+01   1.95813e-01 DIIS
   @DF-UKS iter   4:  -242.19796727934377   -2.08866e+00   3.44591e-02 DIIS
   @DF-UKS iter   5:  -242.34728354193345   -1.49316e-01   3.19418e-03 DIIS
   @DF-UKS iter   6:  -242.35315074777495   -5.86721e-03   9.50345e-04 DIIS
   @DF-UKS iter   7:  -242.35369330555767   -5.42558e-04   1.66287e-04 DIIS
   @DF-UKS iter   8:  -242.35372469682798   -3.13913e-05   5.11850e-05 DIIS
   @DF-UKS iter   9:  -242.35372755733533   -2.86051e-06   5.13098e-06 DIIS
   @DF-UKS iter  10:  -242.35372756792424   -1.05889e-08   5.61230e-07 DIIS
  Energy and wave function converged.


  ==> Post-Iterations <==

   Electrons on quadrature grid:
      Nalpha   =    6.9999999888 ; deviation = -1.116e-08
      Nbeta    =    5.9999999888 ; deviation = -1.116e-08
      Ntotal   =   12.9999999777 ; deviation = -2.232e-08 

   @Spin Contamination Metric:   5.970464379E-03
   @S^2 Expected:                7.500000000E-01
   @S^2 Observed:                7.559704644E-01
   @S   Expected:                5.000000000E-01
   @S   Observed:                5.000000000E-01

    Orbital Energies [Eh]
    ---------------------

    Alpha Occupied:                                                       

       1Ag   -56.515716     2Ag    -4.294280     1B1u   -2.869306  
       1B2u   -2.869054     1B3u   -2.869054     3Ag    -0.419148  
       2B1u   -0.212851  

    Alpha Virtual:                                                        

       2B3u   -0.007685     2B2u   -0.007685     4Ag     0.030797  
       1B1g    0.080545     5Ag     0.080573     6Ag     0.092173  
       1B3g    0.098727     1B2g    0.098727     3B2u    0.273642  
       3B3u    0.273642     3B1u    0.278201     2B2g    0.283197  
       2B3g    0.283197     7Ag     0.285262     2B1g    0.290121  
       8Ag     0.290131     9Ag     0.334875     4B3u    0.815106  
       4B2u    0.815106     4B1u    0.815238     1Au     0.815239  
       5B3u    0.817888     5B2u    0.817888     5B1u    0.821086  
      10Ag     0.848771     3B2g    0.850959     3B3g    0.850959  
       3B1g    0.858872    11Ag     0.858875     6B1u    1.935125  
       6B3u    1.953053     6B2u    1.953053     4B1g    3.241317  
      12Ag     3.241318    13Ag     3.249875     4B2g    3.250135  
       4B3g    3.250135    14Ag     6.475866     7B1u    9.130112  
       7B3u    9.146357     7B2u    9.146357  

    Beta Occupied:                                                        

       1Ag   -56.514077     2Ag    -4.291215     1B2u   -2.868251  
       1B3u   -2.868251     1B1u   -2.858838     3Ag    -0.383647  

    Beta Virtual:                                                         

       4Ag    -0.006323     2B2u   -0.001870     2B3u   -0.001870  
       2B1u    0.019862     1B3g    0.051316     1B2g    0.051316  
       5Ag     0.054720     1B1g    0.054720     6Ag     0.059167  
       3B2u    0.271159     3B3u    0.271159     7Ag     0.290935  
       2B1g    0.290936     2B3g    0.306144     2B2g    0.306144  
       3B1u    0.312958     8Ag     0.316694     9Ag     0.338823  
       4B3u    0.816210     4B2u    0.816210     4B1u    0.848643  
       1Au     0.848643    10Ag     0.852099     3B1g    0.852099  
       5B2u    0.875507     5B3u    0.875507     5B1u    0.877234  
       3B3g    0.885606     3B2g    0.885606    11Ag     0.888088  
       6B2u    1.952934     6B3u    1.952934     6B1u    1.994488  
      12Ag     3.242975     4B1g    3.242975     4B3g    3.270866  
       4B2g    3.270866    13Ag     3.272039    14Ag     6.482102  
       7B2u    9.140891     7B3u    9.140891     7B1u    9.149434  

    Final Occupation by Irrep:
             Ag   B1g   B2g   B3g    Au   B1u   B2u   B3u 
    DOCC [     3,    0,    0,    0,    0,    1,    1,    1 ]
    SOCC [     0,    0,    0,    0,    0,    1,    0,    0 ]

  @DF-UKS Final Energy:  -242.35372756792424

   => Energetics <=

    Nuclear Repulsion Energy =              0.0000000000000000
    One-Electron Energy =                -336.6529866974084371
    Two-Electron Energy =                 104.1245673436210808
    DFT Exchange-Correlation Energy =      -9.8253082141369106
    Empirical Dispersion Energy =           0.0000000000000000
    VV10 Nonlocal Energy =                  0.0000000000000000
    Total Energy =                       -242.3537275679242384

  UHF NO Occupations:
  HONO-2 :    1B1u 1.9999993
  HONO-1 :    3 Ag 1.9970116
  HONO-0 :    2B1u 1.0000000
  LUNO+0 :    4 Ag 0.0029884
  LUNO+1 :    3B1u 0.0000007
  LUNO+2 :    5 Ag 0.0000004
  LUNO+3 :    2B2u 0.0000001


Computation Completed


Properties will be evaluated at   0.000000,   0.000000,   0.000000 [a0]

Properties computed using the SCF density matrix

  Nuclear Dipole Moment: [e a0]
     X:     0.0000      Y:     0.0000      Z:     0.0000

  Electronic Dipole Moment: [e a0]
     X:     0.0000      Y:     0.0000      Z:     0.0000

  Dipole Moment: [e a0]
     X:     0.0000      Y:     0.0000      Z:     0.0000     Total:     0.0000

  Dipole Moment: [D]
     X:     0.0000      Y:     0.0000      Z:     0.0000     Total:     0.0000


*** tstop() called on compute476.bc4.acrc.priv at Sun Nov  7 05:08:24 2021
Module time:
	user time   =      55.41 seconds =       0.92 minutes
	system time =       2.56 seconds =       0.04 minutes
	total time  =          3 seconds =       0.05 minutes
Total time:
	user time   =      55.41 seconds =       0.92 minutes
	system time =       2.56 seconds =       0.04 minutes
	total time  =          3 seconds =       0.05 minutes

    Psi4 stopped on: Sunday, 07 November 2021 05:08AM
    Psi4 wall time for execution: 0:00:03.58

*** Psi4 exiting successfully. Buy a developer a beer!
