
    -----------------------------------------------------------------------
          Psi4: An Open-Source Ab Initio Electronic Structure Package
                               Psi4 1.4.1 release

                         Git: Rev {HEAD} cd00f19 


    D. G. A. Smith, L. A. Burns, A. C. Simmonett, R. M. Parrish,
    M. C. Schieber, R. Galvelis, P. Kraus, H. Kruse, R. Di Remigio,
    A. Alenaizan, A. M. James, S. Lehtola, J. P. Misiewicz, M. Scheurer,
    R. A. Shaw, J. B. Schriber, Y. Xie, Z. L. Glick, D. A. Sirianni,
    J. S. O'Brien, J. M. Waldrop, A. Kumar, E. G. Hohenstein,
    B. P. Pritchard, B. R. Brooks, H. F. Schaefer III, A. Yu. Sokolov,
    K. Patkowski, A. E. DePrince III, U. Bozkaya, R. A. King,
    F. A. Evangelista, J. M. Turney, T. D. Crawford, C. D. Sherrill,
    J. Chem. Phys. 152(18) 184108 (2020). https://doi.org/10.1063/5.0006002

                            Additional Code Authors
    E. T. Seidl, C. L. Janssen, E. F. Valeev, M. L. Leininger,
    J. F. Gonthier, R. M. Richard, H. R. McAlexander, M. Saitow, X. Wang,
    P. Verma, and M. H. Lechner

             Previous Authors, Complete List of Code Contributors,
                       and Citations for Specific Modules
    https://github.com/psi4/psi4/blob/master/codemeta.json
    https://github.com/psi4/psi4/graphs/contributors
    http://psicode.org/psi4manual/master/introduction.html#citing-psifour

    -----------------------------------------------------------------------


    Psi4 started on: Sunday, 07 November 2021 05:07AM

    Process ID: 20163
    Host:       compute304.bc4.acrc.priv
    PSIDATADIR: /mnt/storage/home/zw18965/.conda/envs/p4env/share/psi4
    Memory:     500.0 MiB
    Threads:    28
    
  ==> Input File <==

--------------------------------------------------------------------------
memory 120 GB

molecule {
0 1
Cl         0.00000        0.00000       -1.07053
Al         0.00000        0.00000        1.07053
 }

set dynamic_level 1
set basis Def2-TZVPPD

energy("M11-D3BJ")
--------------------------------------------------------------------------

  Memory set to 111.759 GiB by Python driver.

Scratch directory: /tmp/

*** tstart() called on compute304.bc4.acrc.priv
*** at Sun Nov  7 05:07:21 2021

   => Loading Basis Set <=

    Name: DEF2-TZVPPD
    Role: ORBITAL
    Keyword: BASIS
    atoms 1 entry CL         line   607 file /mnt/storage/home/zw18965/.conda/envs/p4env/share/psi4/basis/def2-tzvppd.gbs 
    atoms 2 entry AL         line   417 file /mnt/storage/home/zw18965/.conda/envs/p4env/share/psi4/basis/def2-tzvppd.gbs 

   => M11-D3(BJ): Empirical Dispersion <=

    Grimme's -D3 (BJ-damping) Dispersion Correction
    Grimme S.; Ehrlich S.; Goerigk L. (2011), J. Comput. Chem., 32: 1456
    Parametrisation from:    L. Goerigk, J. Phys. Chem. Lett. 6, 3891-3896, 2015

        s6 =       1.000000
        s8 =       2.811200
        a1 =       0.000000
        a2 =      10.138900


         ---------------------------------------------------------
                                   SCF
               by Justin Turney, Rob Parrish, Andy Simmonett
                          and Daniel G. A. Smith
                              RKS Reference
                       28 Threads, 114440 MiB Core
         ---------------------------------------------------------

  ==> Geometry <==

    Molecular point group: c2v
    Full point group: C_inf_v

    Geometry (in Angstrom), charge = 0, multiplicity = 1:

       Center              X                  Y                   Z               Mass       
    ------------   -----------------  -----------------  -----------------  -----------------
         CL           0.000000000000     0.000000000000    -0.932505699397    34.968852682000
         AL           0.000000000000     0.000000000000     1.208554300603    26.981538530000

  Running in c2v symmetry.

  Rotational constants: A = ************  B =      0.24145  C =      0.24145 [cm^-1]
  Rotational constants: A = ************  B =   7238.61508  C =   7238.61508 [MHz]
  Nuclear repulsion =   54.621618991560261

  Charge       = 0
  Multiplicity = 1
  Electrons    = 30
  Nalpha       = 15
  Nbeta        = 15

  ==> Algorithm <==

  SCF Algorithm Type is DF.
  DIIS enabled.
  MOM disabled.
  Fractional occupation disabled.
  Guess Type is SAD.
  Energy threshold   = 1.00e-06
  Density threshold  = 1.00e-06
  Integral threshold = 1.00e-12

  ==> Primary Basis <==

  Basis Set: DEF2-TZVPPD
    Blend: DEF2-TZVPPD
    Number of shells: 33
    Number of basis functions: 99
    Number of Cartesian functions: 113
    Spherical Harmonics?: true
    Max angular momentum: 3

  ==> DFT Potential <==

   => Composite Functional: M11-D3BJ <= 

    M11 Meta-GGA XC Functional
(10.1021/jz201170d)
    R. Peverati and D. G. Truhlar, J. Phys. Chem. Lett., 2, 2810, 2011


    Deriv               =              1
    GGA                 =           TRUE
    Meta                =           TRUE

    Exchange Hybrid     =           TRUE
    MP2 Hybrid          =          FALSE

   => Exchange Functionals <=

    1.0000   XC_HYB_MGGA_X_M11 [omega = 0.2500]

   => Exact (HF) Exchange <=

    0.5720            HF,LR [omega = 0.2500]
    0.4280               HF 

   => Correlation Functionals <=

    1.0000    XC_MGGA_C_M11

   => LibXC Density Thresholds  <==

    XC_MGGA_C_M11:  1.00E-15 
    XC_HYB_MGGA_X_M11:  1.00E-11 

   => Molecular Quadrature <=

    Radial Scheme          =       TREUTLER
    Pruning Scheme         =           NONE
    Nuclear Scheme         =       TREUTLER

    BS radius alpha        =              1
    Pruning alpha          =              1
    Radial Points          =             75
    Spherical Points       =            302
    Total Points           =          44074
    Total Blocks           =            428
    Max Points             =            255
    Max Functions          =             98
    Weights Tolerance      =       1.00E-15

   => Loading Basis Set <=

    Name: (DEF2-TZVPPD AUX)
    Role: JKFIT
    Keyword: DF_BASIS_SCF
    atoms 1 entry CL         line   986 file /mnt/storage/home/zw18965/.conda/envs/p4env/share/psi4/basis/def2-universal-jkfit.gbs 
    atoms 2 entry AL         line   654 file /mnt/storage/home/zw18965/.conda/envs/p4env/share/psi4/basis/def2-universal-jkfit.gbs 

  ==> Integral Setup <==

  DFHelper Memory: AOs need 0.041 GiB; user supplied 83.564 GiB. Using in-core AOs.

  ==> MemDFJK: Density-Fitted J/K Matrices <==

    J tasked:                   Yes
    K tasked:                   Yes
    wK tasked:                  Yes
    Omega:                2.500E-01
    OpenMP threads:              28
    Memory [MiB]:             85569
    Algorithm:                 Core
    Schwarz Cutoff:           1E-12
    Mask sparsity (%):       1.3672
    Fitting Condition:        1E-10

   => Auxiliary Basis Set <=

  Basis Set: (DEF2-TZVPPD AUX)
    Blend: DEF2-UNIVERSAL-JKFIT
    Number of shells: 76
    Number of basis functions: 256
    Number of Cartesian functions: 310
    Spherical Harmonics?: true
    Max angular momentum: 4

  Cached 100.0% of DFT collocation blocks in 0.255 [GiB].

  Minimum eigenvalue in the overlap matrix is 1.5138583548E-03.
  Reciprocal condition number of the overlap matrix is 3.2671110224E-04.
    Using symmetric orthogonalization.

  ==> Pre-Iterations <==

  SCF Guess: Superposition of Atomic Densities via on-the-fly atomic UHF (no occupation information).

   -------------------------
    Irrep   Nso     Nmo    
   -------------------------
     A1        43      43 
     A2        10      10 
     B1        23      23 
     B2        23      23 
   -------------------------
    Total      99      99
   -------------------------

  ==> Iterations <==

                           Total Energy        Delta E     RMS |[F,P]|

   @DF-RKS iter SAD:  -702.15175360315504   -7.02152e+02   0.00000e+00 
   @DF-RKS iter   1:  -702.65079986484443   -4.99046e-01   6.20701e-03 DIIS
   @DF-RKS iter   2:  -702.66745713129455   -1.66573e-02   4.00915e-03 DIIS
   @DF-RKS iter   3:  -702.68047426970156   -1.30171e-02   3.70747e-04 DIIS
   @DF-RKS iter   4:  -702.68064568762384   -1.71418e-04   9.93198e-05 DIIS
   @DF-RKS iter   5:  -702.68068094717864   -3.52596e-05   2.12832e-05 DIIS
   @DF-RKS iter   6:  -702.68068330035237   -2.35317e-06   6.58850e-06 DIIS
   @DF-RKS iter   7:  -702.68068343068489   -1.30333e-07   1.89560e-06 DIIS
   @DF-RKS iter   8:  -702.68068343738503   -6.70013e-09   2.98397e-07 DIIS
  Energy and wave function converged.


  ==> Post-Iterations <==

   Electrons on quadrature grid:
      Ntotal   =   30.0000007306 ; deviation = 7.306e-07 

    Orbital Energies [Eh]
    ---------------------

    Doubly Occupied:                                                      

       1A1  -102.085611     2A1   -56.529561     3A1    -9.604021  
       4A1    -7.392856     1B1    -7.391778     1B2    -7.391778  
       5A1    -4.306786     2B2    -2.882664     2B1    -2.882664  
       6A1    -2.879927     7A1    -0.927897     8A1    -0.511024  
       3B1    -0.433507     3B2    -0.433507     9A1    -0.335003  

    Virtual:                                                              

       4B2     0.000719     4B1     0.000719    10A1     0.010884  
      11A1     0.035717     5B1     0.049439     5B2     0.049439  
      12A1     0.059801     1A2     0.071171    13A1     0.071171  
       6B2     0.100126     6B1     0.100126    14A1     0.141366  
      15A1     0.220999    16A1     0.250082     2A2     0.250084  
      17A1     0.256783     7B1     0.268819     7B2     0.268819  
       8B1     0.299210     8B2     0.299210    18A1     0.301794  
       3A2     0.301816    19A1     0.315943     9B1     0.394685  
       9B2     0.394685    20A1     0.413385    21A1     0.478516  
      10B1     0.605249    10B2     0.605249    22A1     0.619678  
      11B1     0.667646    11B2     0.667646     4A2     0.683445  
      23A1     0.683505    12B1     0.797472    12B2     0.797472  
      24A1     0.819029     5A2     0.829739    25A1     0.829760  
       6A2     0.866283    26A1     0.866374    13B1     0.875488  
      13B2     0.875488    27A1     0.898508    14B1     1.056323  
      14B2     1.056323    28A1     1.117474    29A1     1.170110  
      30A1     1.941332     7A2     1.942014    15B2     1.963872  
      15B1     1.963872    16B2     2.005507    16B1     2.005507  
      31A1     2.019014    17B1     2.163234    17B2     2.163234  
       8A2     2.204280    32A1     2.204848    33A1     2.294949  
      18B2     2.349612    18B1     2.349612    19B1     2.404481  
      19B2     2.404481    34A1     2.464448    35A1     2.759143  
      36A1     3.230105     9A2     3.230135    20B1     3.316161  
      20B2     3.316161    37A1     3.530926    38A1     7.096284  
      39A1     8.242060    10A2     8.242246    21B1     8.296606  
      21B2     8.296606    40A1     8.384662    22B1     9.178591  
      22B2     9.178591    41A1     9.466596    23B1    10.766998  
      23B2    10.766998    42A1    11.126440    43A1    24.850999  

    Final Occupation by Irrep:
             A1    A2    B1    B2 
    DOCC [     9,    0,    3,    3 ]

  @DF-RKS Final Energy:  -702.68068343738503

   => Energetics <=

    Nuclear Repulsion Energy =             54.6216189915602612
    One-Electron Energy =               -1081.6159304207496916
    Two-Electron Energy =                 349.3092997127065473
    DFT Exchange-Correlation Energy =     -24.9952252609021883
    Empirical Dispersion Energy =          -0.0004464600000000
    VV10 Nonlocal Energy =                  0.0000000000000000
    Total Energy =                       -702.6806834373850279

Computation Completed


Properties will be evaluated at   0.000000,   0.000000,   0.000000 [a0]

Properties computed using the SCF density matrix

  Nuclear Dipole Moment: [e a0]
     X:     0.0000      Y:     0.0000      Z:    -0.2672

  Electronic Dipole Moment: [e a0]
     X:     0.0000      Y:     0.0000      Z:     0.8894

  Dipole Moment: [e a0]
     X:     0.0000      Y:     0.0000      Z:     0.6223     Total:     0.6223

  Dipole Moment: [D]
     X:     0.0000      Y:     0.0000      Z:     1.5816     Total:     1.5816


*** tstop() called on compute304.bc4.acrc.priv at Sun Nov  7 05:07:23 2021
Module time:
	user time   =      26.11 seconds =       0.44 minutes
	system time =       1.50 seconds =       0.03 minutes
	total time  =          2 seconds =       0.03 minutes
Total time:
	user time   =      26.11 seconds =       0.44 minutes
	system time =       1.50 seconds =       0.03 minutes
	total time  =          2 seconds =       0.03 minutes

    Psi4 stopped on: Sunday, 07 November 2021 05:07AM
    Psi4 wall time for execution: 0:00:02.70

*** Psi4 exiting successfully. Buy a developer a beer!
