
    -----------------------------------------------------------------------
          Psi4: An Open-Source Ab Initio Electronic Structure Package
                               Psi4 1.4.1 release

                         Git: Rev {HEAD} cd00f19 


    D. G. A. Smith, L. A. Burns, A. C. Simmonett, R. M. Parrish,
    M. C. Schieber, R. Galvelis, P. Kraus, H. Kruse, R. Di Remigio,
    A. Alenaizan, A. M. James, S. Lehtola, J. P. Misiewicz, M. Scheurer,
    R. A. Shaw, J. B. Schriber, Y. Xie, Z. L. Glick, D. A. Sirianni,
    J. S. O'Brien, J. M. Waldrop, A. Kumar, E. G. Hohenstein,
    B. P. Pritchard, B. R. Brooks, H. F. Schaefer III, A. Yu. Sokolov,
    K. Patkowski, A. E. DePrince III, U. Bozkaya, R. A. King,
    F. A. Evangelista, J. M. Turney, T. D. Crawford, C. D. Sherrill,
    J. Chem. Phys. 152(18) 184108 (2020). https://doi.org/10.1063/5.0006002

                            Additional Code Authors
    E. T. Seidl, C. L. Janssen, E. F. Valeev, M. L. Leininger,
    J. F. Gonthier, R. M. Richard, H. R. McAlexander, M. Saitow, X. Wang,
    P. Verma, and M. H. Lechner

             Previous Authors, Complete List of Code Contributors,
                       and Citations for Specific Modules
    https://github.com/psi4/psi4/blob/master/codemeta.json
    https://github.com/psi4/psi4/graphs/contributors
    http://psicode.org/psi4manual/master/introduction.html#citing-psifour

    -----------------------------------------------------------------------


    Psi4 started on: Sunday, 07 November 2021 05:07AM

    Process ID: 27962
    Host:       compute424.bc4.acrc.priv
    PSIDATADIR: /mnt/storage/home/zw18965/.conda/envs/p4env/share/psi4
    Memory:     500.0 MiB
    Threads:    28
    
  ==> Input File <==

--------------------------------------------------------------------------
memory 120 GB

molecule {
0 2
C          0.00000        0.00000        0.00000
H          0.00000        0.00000        1.07732
H          0.93298        0.00000       -0.53866
H         -0.93298        0.00000       -0.53866
 }

set reference uks
set dynamic_level 1
set basis Def2-TZVPPD

energy("M11-D3BJ")
--------------------------------------------------------------------------

  Memory set to 111.759 GiB by Python driver.

Scratch directory: /tmp/

*** tstart() called on compute424.bc4.acrc.priv
*** at Sun Nov  7 05:07:21 2021

   => Loading Basis Set <=

    Name: DEF2-TZVPPD
    Role: ORBITAL
    Keyword: BASIS
    atoms 1   entry C          line   144 file /mnt/storage/home/zw18965/.conda/envs/p4env/share/psi4/basis/def2-tzvppd.gbs 
    atoms 2-4 entry H          line    14 file /mnt/storage/home/zw18965/.conda/envs/p4env/share/psi4/basis/def2-tzvppd.gbs 

   => M11-D3(BJ): Empirical Dispersion <=

    Grimme's -D3 (BJ-damping) Dispersion Correction
    Grimme S.; Ehrlich S.; Goerigk L. (2011), J. Comput. Chem., 32: 1456
    Parametrisation from:    L. Goerigk, J. Phys. Chem. Lett. 6, 3891-3896, 2015

        s6 =       1.000000
        s8 =       2.811200
        a1 =       0.000000
        a2 =      10.138900


         ---------------------------------------------------------
                                   SCF
               by Justin Turney, Rob Parrish, Andy Simmonett
                          and Daniel G. A. Smith
                              UKS Reference
                       28 Threads, 114440 MiB Core
         ---------------------------------------------------------

  ==> Geometry <==

    Molecular point group: c2v
    Full point group: C2v

    Geometry (in Angstrom), charge = 0, multiplicity = 2:

       Center              X                  Y                   Z               Mass       
    ------------   -----------------  -----------------  -----------------  -----------------
         C            0.000000000000    -0.000000000000     0.000000000000    12.000000000000
         H            0.000000000000    -0.000000000000     1.077320000000     1.007825032230
         H            0.932980000000     0.000000000000    -0.538660000000     1.007825032230
         H           -0.932980000000    -0.000000000000    -0.538660000000     1.007825032230

  Running in c2v symmetry.

  Rotational constants: A =      9.60808  B =      9.60795  C =      4.80401 [cm^-1]
  Rotational constants: A = 288043.04579  B = 288039.03969  C = 144020.52137 [MHz]
  Nuclear repulsion =    9.692373587579699

  Charge       = 0
  Multiplicity = 2
  Electrons    = 9
  Nalpha       = 5
  Nbeta        = 4

  ==> Algorithm <==

  SCF Algorithm Type is DF.
  DIIS enabled.
  MOM disabled.
  Fractional occupation disabled.
  Guess Type is SAD.
  Energy threshold   = 1.00e-06
  Density threshold  = 1.00e-06
  Integral threshold = 1.00e-12

  ==> Primary Basis <==

  Basis Set: DEF2-TZVPPD
    Blend: DEF2-TZVPPD
    Number of shells: 34
    Number of basis functions: 88
    Number of Cartesian functions: 97
    Spherical Harmonics?: true
    Max angular momentum: 3

  ==> DFT Potential <==

   => Composite Functional: M11-D3BJ <= 

    M11 Meta-GGA XC Functional
(10.1021/jz201170d)
    R. Peverati and D. G. Truhlar, J. Phys. Chem. Lett., 2, 2810, 2011


    Deriv               =              1
    GGA                 =           TRUE
    Meta                =           TRUE

    Exchange Hybrid     =           TRUE
    MP2 Hybrid          =          FALSE

   => Exchange Functionals <=

    1.0000   XC_HYB_MGGA_X_M11 [omega = 0.2500]

   => Exact (HF) Exchange <=

    0.5720            HF,LR [omega = 0.2500]
    0.4280               HF 

   => Correlation Functionals <=

    1.0000    XC_MGGA_C_M11

   => LibXC Density Thresholds  <==

    XC_MGGA_C_M11:  1.00E-15 
    XC_HYB_MGGA_X_M11:  1.00E-11 

   => Molecular Quadrature <=

    Radial Scheme          =       TREUTLER
    Pruning Scheme         =           NONE
    Nuclear Scheme         =       TREUTLER

    BS radius alpha        =              1
    Pruning alpha          =              1
    Radial Points          =             75
    Spherical Points       =            302
    Total Points           =          88580
    Total Blocks           =            722
    Max Points             =            256
    Max Functions          =             88
    Weights Tolerance      =       1.00E-15

   => Loading Basis Set <=

    Name: (DEF2-TZVPPD AUX)
    Role: JKFIT
    Keyword: DF_BASIS_SCF
    atoms 1   entry C          line   198 file /mnt/storage/home/zw18965/.conda/envs/p4env/share/psi4/basis/def2-universal-jkfit.gbs 
    atoms 2-4 entry H          line    18 file /mnt/storage/home/zw18965/.conda/envs/p4env/share/psi4/basis/def2-universal-jkfit.gbs 

  ==> Integral Setup <==

  DFHelper Memory: AOs need 0.018 GiB; user supplied 83.268 GiB. Using in-core AOs.

  ==> MemDFJK: Density-Fitted J/K Matrices <==

    J tasked:                   Yes
    K tasked:                   Yes
    wK tasked:                  Yes
    Omega:                2.500E-01
    OpenMP threads:              28
    Memory [MiB]:             85266
    Algorithm:                 Core
    Schwarz Cutoff:           1E-12
    Mask sparsity (%):       0.0000
    Fitting Condition:        1E-10

   => Auxiliary Basis Set <=

  Basis Set: (DEF2-TZVPPD AUX)
    Blend: DEF2-UNIVERSAL-JKFIT
    Number of shells: 43
    Number of basis functions: 129
    Number of Cartesian functions: 149
    Spherical Harmonics?: true
    Max angular momentum: 4

  Cached 100.0% of DFT collocation blocks in 0.551 [GiB].

  Minimum eigenvalue in the overlap matrix is 6.3181553827E-05.
  Reciprocal condition number of the overlap matrix is 8.9107266358E-06.
    Using symmetric orthogonalization.

  ==> Pre-Iterations <==

  SCF Guess: Superposition of Atomic Densities via on-the-fly atomic UHF (no occupation information).

   -------------------------
    Irrep   Nso     Nmo    
   -------------------------
     A1        37      37 
     A2        10      10 
     B1        24      24 
     B2        17      17 
   -------------------------
    Total      88      88
   -------------------------

  ==> Iterations <==

                           Total Energy        Delta E     RMS |[F,P]|

   @DF-UKS iter SAD:   -39.23091880274816   -3.92309e+01   0.00000e+00 
   @DF-UKS iter   1:   -39.75162581571584   -5.20707e-01   7.96630e-03 DIIS
   @DF-UKS iter   2:   -39.79730887139515   -4.56831e-02   4.61381e-03 DIIS
   @DF-UKS iter   3:   -39.82066615121454   -2.33573e-02   3.63974e-04 DIIS
   @DF-UKS iter   4:   -39.82089080469623   -2.24653e-04   5.47261e-05 DIIS
   @DF-UKS iter   5:   -39.82089778764022   -6.98294e-06   1.25908e-05 DIIS
   @DF-UKS iter   6:   -39.82089824434209   -4.56702e-07   2.53365e-06 DIIS
   @DF-UKS iter   7:   -39.82089826703724   -2.26951e-08   4.87308e-07 DIIS
  Energy and wave function converged.


  ==> Post-Iterations <==

   Electrons on quadrature grid:
      Nalpha   =    5.0000004875 ; deviation = 4.875e-07
      Nbeta    =    3.9999998400 ; deviation = -1.600e-07
      Ntotal   =    9.0000003275 ; deviation = 3.275e-07 

   @Spin Contamination Metric:   2.590835847E-03
   @S^2 Expected:                7.500000000E-01
   @S^2 Observed:                7.525908358E-01
   @S   Expected:                5.000000000E-01
   @S   Observed:                5.000000000E-01

    Orbital Energies [Eh]
    ---------------------

    Alpha Occupied:                                                       

       1A1   -10.438092     2A1    -0.824603     1B1    -0.539701  
       3A1    -0.539658     1B2    -0.332357  

    Alpha Virtual:                                                        

       4A1     0.034478     2B1     0.107106     5A1     0.107111  
       6A1     0.161638     7A1     0.163372     3B1     0.163380  
       2B2     0.205632     3B2     0.235867     1A2     0.235869  
       8A1     0.288038     4B1     0.306167     9A1     0.322274  
       4B2     0.346645     2A2     0.346646    10A1     0.351410  
       5B1     0.351422    11A1     0.421229     6B1     0.421235  
       5B2     0.467034    12A1     0.485119    13A1     0.493660  
       7B1     0.493665    14A1     0.752851    15A1     0.783041  
       8B1     0.783116     6B2     0.807877     3A2     0.807900  
      16A1     0.955695     9B1     0.955729     7B2     1.046772  
      10B1     1.052099    17A1     1.064413     4A2     1.273492  
       8B2     1.273516    18A1     1.456067    19A1     1.482472  
      11B1     1.482499    20A1     1.510059    12B1     1.510061  
       9B2     1.662652    21A1     1.783638    22A1     1.846821  
      13B1     1.846840    14B1     2.663096    23A1     2.663147  
      24A1     2.740005     5A2     2.822604    10B2     2.823321  
      11B2     2.989763    25A1     3.056676    15B1     3.057299  
      26A1     3.067811    12B2     3.102756     6A2     3.103095  
      16B1     3.153663     7A2     3.289596    27A1     3.552299  
      17B1     3.552433    28A1     3.620806    18B1     3.764502  
      29A1     3.765013     8A2     3.770640    13B2     3.770827  
      14B2     4.014480    30A1     4.016252    19B1     4.018038  
      31A1     4.078662    20B1     4.078689    15B2     4.210004  
       9A2     4.210558    16B2     4.637236    21B1     4.774075  
      32A1     4.774914    17B2     5.012170    22B1     5.012181  
      33A1     5.012301    10A2     5.012699    34A1     5.561267  
      35A1     5.580766    23B1     5.580768    36A1     5.717013  
      24B1     6.253359    37A1    23.378124  

    Beta Occupied:                                                        

       1A1   -10.421333     2A1    -0.773999     1B1    -0.520681  
       3A1    -0.520643  

    Beta Virtual:                                                         

       1B2     0.008888     4A1     0.011402     2B1     0.104484  
       5A1     0.104487     6A1     0.126555     7A1     0.158237  
       3B1     0.158246     2B2     0.205521     3B2     0.218683  
       1A2     0.218686     8A1     0.281355     4B1     0.302185  
       4B2     0.320522     2A2     0.320523     9A1     0.324889  
      10A1     0.344130     5B1     0.344141    11A1     0.408608  
       6B1     0.408618     5B2     0.477106    12A1     0.487693  
       7B1     0.487699    13A1     0.493534    14A1     0.743084  
      15A1     0.760087     8B1     0.760169     6B2     0.817749  
       3A2     0.817785    16A1     0.944712     9B1     0.944734  
      10B1     1.041800     7B2     1.061485    17A1     1.102397  
       4A2     1.295502     8B2     1.295534    18A1     1.447700  
      19A1     1.481623    11B1     1.481651    12B1     1.511475  
      20A1     1.511494     9B2     1.763631    21A1     1.771120  
      13B1     1.838287    22A1     1.838303    14B1     2.599226  
      23A1     2.599270    24A1     2.684436     5A2     2.767055  
      10B2     2.767861    25A1     2.949461    15B1     2.950270  
      16B1     2.986700    11B2     3.026432    12B2     3.125930  
       6A2     3.126270    26A1     3.147076     7A2     3.246660  
      27A1     3.525057    17B1     3.525182    28A1     3.574118  
       8A2     3.732313    13B2     3.732901    18B1     3.758486  
      29A1     3.759781    14B2     3.967026    30A1     3.970185  
      19B1     3.974961    31A1     3.997261    20B1     3.997708  
      15B2     4.188077     9A2     4.188846    16B2     4.599389  
      21B1     4.633830    32A1     4.634952    22B1     4.918163  
      33A1     4.918349    17B2     4.979119    10A2     4.980020  
      34A1     5.307035    23B1     5.307232    35A1     5.308603  
      36A1     5.567457    24B1     6.070292    37A1    23.349914  

    Final Occupation by Irrep:
             A1    A2    B1    B2 
    DOCC [     3,    0,    1,    0 ]
    SOCC [     0,    0,    0,    1 ]

  @DF-UKS Final Energy:   -39.82089826703724

   => Energetics <=

    Nuclear Repulsion Energy =              9.6923735875796986
    One-Electron Energy =                 -71.6914055814061726
    Two-Electron Energy =                  25.3005011783647404
    DFT Exchange-Correlation Energy =      -3.1223189415755064
    Empirical Dispersion Energy =          -0.0000485100000000
    VV10 Nonlocal Energy =                  0.0000000000000000
    Total Energy =                        -39.8208982670372436

  UHF NO Occupations:
  HONO-2 :    1 B1 1.9997220
  HONO-1 :    3 A1 1.9992617
  HONO-0 :    1 B2 1.0000000
  LUNO+0 :    4 A1 0.0007383
  LUNO+1 :    2 B1 0.0002780
  LUNO+2 :    5 A1 0.0002778
  LUNO+3 :    6 A1 0.0000016


Computation Completed


Properties will be evaluated at   0.000000,   0.000000,   0.000000 [a0]

Properties computed using the SCF density matrix

  Nuclear Dipole Moment: [e a0]
     X:     0.0000      Y:     0.0000      Z:     0.0000

  Electronic Dipole Moment: [e a0]
     X:     0.0000      Y:     0.0000      Z:    -0.0001

  Dipole Moment: [e a0]
     X:     0.0000      Y:     0.0000      Z:    -0.0001     Total:     0.0001

  Dipole Moment: [D]
     X:     0.0000      Y:     0.0000      Z:    -0.0003     Total:     0.0003


*** tstop() called on compute424.bc4.acrc.priv at Sun Nov  7 05:07:31 2021
Module time:
	user time   =     222.40 seconds =       3.71 minutes
	system time =      13.69 seconds =       0.23 minutes
	total time  =         10 seconds =       0.17 minutes
Total time:
	user time   =     222.40 seconds =       3.71 minutes
	system time =      13.69 seconds =       0.23 minutes
	total time  =         10 seconds =       0.17 minutes

    Psi4 stopped on: Sunday, 07 November 2021 05:07AM
    Psi4 wall time for execution: 0:00:10.44

*** Psi4 exiting successfully. Buy a developer a beer!
