
    -----------------------------------------------------------------------
          Psi4: An Open-Source Ab Initio Electronic Structure Package
                               Psi4 1.4.1 release

                         Git: Rev {HEAD} cd00f19 


    D. G. A. Smith, L. A. Burns, A. C. Simmonett, R. M. Parrish,
    M. C. Schieber, R. Galvelis, P. Kraus, H. Kruse, R. Di Remigio,
    A. Alenaizan, A. M. James, S. Lehtola, J. P. Misiewicz, M. Scheurer,
    R. A. Shaw, J. B. Schriber, Y. Xie, Z. L. Glick, D. A. Sirianni,
    J. S. O'Brien, J. M. Waldrop, A. Kumar, E. G. Hohenstein,
    B. P. Pritchard, B. R. Brooks, H. F. Schaefer III, A. Yu. Sokolov,
    K. Patkowski, A. E. DePrince III, U. Bozkaya, R. A. King,
    F. A. Evangelista, J. M. Turney, T. D. Crawford, C. D. Sherrill,
    J. Chem. Phys. 152(18) 184108 (2020). https://doi.org/10.1063/5.0006002

                            Additional Code Authors
    E. T. Seidl, C. L. Janssen, E. F. Valeev, M. L. Leininger,
    J. F. Gonthier, R. M. Richard, H. R. McAlexander, M. Saitow, X. Wang,
    P. Verma, and M. H. Lechner

             Previous Authors, Complete List of Code Contributors,
                       and Citations for Specific Modules
    https://github.com/psi4/psi4/blob/master/codemeta.json
    https://github.com/psi4/psi4/graphs/contributors
    http://psicode.org/psi4manual/master/introduction.html#citing-psifour

    -----------------------------------------------------------------------


    Psi4 started on: Sunday, 07 November 2021 05:08AM

    Process ID: 2509
    Host:       compute348.bc4.acrc.priv
    PSIDATADIR: /mnt/storage/home/zw18965/.conda/envs/p4env/share/psi4
    Memory:     500.0 MiB
    Threads:    28
    
  ==> Input File <==

--------------------------------------------------------------------------
memory 120 GB

molecule {
0 2
Cl         0.00000        0.00000        0.00000
 }

set reference uks
set dynamic_level 1
set basis Def2-TZVPPD

energy("M11-D3BJ")
--------------------------------------------------------------------------

  Memory set to 111.759 GiB by Python driver.

Scratch directory: /tmp/

*** tstart() called on compute348.bc4.acrc.priv
*** at Sun Nov  7 05:08:21 2021

   => Loading Basis Set <=

    Name: DEF2-TZVPPD
    Role: ORBITAL
    Keyword: BASIS
    atoms 1 entry CL         line   607 file /mnt/storage/home/zw18965/.conda/envs/p4env/share/psi4/basis/def2-tzvppd.gbs 

   => M11-D3(BJ): Empirical Dispersion <=

    Grimme's -D3 (BJ-damping) Dispersion Correction
    Grimme S.; Ehrlich S.; Goerigk L. (2011), J. Comput. Chem., 32: 1456
    Parametrisation from:    L. Goerigk, J. Phys. Chem. Lett. 6, 3891-3896, 2015

        s6 =       1.000000
        s8 =       2.811200
        a1 =       0.000000
        a2 =      10.138900


         ---------------------------------------------------------
                                   SCF
               by Justin Turney, Rob Parrish, Andy Simmonett
                          and Daniel G. A. Smith
                              UKS Reference
                       28 Threads, 114440 MiB Core
         ---------------------------------------------------------

  ==> Geometry <==

    Molecular point group: d2h
    Geometry (in Angstrom), charge = 0, multiplicity = 2:

       Center              X                  Y                   Z               Mass       
    ------------   -----------------  -----------------  -----------------  -----------------
         CL           0.000000000000     0.000000000000     0.000000000000    34.968852682000

  Running in d2h symmetry.

  Rotational constants: A = ************  B = ************  C = ************ [cm^-1]
  Rotational constants: A = ************  B = ************  C = ************ [MHz]
  Nuclear repulsion =    0.000000000000000

  Charge       = 0
  Multiplicity = 2
  Electrons    = 17
  Nalpha       = 9
  Nbeta        = 8

  ==> Algorithm <==

  SCF Algorithm Type is DF.
  DIIS enabled.
  MOM disabled.
  Fractional occupation disabled.
  Guess Type is CORE.
  Energy threshold   = 1.00e-06
  Density threshold  = 1.00e-06
  Integral threshold = 1.00e-12

  ==> Primary Basis <==

  Basis Set: DEF2-TZVPPD
    Blend: DEF2-TZVPPD
    Number of shells: 17
    Number of basis functions: 51
    Number of Cartesian functions: 58
    Spherical Harmonics?: true
    Max angular momentum: 3

  ==> DFT Potential <==

   => Composite Functional: M11-D3BJ <= 

    M11 Meta-GGA XC Functional
(10.1021/jz201170d)
    R. Peverati and D. G. Truhlar, J. Phys. Chem. Lett., 2, 2810, 2011


    Deriv               =              1
    GGA                 =           TRUE
    Meta                =           TRUE

    Exchange Hybrid     =           TRUE
    MP2 Hybrid          =          FALSE

   => Exchange Functionals <=

    1.0000   XC_HYB_MGGA_X_M11 [omega = 0.2500]

   => Exact (HF) Exchange <=

    0.5720            HF,LR [omega = 0.2500]
    0.4280               HF 

   => Correlation Functionals <=

    1.0000    XC_MGGA_C_M11

   => LibXC Density Thresholds  <==

    XC_MGGA_C_M11:  1.00E-15 
    XC_HYB_MGGA_X_M11:  1.00E-11 

   => Molecular Quadrature <=

    Radial Scheme          =       TREUTLER
    Pruning Scheme         =           NONE
    Nuclear Scheme         =       TREUTLER

    BS radius alpha        =              1
    Pruning alpha          =              1
    Radial Points          =             75
    Spherical Points       =            302
    Total Points           =          22046
    Total Blocks           =            238
    Max Points             =            249
    Max Functions          =             51
    Weights Tolerance      =       1.00E-15

   => Loading Basis Set <=

    Name: (DEF2-TZVPPD AUX)
    Role: JKFIT
    Keyword: DF_BASIS_SCF
    atoms 1 entry CL         line   986 file /mnt/storage/home/zw18965/.conda/envs/p4env/share/psi4/basis/def2-universal-jkfit.gbs 

  ==> Integral Setup <==

  DFHelper Memory: AOs need 0.006 GiB; user supplied 83.748 GiB. Using in-core AOs.

  ==> MemDFJK: Density-Fitted J/K Matrices <==

    J tasked:                   Yes
    K tasked:                   Yes
    wK tasked:                  Yes
    Omega:                2.500E-01
    OpenMP threads:              28
    Memory [MiB]:             85758
    Algorithm:                 Core
    Schwarz Cutoff:           1E-12
    Mask sparsity (%):       0.0000
    Fitting Condition:        1E-10

   => Auxiliary Basis Set <=

  Basis Set: (DEF2-TZVPPD AUX)
    Blend: DEF2-UNIVERSAL-JKFIT
    Number of shells: 38
    Number of basis functions: 128
    Number of Cartesian functions: 155
    Spherical Harmonics?: true
    Max angular momentum: 4

  Cached 100.0% of DFT collocation blocks in 0.071 [GiB].

  Minimum eigenvalue in the overlap matrix is 3.1418479739E-02.
  Reciprocal condition number of the overlap matrix is 1.0671479415E-02.
    Using symmetric orthogonalization.

  ==> Pre-Iterations <==

  SCF Guess: Core (One-Electron) Hamiltonian.

   -------------------------------------------------------
    Irrep   Nso     Nmo     Nalpha   Nbeta   Ndocc  Nsocc
   -------------------------------------------------------
     Ag        14      14       2       2       2       0
     B1g        4       4       0       0       0       0
     B2g        4       4       1       0       0       1
     B3g        4       4       0       0       0       0
     Au         1       1       0       0       0       0
     B1u        8       8       2       2       2       0
     B2u        8       8       2       2       2       0
     B3u        8       8       2       2       2       0
   -------------------------------------------------------
    Total      51      51       9       8       8       1
   -------------------------------------------------------

  ==> Iterations <==

                           Total Energy        Delta E     RMS |[F,P]|

    Occupation by irrep:
             Ag   B1g   B2g   B3g    Au   B1u   B2u   B3u 
    DOCC [     3,    0,    0,    0,    0,    2,    1,    2 ]
    SOCC [     0,    0,    0,    0,    0,    0,    1,    0 ]

   @DF-UKS iter   1:  -413.00257434952880   -4.13003e+02   8.61417e-01 DIIS
    Occupation by irrep:
             Ag   B1g   B2g   B3g    Au   B1u   B2u   B3u 
    DOCC [     3,    0,    0,    0,    0,    2,    2,    1 ]
    SOCC [     0,    0,    0,    0,    0,    0,    0,    1 ]

   @DF-UKS iter   2:  -440.80942288451575   -2.78068e+01   5.75807e-01 DIIS
   @DF-UKS iter   3:  -459.50303139574453   -1.86936e+01   8.55322e-02 DIIS
   @DF-UKS iter   4:  -460.13083037169116   -6.27799e-01   6.64668e-03 DIIS
   @DF-UKS iter   5:  -460.13609606605598   -5.26569e-03   5.71875e-04 DIIS
   @DF-UKS iter   6:  -460.13618596682886   -8.99008e-05   1.25756e-04 DIIS
   @DF-UKS iter   7:  -460.13619031850942   -4.35168e-06   1.70180e-05 DIIS
   @DF-UKS iter   8:  -460.13619043555735   -1.17048e-07   2.22874e-06 DIIS
   @DF-UKS iter   9:  -460.13619043851861   -2.96126e-09   2.55391e-07 DIIS
  Energy and wave function converged.


  ==> Post-Iterations <==

   Electrons on quadrature grid:
      Nalpha   =    8.9999999971 ; deviation = -2.884e-09
      Nbeta    =    7.9999999971 ; deviation = -2.884e-09
      Ntotal   =   16.9999999942 ; deviation = -5.767e-09 

   @Spin Contamination Metric:   2.969001885E-03
   @S^2 Expected:                7.500000000E-01
   @S^2 Observed:                7.529690019E-01
   @S   Expected:                5.000000000E-01
   @S   Observed:                5.000000000E-01

    Orbital Energies [Eh]
    ---------------------

    Alpha Occupied:                                                       

       1Ag  -102.159251     2Ag    -9.674076     1B3u   -7.477967  
       1B1u   -7.455877     1B2u   -7.455877     3Ag    -0.975479  
       2B3u   -0.519074     2B1u   -0.463480     2B2u   -0.463480  

    Alpha Virtual:                                                        

       3B1u    0.045274     3B2u    0.045274     3B3u    0.046624  
       4Ag     0.109725     5Ag     0.222943     1B2g    0.228521  
       1B1g    0.228521     6Ag     0.239753     1B3g    0.239753  
       4B3u    0.507655     4B1u    0.530864     4B2u    0.530865  
       7Ag     0.601728     2B2g    0.614256     2B1g    0.614257  
       8Ag     0.647943     2B3g    0.647943     9Ag     0.822485  
      10Ag     1.870624     3B2g    1.872719     3B1g    1.872719  
      11Ag     1.900866     3B3g    1.900866     5B3u    2.073635  
       5B1u    2.081498     5B2u    2.081499     6B3u    2.107502  
       1Au     2.107502     6B2u    2.147596     6B1u    2.147596  
       7B3u    2.219510     7B1u    2.273998     7B2u    2.273998  
      12Ag     8.147653     4B2g    8.158983     4B1g    8.158983  
      13Ag     8.188739     4B3g    8.188739     8B3u   10.634263  
       8B1u   10.681813     8B2u   10.681813    14Ag    24.249453  

    Beta Occupied:                                                        

       1Ag  -102.152768     2Ag    -9.664839     1B2u   -7.452246  
       1B1u   -7.452246     1B3u   -7.450328     3Ag    -0.923576  
       2B2u   -0.451034     2B1u   -0.451033  

    Beta Virtual:                                                         

       2B3u   -0.145094     3B3u    0.029400     3B2u    0.045875  
       3B1u    0.045875     4Ag     0.096231     5Ag     0.218304  
       1B1g    0.231633     1B2g    0.231633     1B3g    0.239942  
       6Ag     0.239942     4B2u    0.533171     4B1u    0.533171  
       4B3u    0.536746     7Ag     0.649423     2B1g    0.653176  
       2B2g    0.653176     2B3g    0.653644     8Ag     0.653644  
       9Ag     0.850332    10Ag     1.912720     3B3g    1.912720  
       3B2g    1.916851     3B1g    1.916851    11Ag     1.945209  
       5B2u    2.152958     5B1u    2.152958     6B2u    2.155917  
       6B1u    2.155917     1Au     2.166287     5B3u    2.166287  
       6B3u    2.186456     7B3u    2.298872     7B1u    2.309747  
       7B2u    2.309747     4B3g    8.191464    12Ag     8.191464  
      13Ag     8.193402     4B1g    8.195922     4B2g    8.195922  
       8B1u   10.691409     8B2u   10.691409     8B3u   10.706102  
      14Ag    24.254097  

    Final Occupation by Irrep:
             Ag   B1g   B2g   B3g    Au   B1u   B2u   B3u 
    DOCC [     3,    0,    0,    0,    0,    2,    2,    1 ]
    SOCC [     0,    0,    0,    0,    0,    0,    0,    1 ]

  @DF-UKS Final Energy:  -460.13619043851861

   => Energetics <=

    Nuclear Repulsion Energy =              0.0000000000000000
    One-Electron Energy =                -634.9344093843150176
    Two-Electron Energy =                 189.8803541808804027
    DFT Exchange-Correlation Energy =     -15.0821352350840137
    Empirical Dispersion Energy =           0.0000000000000000
    VV10 Nonlocal Energy =                  0.0000000000000000
    Total Energy =                       -460.1361904385186108

  UHF NO Occupations:
  HONO-2 :    2B1u 1.9998734
  HONO-1 :    3 Ag 1.9987686
  HONO-0 :    2B3u 1.0000000
  LUNO+0 :    4 Ag 0.0012314
  LUNO+1 :    3B1u 0.0001266
  LUNO+2 :    3B2u 0.0001266
  LUNO+3 :    3B3u 0.0000004


Computation Completed


Properties will be evaluated at   0.000000,   0.000000,   0.000000 [a0]

Properties computed using the SCF density matrix

  Nuclear Dipole Moment: [e a0]
     X:     0.0000      Y:     0.0000      Z:     0.0000

  Electronic Dipole Moment: [e a0]
     X:     0.0000      Y:     0.0000      Z:     0.0000

  Dipole Moment: [e a0]
     X:     0.0000      Y:     0.0000      Z:     0.0000     Total:     0.0000

  Dipole Moment: [D]
     X:     0.0000      Y:     0.0000      Z:     0.0000     Total:     0.0000


*** tstop() called on compute348.bc4.acrc.priv at Sun Nov  7 05:08:24 2021
Module time:
	user time   =      49.75 seconds =       0.83 minutes
	system time =       2.15 seconds =       0.04 minutes
	total time  =          3 seconds =       0.05 minutes
Total time:
	user time   =      49.75 seconds =       0.83 minutes
	system time =       2.15 seconds =       0.04 minutes
	total time  =          3 seconds =       0.05 minutes

    Psi4 stopped on: Sunday, 07 November 2021 05:08AM
    Psi4 wall time for execution: 0:00:03.34

*** Psi4 exiting successfully. Buy a developer a beer!
