
    -----------------------------------------------------------------------
          Psi4: An Open-Source Ab Initio Electronic Structure Package
                               Psi4 1.4.1 release

                         Git: Rev {HEAD} cd00f19 


    D. G. A. Smith, L. A. Burns, A. C. Simmonett, R. M. Parrish,
    M. C. Schieber, R. Galvelis, P. Kraus, H. Kruse, R. Di Remigio,
    A. Alenaizan, A. M. James, S. Lehtola, J. P. Misiewicz, M. Scheurer,
    R. A. Shaw, J. B. Schriber, Y. Xie, Z. L. Glick, D. A. Sirianni,
    J. S. O'Brien, J. M. Waldrop, A. Kumar, E. G. Hohenstein,
    B. P. Pritchard, B. R. Brooks, H. F. Schaefer III, A. Yu. Sokolov,
    K. Patkowski, A. E. DePrince III, U. Bozkaya, R. A. King,
    F. A. Evangelista, J. M. Turney, T. D. Crawford, C. D. Sherrill,
    J. Chem. Phys. 152(18) 184108 (2020). https://doi.org/10.1063/5.0006002

                            Additional Code Authors
    E. T. Seidl, C. L. Janssen, E. F. Valeev, M. L. Leininger,
    J. F. Gonthier, R. M. Richard, H. R. McAlexander, M. Saitow, X. Wang,
    P. Verma, and M. H. Lechner

             Previous Authors, Complete List of Code Contributors,
                       and Citations for Specific Modules
    https://github.com/psi4/psi4/blob/master/codemeta.json
    https://github.com/psi4/psi4/graphs/contributors
    http://psicode.org/psi4manual/master/introduction.html#citing-psifour

    -----------------------------------------------------------------------


    Psi4 started on: Sunday, 07 November 2021 05:08AM

    Process ID: 23794
    Host:       compute500.bc4.acrc.priv
    PSIDATADIR: /mnt/storage/home/zw18965/.conda/envs/p4env/share/psi4
    Memory:     500.0 MiB
    Threads:    28
    
  ==> Input File <==

--------------------------------------------------------------------------
memory 120 GB

molecule {
0 3
Co         0.00000        0.00000        0.00000
H          0.00000        0.00000        1.53100
 }

set reference uks
set dynamic_level 1
set basis Def2-TZVPPD

energy("M11-D3BJ")
--------------------------------------------------------------------------

  Memory set to 111.759 GiB by Python driver.

Scratch directory: /tmp/

*** tstart() called on compute500.bc4.acrc.priv
*** at Sun Nov  7 05:08:21 2021

   => Loading Basis Set <=

    Name: DEF2-TZVPPD
    Role: ORBITAL
    Keyword: BASIS
    atoms 1 entry CO         line  1168 file /mnt/storage/home/zw18965/.conda/envs/p4env/share/psi4/basis/def2-tzvppd.gbs 
    atoms 2 entry H          line    14 file /mnt/storage/home/zw18965/.conda/envs/p4env/share/psi4/basis/def2-tzvppd.gbs 

   => M11-D3(BJ): Empirical Dispersion <=

    Grimme's -D3 (BJ-damping) Dispersion Correction
    Grimme S.; Ehrlich S.; Goerigk L. (2011), J. Comput. Chem., 32: 1456
    Parametrisation from:    L. Goerigk, J. Phys. Chem. Lett. 6, 3891-3896, 2015

        s6 =       1.000000
        s8 =       2.811200
        a1 =       0.000000
        a2 =      10.138900


         ---------------------------------------------------------
                                   SCF
               by Justin Turney, Rob Parrish, Andy Simmonett
                          and Daniel G. A. Smith
                              UKS Reference
                       28 Threads, 114440 MiB Core
         ---------------------------------------------------------

  ==> Geometry <==

    Molecular point group: c2v
    Full point group: C_inf_v

    Geometry (in Angstrom), charge = 0, multiplicity = 3:

       Center              X                  Y                   Z               Mass       
    ------------   -----------------  -----------------  -----------------  -----------------
         CO           0.000000000000     0.000000000000    -0.025741639728    58.933194290000
         H            0.000000000000     0.000000000000     1.505258360272     1.007825032230

  Running in c2v symmetry.

  Rotational constants: A = ************  B =      7.25814  C =      7.25814 [cm^-1]
  Rotational constants: A = ************  B = 217593.45074  C = 217593.45074 [MHz]
  Nuclear repulsion =    9.332321808027434

  Charge       = 0
  Multiplicity = 3
  Electrons    = 28
  Nalpha       = 15
  Nbeta        = 13

  ==> Algorithm <==

  SCF Algorithm Type is DF.
  DIIS enabled.
  MOM disabled.
  Fractional occupation disabled.
  Guess Type is SAD.
  Energy threshold   = 1.00e-06
  Density threshold  = 1.00e-06
  Integral threshold = 1.00e-12

  ==> Primary Basis <==

  Basis Set: DEF2-TZVPPD
    Blend: DEF2-TZVPPD
    Number of shells: 26
    Number of basis functions: 84
    Number of Cartesian functions: 101
    Spherical Harmonics?: true
    Max angular momentum: 4

  ==> DFT Potential <==

   => Composite Functional: M11-D3BJ <= 

    M11 Meta-GGA XC Functional
(10.1021/jz201170d)
    R. Peverati and D. G. Truhlar, J. Phys. Chem. Lett., 2, 2810, 2011


    Deriv               =              1
    GGA                 =           TRUE
    Meta                =           TRUE

    Exchange Hybrid     =           TRUE
    MP2 Hybrid          =          FALSE

   => Exchange Functionals <=

    1.0000   XC_HYB_MGGA_X_M11 [omega = 0.2500]

   => Exact (HF) Exchange <=

    0.5720            HF,LR [omega = 0.2500]
    0.4280               HF 

   => Correlation Functionals <=

    1.0000    XC_MGGA_C_M11

   => LibXC Density Thresholds  <==

    XC_MGGA_C_M11:  1.00E-15 
    XC_HYB_MGGA_X_M11:  1.00E-11 

   => Molecular Quadrature <=

    Radial Scheme          =       TREUTLER
    Pruning Scheme         =           NONE
    Nuclear Scheme         =       TREUTLER

    BS radius alpha        =              1
    Pruning alpha          =              1
    Radial Points          =             75
    Spherical Points       =            302
    Total Points           =          43984
    Total Blocks           =            407
    Max Points             =            256
    Max Functions          =             84
    Weights Tolerance      =       1.00E-15

   => Loading Basis Set <=

    Name: (DEF2-TZVPPD AUX)
    Role: JKFIT
    Keyword: DF_BASIS_SCF
    atoms 1 entry CO         line  2104 file /mnt/storage/home/zw18965/.conda/envs/p4env/share/psi4/basis/def2-universal-jkfit.gbs 
    atoms 2 entry H          line    18 file /mnt/storage/home/zw18965/.conda/envs/p4env/share/psi4/basis/def2-universal-jkfit.gbs 

  ==> Integral Setup <==

  DFHelper Memory: AOs need 0.034 GiB; user supplied 83.588 GiB. Using in-core AOs.

  ==> MemDFJK: Density-Fitted J/K Matrices <==

    J tasked:                   Yes
    K tasked:                   Yes
    wK tasked:                  Yes
    Omega:                2.500E-01
    OpenMP threads:              28
    Memory [MiB]:             85594
    Algorithm:                 Core
    Schwarz Cutoff:           1E-12
    Mask sparsity (%):       0.0000
    Fitting Condition:        1E-10

   => Auxiliary Basis Set <=

  Basis Set: (DEF2-TZVPPD AUX)
    Blend: DEF2-UNIVERSAL-JKFIT
    Number of shells: 64
    Number of basis functions: 282
    Number of Cartesian functions: 397
    Spherical Harmonics?: true
    Max angular momentum: 6

  Cached 100.0% of DFT collocation blocks in 0.231 [GiB].

  Minimum eigenvalue in the overlap matrix is 3.0343844833E-03.
  Reciprocal condition number of the overlap matrix is 7.0113517897E-04.
    Using symmetric orthogonalization.

  ==> Pre-Iterations <==

  SCF Guess: Superposition of Atomic Densities via on-the-fly atomic UHF (no occupation information).

   -------------------------
    Irrep   Nso     Nmo    
   -------------------------
     A1        35      35 
     A2         9       9 
     B1        20      20 
     B2        20      20 
   -------------------------
    Total      84      84
   -------------------------

  ==> Iterations <==

                           Total Energy        Delta E     RMS |[F,P]|

   @DF-UKS iter SAD: -1381.10609892366006   -1.38111e+03   0.00000e+00 
    Occupation by irrep:
             A1    A2    B1    B2 
    DOCC [     7,    0,    3,    3 ]
    SOCC [     2,    0,    0,    0 ]

   @DF-UKS iter   1: -1380.34688011594517    7.59219e-01   7.97621e-02 DIIS
    Occupation by irrep:
             A1    A2    B1    B2 
    DOCC [     7,    0,    3,    3 ]
    SOCC [     1,    1,    0,    0 ]

   @DF-UKS iter   2: -1357.64130503196930    2.27056e+01   1.50756e-01 DIIS
   @DF-UKS iter   3: -1381.89278813684086   -2.42515e+01   4.61389e-02 DIIS
   @DF-UKS iter   4: -1378.53082238907632    3.36197e+00   8.17348e-02 DIIS
   @DF-UKS iter   5: -1382.40838673938288   -3.87756e+00   3.54167e-02 DIIS
   @DF-UKS iter   6: -1382.87716563484196   -4.68779e-01   2.10512e-02 DIIS
   @DF-UKS iter   7: -1383.09221973065155   -2.15054e-01   8.93131e-03 DIIS
   @DF-UKS iter   8: -1383.14359110482314   -5.13714e-02   6.71613e-04 DIIS
   @DF-UKS iter   9: -1383.14508581260179   -1.49471e-03   4.98443e-04 DIIS
   @DF-UKS iter  10: -1383.14572981402580   -6.44001e-04   2.14942e-04 DIIS
   @DF-UKS iter  11: -1383.14608565679532   -3.55843e-04   9.42232e-05 DIIS
   @DF-UKS iter  12: -1383.14620900499631   -1.23348e-04   7.48197e-05 DIIS
   @DF-UKS iter  13: -1383.14628428414062   -7.52791e-05   5.58174e-05 DIIS
   @DF-UKS iter  14: -1383.14633636775898   -5.20836e-05   4.06139e-05 DIIS
   @DF-UKS iter  15: -1383.14638359278752   -4.72250e-05   1.37743e-05 DIIS
   @DF-UKS iter  16: -1383.14638913097679   -5.53819e-06   5.35660e-06 DIIS
   @DF-UKS iter  17: -1383.14638941115618   -2.80179e-07   2.60670e-06 DIIS
   @DF-UKS iter  18: -1383.14638943920090   -2.80447e-08   1.04889e-06 DIIS
   @DF-UKS iter  19: -1383.14638944672379   -7.52289e-09   5.04742e-07 DIIS
  Energy and wave function converged.


  ==> Post-Iterations <==

   Electrons on quadrature grid:
      Nalpha   =   14.9999999976 ; deviation = -2.434e-09
      Nbeta    =   12.9999999790 ; deviation = -2.095e-08
      Ntotal   =   27.9999999766 ; deviation = -2.339e-08 

   @Spin Contamination Metric:   1.437238267E-02
   @S^2 Expected:                2.000000000E+00
   @S^2 Observed:                2.014372383E+00
   @S   Expected:                1.000000000E+00
   @S   Observed:                1.000000000E+00

    Orbital Energies [Eh]
    ---------------------

    Alpha Occupied:                                                       

       1A1  -278.382411     2A1   -33.075205     1B1   -28.790312  
       1B2   -28.790311     3A1   -28.730141     4A1    -3.882709  
       2B1    -2.626121     2B2    -2.626119     5A1    -2.508362  
       6A1    -0.475961     1A2    -0.475961     7A1    -0.416456  
       3B1    -0.394949     3B2    -0.394948     8A1    -0.308189  

    Alpha Virtual:                                                        

       9A1    -0.022546     4B1     0.017767     4B2     0.017767  
      10A1     0.080966    11A1     0.098152     5B1     0.150253  
       5B2     0.150254    12A1     0.214004     6B1     0.246660  
       6B2     0.246660     2A2     0.259288    13A1     0.259288  
      14A1     0.340329     7B1     0.345800     7B2     0.345800  
      15A1     0.446687    16A1     0.550992     8B1     0.670970  
       8B2     0.670971    17A1     0.730203     9B1     0.939806  
       9B2     0.939807    18A1     1.046274     3A2     1.046275  
      19A1     1.176894    10B1     1.235491    10B2     1.235491  
      20A1     1.368450    21A1     2.507470    11B1     2.698337  
      11B2     2.698338    12B1     2.721895    12B2     2.721896  
      22A1     2.725605    13B2     2.773769    13B1     2.773769  
       4A2     2.779987    23A1     2.780007    24A1     3.054251  
      25A1     3.210862     5A2     3.376072    26A1     3.376302  
      14B1     3.726020    14B2     3.726020    27A1     3.797975  
      28A1     3.859541     6A2     3.859543    15B1     3.963829  
      15B2     3.963829    16B1     4.028296    16B2     4.028296  
      29A1     4.244582    30A1     5.139658     7A2     9.941699  
      31A1     9.941702    17B1    10.011317    17B2    10.011317  
       8A2    10.046310    32A1    10.046315    18B1    10.084979  
      18B2    10.084980    33A1    10.120135    19B1    10.476610  
      19B2    10.476610     9A2    10.561470    34A1    10.561471  
      20B1    10.702065    20B2    10.702066    35A1    11.002375  

    Beta Occupied:                                                        

       1A1  -278.383423     2A1   -33.028528     1B1   -28.738312  
       1B2   -28.738311     3A1   -28.720206     4A1    -3.790205  
       2B1    -2.480374     2B2    -2.480374     5A1    -2.466902  
       6A1    -0.395715     3B1    -0.339315     3B2    -0.339315  
       7A1    -0.278974  

    Beta Virtual:                                                         

       8A1    -0.009137     4B1     0.028267     4B2     0.028267  
       9A1     0.083771     1A2     0.083771    10A1     0.088618  
      11A1     0.107191     5B2     0.160294     5B1     0.160294  
      12A1     0.219455     6B1     0.252984     6B2     0.252984  
       2A2     0.288306    13A1     0.288306    14A1     0.345087  
       7B1     0.352051     7B2     0.352051    15A1     0.461441  
      16A1     0.550104     8B2     0.691394     8B1     0.691394  
      17A1     0.735486     9B1     0.945260     9B2     0.945260  
      18A1     1.111046     3A2     1.111046    19A1     1.189907  
      10B1     1.246015    10B2     1.246015    20A1     1.371363  
      21A1     2.507760    11B1     2.713163    11B2     2.713163  
      22A1     2.728659    12B1     2.768691    12B2     2.768691  
       4A2     2.815955    23A1     2.815978    13B2     2.865219  
      13B1     2.865219    24A1     3.069654    25A1     3.252487  
       5A2     3.375412    26A1     3.375633    14B1     3.721269  
      14B2     3.721269    27A1     3.826634    28A1     3.954859  
       6A2     3.954861    15B1     3.982410    15B2     3.982411  
      16B1     4.031834    16B2     4.031834    29A1     4.246674  
      30A1     5.140457    17B1    10.093532    17B2    10.093532  
       7A2    10.095593    31A1    10.095597     8A2    10.111073  
      32A1    10.111077    18B1    10.130841    18B2    10.130841  
      33A1    10.160503     9A2    10.625868    34A1    10.625870  
      19B1    10.633759    19B2    10.633759    20B1    10.725315  
      20B2    10.725316    35A1    11.047174  

    Final Occupation by Irrep:
             A1    A2    B1    B2 
    DOCC [     7,    0,    3,    3 ]
    SOCC [     1,    1,    0,    0 ]

  @DF-UKS Final Energy: -1383.14638944672379

   => Energetics <=

    Nuclear Repulsion Energy =              9.3323218080274337
    One-Electron Energy =               -1935.5000891964355105
    Two-Electron Energy =                 575.4455138501739384
    DFT Exchange-Correlation Energy =     -32.4240874284896066
    Empirical Dispersion Energy =          -0.0000484800000000
    VV10 Nonlocal Energy =                  0.0000000000000000
    Total Energy =                      -1383.1463894467237878

  UHF NO Occupations:
  HONO-2 :    7 A1 1.9946810
  HONO-1 :    1 A2 1.0000000
  HONO-0 :    8 A1 1.0000000
  LUNO+0 :    9 A1 0.0053190
  LUNO+1 :    4 B2 0.0008246
  LUNO+2 :    4 B1 0.0008245
  LUNO+3 :   10 A1 0.0001597


Computation Completed


Properties will be evaluated at   0.000000,   0.000000,   0.000000 [a0]

Properties computed using the SCF density matrix

  Nuclear Dipole Moment: [e a0]
     X:     0.0000      Y:     0.0000      Z:     1.5311

  Electronic Dipole Moment: [e a0]
     X:     0.0000      Y:     0.0000      Z:    -2.8949

  Dipole Moment: [e a0]
     X:     0.0000      Y:     0.0000      Z:    -1.3638     Total:     1.3638

  Dipole Moment: [D]
     X:     0.0000      Y:     0.0000      Z:    -3.4664     Total:     3.4664


*** tstop() called on compute500.bc4.acrc.priv at Sun Nov  7 05:08:32 2021
Module time:
	user time   =     253.21 seconds =       4.22 minutes
	system time =       9.91 seconds =       0.17 minutes
	total time  =         11 seconds =       0.18 minutes
Total time:
	user time   =     253.21 seconds =       4.22 minutes
	system time =       9.91 seconds =       0.17 minutes
	total time  =         11 seconds =       0.18 minutes

    Psi4 stopped on: Sunday, 07 November 2021 05:08AM
    Psi4 wall time for execution: 0:00:11.25

*** Psi4 exiting successfully. Buy a developer a beer!
