
    -----------------------------------------------------------------------
          Psi4: An Open-Source Ab Initio Electronic Structure Package
                               Psi4 1.4.1 release

                         Git: Rev {HEAD} cd00f19 


    D. G. A. Smith, L. A. Burns, A. C. Simmonett, R. M. Parrish,
    M. C. Schieber, R. Galvelis, P. Kraus, H. Kruse, R. Di Remigio,
    A. Alenaizan, A. M. James, S. Lehtola, J. P. Misiewicz, M. Scheurer,
    R. A. Shaw, J. B. Schriber, Y. Xie, Z. L. Glick, D. A. Sirianni,
    J. S. O'Brien, J. M. Waldrop, A. Kumar, E. G. Hohenstein,
    B. P. Pritchard, B. R. Brooks, H. F. Schaefer III, A. Yu. Sokolov,
    K. Patkowski, A. E. DePrince III, U. Bozkaya, R. A. King,
    F. A. Evangelista, J. M. Turney, T. D. Crawford, C. D. Sherrill,
    J. Chem. Phys. 152(18) 184108 (2020). https://doi.org/10.1063/5.0006002

                            Additional Code Authors
    E. T. Seidl, C. L. Janssen, E. F. Valeev, M. L. Leininger,
    J. F. Gonthier, R. M. Richard, H. R. McAlexander, M. Saitow, X. Wang,
    P. Verma, and M. H. Lechner

             Previous Authors, Complete List of Code Contributors,
                       and Citations for Specific Modules
    https://github.com/psi4/psi4/blob/master/codemeta.json
    https://github.com/psi4/psi4/graphs/contributors
    http://psicode.org/psi4manual/master/introduction.html#citing-psifour

    -----------------------------------------------------------------------


    Psi4 started on: Sunday, 07 November 2021 05:08AM

    Process ID: 21067
    Host:       compute270.bc4.acrc.priv
    PSIDATADIR: /mnt/storage/home/zw18965/.conda/envs/p4env/share/psi4
    Memory:     500.0 MiB
    Threads:    28
    
  ==> Input File <==

--------------------------------------------------------------------------
memory 120 GB

molecule {
1 5
C          0.00000        0.00000        0.00000
H          0.00000        0.00000        1.10000
H          1.03709        0.00000       -0.36667
H         -0.51855        0.89815       -0.36667
Cr        -0.89567       -1.55134       -0.63333
 }

set reference uks
set dynamic_level 1
set basis Def2-TZVPPD

energy("M11-D3BJ")
--------------------------------------------------------------------------

  Memory set to 111.759 GiB by Python driver.

Scratch directory: /tmp/

*** tstart() called on compute270.bc4.acrc.priv
*** at Sun Nov  7 05:08:20 2021

   => Loading Basis Set <=

    Name: DEF2-TZVPPD
    Role: ORBITAL
    Keyword: BASIS
    atoms 1   entry C          line   144 file /mnt/storage/home/zw18965/.conda/envs/p4env/share/psi4/basis/def2-tzvppd.gbs 
    atoms 2-4 entry H          line    14 file /mnt/storage/home/zw18965/.conda/envs/p4env/share/psi4/basis/def2-tzvppd.gbs 
    atoms 5   entry CR         line   985 file /mnt/storage/home/zw18965/.conda/envs/p4env/share/psi4/basis/def2-tzvppd.gbs 

   => M11-D3(BJ): Empirical Dispersion <=

    Grimme's -D3 (BJ-damping) Dispersion Correction
    Grimme S.; Ehrlich S.; Goerigk L. (2011), J. Comput. Chem., 32: 1456
    Parametrisation from:    L. Goerigk, J. Phys. Chem. Lett. 6, 3891-3896, 2015

        s6 =       1.000000
        s8 =       2.811200
        a1 =       0.000000
        a2 =      10.138900


         ---------------------------------------------------------
                                   SCF
               by Justin Turney, Rob Parrish, Andy Simmonett
                          and Daniel G. A. Smith
                              UKS Reference
                       28 Threads, 114440 MiB Core
         ---------------------------------------------------------

  ==> Geometry <==

    Molecular point group: c1
    Full point group: C1

    Geometry (in Angstrom), charge = 1, multiplicity = 5:

       Center              X                  Y                   Z               Mass       
    ------------   -----------------  -----------------  -----------------  -----------------
         C            0.686920859714     1.189777030930     0.485723086351    12.000000000000
         H            0.686920859714     1.189777030930     1.585723086351     1.007825032230
         H            1.724010859714     1.189777030930     0.119053086351     1.007825032230
         H            0.168370859714     2.087927030930     0.119053086351     1.007825032230
         CR          -0.208749140286    -0.361562969070    -0.147606913649    51.940506230000

  Running in c1 symmetry.

  Rotational constants: A =      5.18388  B =      0.35603  C =      0.35603 [cm^-1]
  Rotational constants: A = 155408.77023  B =  10673.57504  C =  10673.57318 [MHz]
  Nuclear repulsion =   64.934375232826056

  Charge       = 1
  Multiplicity = 5
  Electrons    = 32
  Nalpha       = 18
  Nbeta        = 14

  ==> Algorithm <==

  SCF Algorithm Type is DF.
  DIIS enabled.
  MOM disabled.
  Fractional occupation disabled.
  Guess Type is SAD.
  Energy threshold   = 1.00e-06
  Density threshold  = 1.00e-06
  Integral threshold = 1.00e-12

  ==> Primary Basis <==

  Basis Set: DEF2-TZVPPD
    Blend: DEF2-TZVPPD
    Number of shells: 53
    Number of basis functions: 155
    Number of Cartesian functions: 180
    Spherical Harmonics?: true
    Max angular momentum: 4

  ==> DFT Potential <==

   => Composite Functional: M11-D3BJ <= 

    M11 Meta-GGA XC Functional
(10.1021/jz201170d)
    R. Peverati and D. G. Truhlar, J. Phys. Chem. Lett., 2, 2810, 2011


    Deriv               =              1
    GGA                 =           TRUE
    Meta                =           TRUE

    Exchange Hybrid     =           TRUE
    MP2 Hybrid          =          FALSE

   => Exchange Functionals <=

    1.0000   XC_HYB_MGGA_X_M11 [omega = 0.2500]

   => Exact (HF) Exchange <=

    0.5720            HF,LR [omega = 0.2500]
    0.4280               HF 

   => Correlation Functionals <=

    1.0000    XC_MGGA_C_M11

   => LibXC Density Thresholds  <==

    XC_MGGA_C_M11:  1.00E-15 
    XC_HYB_MGGA_X_M11:  1.00E-11 

   => Molecular Quadrature <=

    Radial Scheme          =       TREUTLER
    Pruning Scheme         =           NONE
    Nuclear Scheme         =       TREUTLER

    BS radius alpha        =              1
    Pruning alpha          =              1
    Radial Points          =             75
    Spherical Points       =            302
    Total Points           =         109586
    Total Blocks           =            887
    Max Points             =            256
    Max Functions          =            155
    Weights Tolerance      =       1.00E-15

   => Loading Basis Set <=

    Name: (DEF2-TZVPPD AUX)
    Role: JKFIT
    Keyword: DF_BASIS_SCF
    atoms 1   entry C          line   198 file /mnt/storage/home/zw18965/.conda/envs/p4env/share/psi4/basis/def2-universal-jkfit.gbs 
    atoms 2-4 entry H          line    18 file /mnt/storage/home/zw18965/.conda/envs/p4env/share/psi4/basis/def2-universal-jkfit.gbs 
    atoms 5   entry CR         line  1726 file /mnt/storage/home/zw18965/.conda/envs/p4env/share/psi4/basis/def2-universal-jkfit.gbs 

  ==> Integral Setup <==

  DFHelper Memory: AOs need 0.154 GiB; user supplied 82.753 GiB. Using in-core AOs.

  ==> MemDFJK: Density-Fitted J/K Matrices <==

    J tasked:                   Yes
    K tasked:                   Yes
    wK tasked:                  Yes
    Omega:                2.500E-01
    OpenMP threads:              28
    Memory [MiB]:             84738
    Algorithm:                 Core
    Schwarz Cutoff:           1E-12
    Mask sparsity (%):       0.1249
    Fitting Condition:        1E-10

   => Auxiliary Basis Set <=

  Basis Set: (DEF2-TZVPPD AUX)
    Blend: DEF2-UNIVERSAL-JKFIT
    Number of shells: 101
    Number of basis functions: 393
    Number of Cartesian functions: 526
    Spherical Harmonics?: true
    Max angular momentum: 6

  Cached 100.0% of DFT collocation blocks in 1.066 [GiB].

  Minimum eigenvalue in the overlap matrix is 3.7668344833E-05.
  Reciprocal condition number of the overlap matrix is 4.0192041876E-06.
    Using symmetric orthogonalization.

  ==> Pre-Iterations <==

  SCF Guess: Superposition of Atomic Densities via on-the-fly atomic UHF (no occupation information).

   -------------------------
    Irrep   Nso     Nmo    
   -------------------------
     A        155     155 
   -------------------------
    Total     155     155
   -------------------------

  ==> Iterations <==

                           Total Energy        Delta E     RMS |[F,P]|

   @DF-UKS iter SAD: -1082.99803217227645   -1.08300e+03   0.00000e+00 
   @DF-UKS iter   1: -1083.63162432425543   -6.33592e-01   6.58731e-03 DIIS
   @DF-UKS iter   2: -1083.61158013002068    2.00442e-02   7.40881e-03 DIIS
   @DF-UKS iter   3: -1083.95908049367563   -3.47500e-01   8.71174e-04 DIIS
   @DF-UKS iter   4: -1083.96571589213090   -6.63540e-03   3.74048e-04 DIIS
   @DF-UKS iter   5: -1083.96810643714070   -2.39055e-03   1.08735e-04 DIIS
   @DF-UKS iter   6: -1083.96888696025690   -7.80523e-04   7.50211e-05 DIIS
   @DF-UKS iter   7: -1083.96955329422144   -6.66334e-04   5.22539e-05 DIIS
   @DF-UKS iter   8: -1083.97005984623297   -5.06552e-04   3.13852e-05 DIIS
   @DF-UKS iter   9: -1083.97011934637612   -5.95001e-05   8.44584e-06 DIIS
   @DF-UKS iter  10: -1083.97012928213508   -9.93576e-06   4.38224e-06 DIIS
   @DF-UKS iter  11: -1083.97013053160754   -1.24947e-06   6.97017e-07 DIIS
   @DF-UKS iter  12: -1083.97013056724563   -3.56381e-08   1.87464e-07 DIIS
  Energy and wave function converged.


  ==> Post-Iterations <==

   Electrons on quadrature grid:
      Nalpha   =   17.9999981563 ; deviation = -1.844e-06
      Nbeta    =   13.9999976278 ; deviation = -2.372e-06
      Ntotal   =   31.9999957840 ; deviation = -4.216e-06 

   @Spin Contamination Metric:   1.362675399E-01
   @S^2 Expected:                6.000000000E+00
   @S^2 Observed:                6.136267540E+00
   @S   Expected:                2.000000000E+00
   @S   Observed:                2.000000000E+00

    Orbital Energies [Eh]
    ---------------------

    Alpha Occupied:                                                       

       1A   -216.729139     2A    -25.142494     3A    -21.481965  
       4A    -21.476869     5A    -21.476869     6A    -10.585581  
       7A     -3.300966     8A     -2.271240     9A     -2.264236  
      10A     -2.264236    11A     -0.989564    12A     -0.707072  
      13A     -0.707055    14A     -0.610041    15A     -0.610036  
      16A     -0.601889    17A     -0.595446    18A     -0.595441  

    Alpha Virtual:                                                        

      19A     -0.248154    20A     -0.187298    21A     -0.147199  
      22A     -0.147195    23A     -0.111604    24A     -0.070870  
      25A     -0.063558    26A     -0.063555    27A     -0.059273  
      28A     -0.059272    29A     -0.044668    30A     -0.032027  
      31A     -0.032021    32A     -0.001026    33A      0.018171  
      34A      0.018175    35A      0.041730    36A      0.061395  
      37A      0.061402    38A      0.107855    39A      0.151888  
      40A      0.151893    41A      0.159237    42A      0.169819  
      43A      0.180860    44A      0.180865    45A      0.188254  
      46A      0.195821    47A      0.195850    48A      0.210077  
      49A      0.224484    50A      0.224497    51A      0.318687  
      52A      0.327430    53A      0.327432    54A      0.374746  
      55A      0.381726    56A      0.381735    57A      0.400891  
      58A      0.400893    59A      0.473779    60A      0.562727  
      61A      0.562741    62A      0.606896    63A      0.608638  
      64A      0.608673    65A      0.681024    66A      0.702573  
      67A      0.702609    68A      0.907603    69A      0.928859  
      70A      0.928979    71A      0.959759    72A      1.014146  
      73A      1.014260    74A      1.124477    75A      1.151554  
      76A      1.151560    77A      1.311214    78A      1.345479  
      79A      1.406428    80A      1.449439    81A      1.449472  
      82A      1.541210    83A      1.541252    84A      1.549643  
      85A      1.614224    86A      1.614252    87A      1.683869  
      88A      1.700961    89A      1.700972    90A      1.822248  
      91A      1.864660    92A      1.924666    93A      1.924711  
      94A      1.942958    95A      1.947078    96A      1.947078  
      97A      2.134076    98A      2.134132    99A      2.333394  
     100A      2.550149   101A      2.566536   102A      2.566738  
     103A      2.768352   104A      2.850867   105A      2.850974  
     106A      2.887380   107A      2.887539   108A      3.016540  
     109A      3.016801   110A      3.048441   111A      3.227390  
     112A      3.333099   113A      3.333316   114A      3.426454  
     115A      3.427095   116A      3.452619   117A      3.688449  
     118A      3.714180   119A      3.714349   120A      3.833476  
     121A      3.915570   122A      3.915940   123A      4.007508  
     124A      4.098863   125A      4.099294   126A      4.172030  
     127A      4.430391   128A      4.430718   129A      4.473202  
     130A      4.863102   131A      4.863261   132A      4.927538  
     133A      4.936501   134A      5.089106   135A      5.110099  
     136A      5.110191   137A      5.379951   138A      5.380256  
     139A      5.386815   140A      5.390125   141A      5.390197  
     142A      5.390845   143A      5.467040   144A      5.467125  
     145A      5.571354   146A      5.571375   147A      5.619717  
     148A      6.017946   149A      6.025563   150A      6.102319  
     151A      6.102331   152A      6.318882   153A      6.318885  
     154A      6.355877   155A     22.987936  

    Beta Occupied:                                                        

       1A   -216.731185     2A    -25.090699     3A    -21.443749  
       4A    -21.427575     5A    -21.427575     6A    -10.591048  
       7A     -3.129055     8A     -2.096711     9A     -2.059046  
      10A     -2.059045    11A     -0.996929    12A     -0.695867  
      13A     -0.695844    14A     -0.582266  

    Beta Virtual:                                                         

      15A     -0.248448    16A     -0.185583    17A     -0.185582  
      18A     -0.164722    19A     -0.135522    20A     -0.135521  
      21A     -0.109118    22A     -0.109115    23A     -0.099097  
      24A     -0.071810    25A     -0.070024    26A     -0.070023  
      27A     -0.048549    28A     -0.048524    29A     -0.048521  
      30A     -0.044282    31A     -0.044280    32A     -0.007310  
      33A      0.012962    34A      0.012967    35A      0.044622  
      36A      0.057701    37A      0.057707    38A      0.099229  
      39A      0.155529    40A      0.156118    41A      0.156120  
      42A      0.165735    43A      0.177255    44A      0.177267  
      45A      0.187495    46A      0.198106    47A      0.198122  
      48A      0.208826    49A      0.220356    50A      0.220369  
      51A      0.330183    52A      0.346904    53A      0.346907  
      54A      0.368065    55A      0.387672    56A      0.387679  
      57A      0.421940    58A      0.421947    59A      0.466204  
      60A      0.574691    61A      0.574702    62A      0.607543  
      63A      0.612969    64A      0.612997    65A      0.691523  
      66A      0.703018    67A      0.703040    68A      0.911101  
      69A      0.928961    70A      0.929040    71A      0.950914  
      72A      1.018035    73A      1.018090    74A      1.123294  
      75A      1.169751    76A      1.169789    77A      1.346022  
      78A      1.437269    79A      1.453320    80A      1.461749  
      81A      1.461781    82A      1.564913    83A      1.610104  
      84A      1.610149    85A      1.641890    86A      1.641931  
      87A      1.687744    88A      1.738824    89A      1.738833  
      90A      1.837897    91A      1.906402    92A      1.979651  
      93A      1.979668    94A      1.988844    95A      2.029110  
      96A      2.029136    97A      2.182454    98A      2.182515  
      99A      2.327364   100A      2.563443   101A      2.581473  
     102A      2.581617   103A      2.799826   104A      2.862363  
     105A      2.862457   106A      2.903655   107A      2.903781  
     108A      3.006489   109A      3.006719   110A      3.046216  
     111A      3.244475   112A      3.342996   113A      3.343391  
     114A      3.434044   115A      3.434497   116A      3.460538  
     117A      3.686877   118A      3.729072   119A      3.729199  
     120A      3.842610   121A      3.931863   122A      3.932277  
     123A      4.026918   124A      4.114638   125A      4.115024  
     126A      4.177905   127A      4.462278   128A      4.462604  
     129A      4.490610   130A      4.879424   131A      4.879538  
     132A      4.949770   133A      4.961279   134A      5.139073  
     135A      5.146809   136A      5.146881   137A      5.448813  
     138A      5.449080   139A      5.495505   140A      5.495512  
     141A      5.512327   142A      5.516241   143A      5.572813  
     144A      5.572983   145A      5.649467   146A      5.649486  
     147A      5.678433   148A      6.133736   149A      6.141077  
     150A      6.221070   151A      6.221108   152A      6.391838  
     153A      6.391843   154A      6.421156   155A     22.989484  

    Final Occupation by Irrep:
              A 
    DOCC [    14 ]
    SOCC [     4 ]

  @DF-UKS Final Energy: -1083.97013056724563

   => Energetics <=

    Nuclear Repulsion Energy =             64.9343752328260564
    One-Electron Energy =               -1611.6140923695904803
    Two-Electron Energy =                 492.2172370128853913
    DFT Exchange-Correlation Energy =     -29.5072976833667369
    Empirical Dispersion Energy =          -0.0003527600000000
    VV10 Nonlocal Energy =                  0.0000000000000000
    Total Energy =                      -1083.9701305672456328

  UHF NO Occupations:
  HONO-2 :   16  A 1.0000000
  HONO-1 :   17  A 1.0000000
  HONO-0 :   18  A 1.0000000
  LUNO+0 :   19  A 0.0702563
  LUNO+1 :   20  A 0.0001268
  LUNO+2 :   21  A 0.0001268
  LUNO+3 :   22  A 0.0000557


Computation Completed


Properties will be evaluated at   0.000000,   0.000000,   0.000000 [a0]

Properties computed using the SCF density matrix

  Nuclear Dipole Moment: [e a0]
     X:     3.1952      Y:     5.5343      Z:     2.2594

  Electronic Dipole Moment: [e a0]
     X:    -3.6934      Y:    -6.3972      Z:    -2.6116

  Dipole Moment: [e a0]
     X:    -0.4982      Y:    -0.8629      Z:    -0.3522     Total:     1.0568

  Dipole Moment: [D]
     X:    -1.2662      Y:    -2.1933      Z:    -0.8952     Total:     2.6862


*** tstop() called on compute270.bc4.acrc.priv at Sun Nov  7 05:08:47 2021
Module time:
	user time   =     681.16 seconds =      11.35 minutes
	system time =      26.01 seconds =       0.43 minutes
	total time  =         27 seconds =       0.45 minutes
Total time:
	user time   =     681.16 seconds =      11.35 minutes
	system time =      26.01 seconds =       0.43 minutes
	total time  =         27 seconds =       0.45 minutes

    Psi4 stopped on: Sunday, 07 November 2021 05:08AM
    Psi4 wall time for execution: 0:00:27.22

*** Psi4 exiting successfully. Buy a developer a beer!
