
    -----------------------------------------------------------------------
          Psi4: An Open-Source Ab Initio Electronic Structure Package
                               Psi4 1.4.1 release

                         Git: Rev {HEAD} cd00f19 


    D. G. A. Smith, L. A. Burns, A. C. Simmonett, R. M. Parrish,
    M. C. Schieber, R. Galvelis, P. Kraus, H. Kruse, R. Di Remigio,
    A. Alenaizan, A. M. James, S. Lehtola, J. P. Misiewicz, M. Scheurer,
    R. A. Shaw, J. B. Schriber, Y. Xie, Z. L. Glick, D. A. Sirianni,
    J. S. O'Brien, J. M. Waldrop, A. Kumar, E. G. Hohenstein,
    B. P. Pritchard, B. R. Brooks, H. F. Schaefer III, A. Yu. Sokolov,
    K. Patkowski, A. E. DePrince III, U. Bozkaya, R. A. King,
    F. A. Evangelista, J. M. Turney, T. D. Crawford, C. D. Sherrill,
    J. Chem. Phys. 152(18) 184108 (2020). https://doi.org/10.1063/5.0006002

                            Additional Code Authors
    E. T. Seidl, C. L. Janssen, E. F. Valeev, M. L. Leininger,
    J. F. Gonthier, R. M. Richard, H. R. McAlexander, M. Saitow, X. Wang,
    P. Verma, and M. H. Lechner

             Previous Authors, Complete List of Code Contributors,
                       and Citations for Specific Modules
    https://github.com/psi4/psi4/blob/master/codemeta.json
    https://github.com/psi4/psi4/graphs/contributors
    http://psicode.org/psi4manual/master/introduction.html#citing-psifour

    -----------------------------------------------------------------------


    Psi4 started on: Sunday, 07 November 2021 05:08AM

    Process ID: 14949
    Host:       compute416.bc4.acrc.priv
    PSIDATADIR: /mnt/storage/home/zw18965/.conda/envs/p4env/share/psi4
    Memory:     500.0 MiB
    Threads:    28
    
  ==> Input File <==

--------------------------------------------------------------------------
memory 120 GB

molecule {
0 2
Cu         0.00000        0.00000        0.00000
 }

set reference uks
set dynamic_level 1
set basis Def2-TZVPPD

energy("M11-D3BJ")
--------------------------------------------------------------------------

  Memory set to 111.759 GiB by Python driver.

Scratch directory: /tmp/

*** tstart() called on compute416.bc4.acrc.priv
*** at Sun Nov  7 05:08:21 2021

   => Loading Basis Set <=

    Name: DEF2-TZVPPD
    Role: ORBITAL
    Keyword: BASIS
    atoms 1 entry CU         line  1290 file /mnt/storage/home/zw18965/.conda/envs/p4env/share/psi4/basis/def2-tzvppd.gbs 

   => M11-D3(BJ): Empirical Dispersion <=

    Grimme's -D3 (BJ-damping) Dispersion Correction
    Grimme S.; Ehrlich S.; Goerigk L. (2011), J. Comput. Chem., 32: 1456
    Parametrisation from:    L. Goerigk, J. Phys. Chem. Lett. 6, 3891-3896, 2015

        s6 =       1.000000
        s8 =       2.811200
        a1 =       0.000000
        a2 =      10.138900


         ---------------------------------------------------------
                                   SCF
               by Justin Turney, Rob Parrish, Andy Simmonett
                          and Daniel G. A. Smith
                              UKS Reference
                       28 Threads, 114440 MiB Core
         ---------------------------------------------------------

  ==> Geometry <==

    Molecular point group: d2h
    Geometry (in Angstrom), charge = 0, multiplicity = 2:

       Center              X                  Y                   Z               Mass       
    ------------   -----------------  -----------------  -----------------  -----------------
         CU           0.000000000000     0.000000000000     0.000000000000    62.929597720000

  Running in d2h symmetry.

  Rotational constants: A = ************  B = ************  C = ************ [cm^-1]
  Rotational constants: A = ************  B = ************  C = ************ [MHz]
  Nuclear repulsion =    0.000000000000000

  Charge       = 0
  Multiplicity = 2
  Electrons    = 29
  Nalpha       = 15
  Nbeta        = 14

  ==> Algorithm <==

  SCF Algorithm Type is DF.
  DIIS enabled.
  MOM disabled.
  Fractional occupation disabled.
  Guess Type is CORE.
  Energy threshold   = 1.00e-06
  Density threshold  = 1.00e-06
  Integral threshold = 1.00e-12

  ==> Primary Basis <==

  Basis Set: DEF2-TZVPPD
    Blend: DEF2-TZVPPD
    Number of shells: 19
    Number of basis functions: 67
    Number of Cartesian functions: 83
    Spherical Harmonics?: true
    Max angular momentum: 4

  ==> DFT Potential <==

   => Composite Functional: M11-D3BJ <= 

    M11 Meta-GGA XC Functional
(10.1021/jz201170d)
    R. Peverati and D. G. Truhlar, J. Phys. Chem. Lett., 2, 2810, 2011


    Deriv               =              1
    GGA                 =           TRUE
    Meta                =           TRUE

    Exchange Hybrid     =           TRUE
    MP2 Hybrid          =          FALSE

   => Exchange Functionals <=

    1.0000   XC_HYB_MGGA_X_M11 [omega = 0.2500]

   => Exact (HF) Exchange <=

    0.5720            HF,LR [omega = 0.2500]
    0.4280               HF 

   => Correlation Functionals <=

    1.0000    XC_MGGA_C_M11

   => LibXC Density Thresholds  <==

    XC_MGGA_C_M11:  1.00E-15 
    XC_HYB_MGGA_X_M11:  1.00E-11 

   => Molecular Quadrature <=

    Radial Scheme          =       TREUTLER
    Pruning Scheme         =           NONE
    Nuclear Scheme         =       TREUTLER

    BS radius alpha        =              1
    Pruning alpha          =              1
    Radial Points          =             75
    Spherical Points       =            302
    Total Points           =          21738
    Total Blocks           =            245
    Max Points             =            245
    Max Functions          =             67
    Weights Tolerance      =       1.00E-15

   => Loading Basis Set <=

    Name: (DEF2-TZVPPD AUX)
    Role: JKFIT
    Keyword: DF_BASIS_SCF
    atoms 1 entry CU         line  2356 file /mnt/storage/home/zw18965/.conda/envs/p4env/share/psi4/basis/def2-universal-jkfit.gbs 

  ==> Integral Setup <==

  DFHelper Memory: AOs need 0.020 GiB; user supplied 83.735 GiB. Using in-core AOs.

  ==> MemDFJK: Density-Fitted J/K Matrices <==

    J tasked:                   Yes
    K tasked:                   Yes
    wK tasked:                  Yes
    Omega:                2.500E-01
    OpenMP threads:              28
    Memory [MiB]:             85744
    Algorithm:                 Core
    Schwarz Cutoff:           1E-12
    Mask sparsity (%):       0.0000
    Fitting Condition:        1E-10

   => Auxiliary Basis Set <=

  Basis Set: (DEF2-TZVPPD AUX)
    Blend: DEF2-UNIVERSAL-JKFIT
    Number of shells: 58
    Number of basis functions: 264
    Number of Cartesian functions: 377
    Spherical Harmonics?: true
    Max angular momentum: 6

  Cached 100.0% of DFT collocation blocks in 0.084 [GiB].

  Minimum eigenvalue in the overlap matrix is 5.2350090433E-02.
  Reciprocal condition number of the overlap matrix is 1.9381610677E-02.
    Using symmetric orthogonalization.

  ==> Pre-Iterations <==

  SCF Guess: Core (One-Electron) Hamiltonian.

   -------------------------------------------------------
    Irrep   Nso     Nmo     Nalpha   Nbeta   Ndocc  Nsocc
   -------------------------------------------------------
     Ag        17      17       5       5       5       0
     B1g        6       6       1       1       1       0
     B2g        6       6       1       1       1       0
     B3g        6       6       1       1       1       0
     Au         2       2       0       0       0       0
     B1u       10      10       2       2       2       0
     B2u       10      10       2       2       2       0
     B3u       10      10       3       2       2       1
   -------------------------------------------------------
    Total      67      67      15      14      14       1
   -------------------------------------------------------

  ==> Iterations <==

                           Total Energy        Delta E     RMS |[F,P]|

    Occupation by irrep:
             Ag   B1g   B2g   B3g    Au   B1u   B2u   B3u 
    DOCC [     5,    0,    0,    0,    0,    3,    3,    2 ]
    SOCC [     0,    0,    1,    1,    0,    0,    0,    1 ]

   @DF-UKS iter   1: -1588.56113018038923   -1.58856e+03   4.39653e-01 DIIS
    Occupation by irrep:
             Ag   B1g   B2g   B3g    Au   B1u   B2u   B3u 
    DOCC [     5,    1,    1,    1,    0,    2,    2,    2 ]
    SOCC [     1,    0,    0,    0,    0,    0,    0,    0 ]

   @DF-UKS iter   2: -1519.05346805425097    6.95077e+01   5.12954e-01 DIIS
   @DF-UKS iter   3: -1636.76562500577074   -1.17712e+02   1.65722e-01 DIIS
   @DF-UKS iter   4: -1640.20884633799028   -3.44322e+00   1.62776e-02 DIIS
   @DF-UKS iter   5: -1640.23316139882945   -2.43151e-02   2.57215e-02 DIIS
   @DF-UKS iter   6: -1640.28320200385701   -5.00406e-02   1.32085e-02 DIIS
   @DF-UKS iter   7: -1640.30197526739425   -1.87733e-02   3.17109e-04 DIIS
   @DF-UKS iter   8: -1640.30201652422193   -4.12568e-05   2.30813e-04 DIIS
   @DF-UKS iter   9: -1640.30202859468977   -1.20705e-05   1.52705e-05 DIIS
   @DF-UKS iter  10: -1640.30202924060222   -6.45912e-07   6.47843e-06 DIIS
   @DF-UKS iter  11: -1640.30202936315891   -1.22557e-07   3.51691e-06 DIIS
   @DF-UKS iter  12: -1640.30202943337349   -7.02146e-08   6.02034e-07 DIIS
  Energy and wave function converged.


  ==> Post-Iterations <==

   Electrons on quadrature grid:
      Nalpha   =   14.9999999797 ; deviation = -2.025e-08
      Nbeta    =   13.9999999798 ; deviation = -2.024e-08
      Ntotal   =   28.9999999595 ; deviation = -4.049e-08 

   @Spin Contamination Metric:   9.871056583E-04
   @S^2 Expected:                7.500000000E-01
   @S^2 Observed:                7.509871057E-01
   @S   Expected:                5.000000000E-01
   @S   Observed:                5.000000000E-01

    Orbital Energies [Eh]
    ---------------------

    Alpha Occupied:                                                       

       1Ag  -323.909610     2Ag   -39.034051     1B3u  -34.299837  
       1B2u  -34.299837     1B1u  -34.299837     3Ag    -4.393288  
       2B3u   -2.913062     2B2u   -2.913062     2B1u   -2.913062  
       4Ag    -0.390072     1B1g   -0.390072     1B2g   -0.390072  
       1B3g   -0.390072     5Ag    -0.390072     6Ag    -0.242499  

    Alpha Virtual:                                                        

       3B1u    0.036923     3B2u    0.036924     3B3u    0.036924  
       7Ag     0.150261     4B1u    0.176272     4B2u    0.176272  
       4B3u    0.176272     8Ag     0.237820     2B3g    0.237820  
       2B2g    0.237820     2B1g    0.237820     9Ag     0.237820  
       5B1u    0.743600     5B2u    0.743600     5B3u    0.743600  
      10Ag     0.986438     3B3g    0.986438     3B2g    0.986438  
       3B1g    0.986438    11Ag     0.986438    12Ag     3.024961  
       6B1u    3.090668     6B2u    3.090668     6B3u    3.090668  
       7B1u    3.566479     7B2u    3.566479     7B3u    3.566480  
       1Au     3.566480     8B1u    3.566480     8B2u    3.566480  
       8B3u    3.566480    13Ag     3.798173     4B1g    3.798173  
       4B3g    3.798173    14Ag     3.798174     4B2g    3.798174  
      15Ag    13.011063     5B3g   13.011063     5B2g   13.011063  
       5B1g   13.011063    16Ag    13.011063     6B2g   13.011063  
       6B3g   13.011063    17Ag    13.011063     6B1g   13.011063  
       9B2u   13.222518     9B3u   13.222518     9B1u   13.222518  
       2Au    13.222518    10B3u   13.222518    10B2u   13.222518  
      10B1u   13.222518  

    Beta Occupied:                                                        

       1Ag  -323.908204     2Ag   -39.033891     1B3u  -34.300488  
       1B1u  -34.300488     1B2u  -34.300488     3Ag    -4.390038  
       2B1u   -2.912805     2B2u   -2.912805     2B3u   -2.912805  
       1B3g   -0.388437     1B2g   -0.388436     4Ag    -0.388436  
       1B1g   -0.388436     5Ag    -0.388436  

    Beta Virtual:                                                         

       6Ag    -0.032840     3B1u   -0.032731     3B2u   -0.032730  
       3B3u   -0.032730     7Ag     0.137893     4B1u    0.185774  
       4B2u    0.185774     4B3u    0.185774     8Ag     0.206590  
       2B3g    0.206590     2B2g    0.206590     2B1g    0.206590  
       9Ag     0.206590     5B3u    0.750201     5B2u    0.750202  
       5B1u    0.750202    10Ag     1.000273     3B3g    1.000273  
       3B2g    1.000273     3B1g    1.000273    11Ag     1.000273  
      12Ag     3.032710     6B1u    3.089842     6B2u    3.089843  
       6B3u    3.089843     7B1u    3.567974     7B2u    3.567974  
       7B3u    3.567975     1Au     3.567975     8B1u    3.567975  
       8B2u    3.567975     8B3u    3.567975    13Ag     3.793303  
       4B3g    3.793303     4B2g    3.793304     4B1g    3.793304  
      14Ag     3.793304    15Ag    13.010610     5B1g   13.010610  
       5B2g   13.010610    16Ag    13.010610     5B3g   13.010610  
      17Ag    13.010610     6B1g   13.010610     6B2g   13.010610  
       6B3g   13.010610     9B1u   13.218962     9B2u   13.218962  
       9B3u   13.218962     2Au    13.218962    10B1u   13.218962  
      10B2u   13.218962    10B3u   13.218962  

    Final Occupation by Irrep:
             Ag   B1g   B2g   B3g    Au   B1u   B2u   B3u 
    DOCC [     5,    1,    1,    1,    0,    2,    2,    2 ]
    SOCC [     1,    0,    0,    0,    0,    0,    0,    0 ]

  @DF-UKS Final Energy: -1640.30202943337349

   => Energetics <=

    Nuclear Repulsion Energy =              0.0000000000000000
    One-Electron Energy =               -2287.5163355675645107
    Two-Electron Energy =                 683.8514654564271495
    DFT Exchange-Correlation Energy =     -36.6371593222360374
    Empirical Dispersion Energy =           0.0000000000000000
    VV10 Nonlocal Energy =                  0.0000000000000000
    Total Energy =                      -1640.3020294333734910

  UHF NO Occupations:
  HONO-2 :    1B3g 1.9999026
  HONO-1 :    5 Ag 1.9999026
  HONO-0 :    6 Ag 1.0000000
  LUNO+0 :    7 Ag 0.0000974
  LUNO+1 :    2B3g 0.0000974
  LUNO+2 :    2B2g 0.0000974
  LUNO+3 :    2B1g 0.0000974


Computation Completed


Properties will be evaluated at   0.000000,   0.000000,   0.000000 [a0]

Properties computed using the SCF density matrix

  Nuclear Dipole Moment: [e a0]
     X:     0.0000      Y:     0.0000      Z:     0.0000

  Electronic Dipole Moment: [e a0]
     X:     0.0000      Y:     0.0000      Z:     0.0000

  Dipole Moment: [e a0]
     X:     0.0000      Y:     0.0000      Z:     0.0000     Total:     0.0000

  Dipole Moment: [D]
     X:     0.0000      Y:     0.0000      Z:     0.0000     Total:     0.0000


*** tstop() called on compute416.bc4.acrc.priv at Sun Nov  7 05:08:26 2021
Module time:
	user time   =      76.19 seconds =       1.27 minutes
	system time =       3.20 seconds =       0.05 minutes
	total time  =          5 seconds =       0.08 minutes
Total time:
	user time   =      76.19 seconds =       1.27 minutes
	system time =       3.20 seconds =       0.05 minutes
	total time  =          5 seconds =       0.08 minutes

    Psi4 stopped on: Sunday, 07 November 2021 05:08AM
    Psi4 wall time for execution: 0:00:04.52

*** Psi4 exiting successfully. Buy a developer a beer!
