
    -----------------------------------------------------------------------
          Psi4: An Open-Source Ab Initio Electronic Structure Package
                               Psi4 1.4.1 release

                         Git: Rev {HEAD} cd00f19 


    D. G. A. Smith, L. A. Burns, A. C. Simmonett, R. M. Parrish,
    M. C. Schieber, R. Galvelis, P. Kraus, H. Kruse, R. Di Remigio,
    A. Alenaizan, A. M. James, S. Lehtola, J. P. Misiewicz, M. Scheurer,
    R. A. Shaw, J. B. Schriber, Y. Xie, Z. L. Glick, D. A. Sirianni,
    J. S. O'Brien, J. M. Waldrop, A. Kumar, E. G. Hohenstein,
    B. P. Pritchard, B. R. Brooks, H. F. Schaefer III, A. Yu. Sokolov,
    K. Patkowski, A. E. DePrince III, U. Bozkaya, R. A. King,
    F. A. Evangelista, J. M. Turney, T. D. Crawford, C. D. Sherrill,
    J. Chem. Phys. 152(18) 184108 (2020). https://doi.org/10.1063/5.0006002

                            Additional Code Authors
    E. T. Seidl, C. L. Janssen, E. F. Valeev, M. L. Leininger,
    J. F. Gonthier, R. M. Richard, H. R. McAlexander, M. Saitow, X. Wang,
    P. Verma, and M. H. Lechner

             Previous Authors, Complete List of Code Contributors,
                       and Citations for Specific Modules
    https://github.com/psi4/psi4/blob/master/codemeta.json
    https://github.com/psi4/psi4/graphs/contributors
    http://psicode.org/psi4manual/master/introduction.html#citing-psifour

    -----------------------------------------------------------------------


    Psi4 started on: Sunday, 07 November 2021 05:08AM

    Process ID: 17335
    Host:       compute196.bc4.acrc.priv
    PSIDATADIR: /mnt/storage/home/zw18965/.conda/envs/p4env/share/psi4
    Memory:     500.0 MiB
    Threads:    28
    
  ==> Input File <==

--------------------------------------------------------------------------
memory 120 GB

molecule {
0 1
Cu         0.00000        0.00000        0.00000
Cu         0.00000        0.00000        2.22000
 }

set dynamic_level 1
set basis Def2-TZVPPD

energy("M11-D3BJ")
--------------------------------------------------------------------------

  Memory set to 111.759 GiB by Python driver.

Scratch directory: /tmp/

*** tstart() called on compute196.bc4.acrc.priv
*** at Sun Nov  7 05:08:20 2021

   => Loading Basis Set <=

    Name: DEF2-TZVPPD
    Role: ORBITAL
    Keyword: BASIS
    atoms 1-2 entry CU         line  1290 file /mnt/storage/home/zw18965/.conda/envs/p4env/share/psi4/basis/def2-tzvppd.gbs 

   => M11-D3(BJ): Empirical Dispersion <=

    Grimme's -D3 (BJ-damping) Dispersion Correction
    Grimme S.; Ehrlich S.; Goerigk L. (2011), J. Comput. Chem., 32: 1456
    Parametrisation from:    L. Goerigk, J. Phys. Chem. Lett. 6, 3891-3896, 2015

        s6 =       1.000000
        s8 =       2.811200
        a1 =       0.000000
        a2 =      10.138900


         ---------------------------------------------------------
                                   SCF
               by Justin Turney, Rob Parrish, Andy Simmonett
                          and Daniel G. A. Smith
                              RKS Reference
                       28 Threads, 114440 MiB Core
         ---------------------------------------------------------

  ==> Geometry <==

    Molecular point group: d2h
    Full point group: D_inf_h

    Geometry (in Angstrom), charge = 0, multiplicity = 1:

       Center              X                  Y                   Z               Mass       
    ------------   -----------------  -----------------  -----------------  -----------------
         CU           0.000000000000     0.000000000000    -1.110000000000    62.929597720000
         CU           0.000000000000     0.000000000000     1.110000000000    62.929597720000

  Running in d2h symmetry.

  Rotational constants: A = ************  B =      0.10871  C =      0.10871 [cm^-1]
  Rotational constants: A = ************  B =   3259.01448  C =   3259.01448 [MHz]
  Nuclear repulsion =  200.467582961022515

  Charge       = 0
  Multiplicity = 1
  Electrons    = 58
  Nalpha       = 29
  Nbeta        = 29

  ==> Algorithm <==

  SCF Algorithm Type is DF.
  DIIS enabled.
  MOM disabled.
  Fractional occupation disabled.
  Guess Type is SAD.
  Energy threshold   = 1.00e-06
  Density threshold  = 1.00e-06
  Integral threshold = 1.00e-12

  ==> Primary Basis <==

  Basis Set: DEF2-TZVPPD
    Blend: DEF2-TZVPPD
    Number of shells: 38
    Number of basis functions: 134
    Number of Cartesian functions: 166
    Spherical Harmonics?: true
    Max angular momentum: 4

  ==> DFT Potential <==

   => Composite Functional: M11-D3BJ <= 

    M11 Meta-GGA XC Functional
(10.1021/jz201170d)
    R. Peverati and D. G. Truhlar, J. Phys. Chem. Lett., 2, 2810, 2011


    Deriv               =              1
    GGA                 =           TRUE
    Meta                =           TRUE

    Exchange Hybrid     =           TRUE
    MP2 Hybrid          =          FALSE

   => Exchange Functionals <=

    1.0000   XC_HYB_MGGA_X_M11 [omega = 0.2500]

   => Exact (HF) Exchange <=

    0.5720            HF,LR [omega = 0.2500]
    0.4280               HF 

   => Correlation Functionals <=

    1.0000    XC_MGGA_C_M11

   => LibXC Density Thresholds  <==

    XC_MGGA_C_M11:  1.00E-15 
    XC_HYB_MGGA_X_M11:  1.00E-11 

   => Molecular Quadrature <=

    Radial Scheme          =       TREUTLER
    Pruning Scheme         =           NONE
    Nuclear Scheme         =       TREUTLER

    BS radius alpha        =              1
    Pruning alpha          =              1
    Radial Points          =             75
    Spherical Points       =            302
    Total Points           =          43516
    Total Blocks           =            428
    Max Points             =            252
    Max Functions          =            129
    Weights Tolerance      =       1.00E-15

   => Loading Basis Set <=

    Name: (DEF2-TZVPPD AUX)
    Role: JKFIT
    Keyword: DF_BASIS_SCF
    atoms 1-2 entry CU         line  2356 file /mnt/storage/home/zw18965/.conda/envs/p4env/share/psi4/basis/def2-universal-jkfit.gbs 

  ==> Integral Setup <==

  DFHelper Memory: AOs need 0.145 GiB; user supplied 83.535 GiB. Using in-core AOs.

  ==> MemDFJK: Density-Fitted J/K Matrices <==

    J tasked:                   Yes
    K tasked:                   Yes
    wK tasked:                  Yes
    Omega:                2.500E-01
    OpenMP threads:              28
    Memory [MiB]:             85540
    Algorithm:                 Core
    Schwarz Cutoff:           1E-12
    Mask sparsity (%):       4.9231
    Fitting Condition:        1E-10

   => Auxiliary Basis Set <=

  Basis Set: (DEF2-TZVPPD AUX)
    Blend: DEF2-UNIVERSAL-JKFIT
    Number of shells: 116
    Number of basis functions: 528
    Number of Cartesian functions: 754
    Spherical Harmonics?: true
    Max angular momentum: 6

  Cached 100.0% of DFT collocation blocks in 0.284 [GiB].

  Minimum eigenvalue in the overlap matrix is 1.8045865433E-03.
  Reciprocal condition number of the overlap matrix is 4.2878613612E-04.
    Using symmetric orthogonalization.

  ==> Pre-Iterations <==

  SCF Guess: Superposition of Atomic Densities via on-the-fly atomic UHF (no occupation information).

   -------------------------
    Irrep   Nso     Nmo    
   -------------------------
     Ag        27      27 
     B1g        8       8 
     B2g       16      16 
     B3g       16      16 
     Au         8       8 
     B1u       27      27 
     B2u       16      16 
     B3u       16      16 
   -------------------------
    Total     134     134
   -------------------------

  ==> Iterations <==

                           Total Energy        Delta E     RMS |[F,P]|

   @DF-RKS iter SAD: -3275.08773844755069   -3.27509e+03   0.00000e+00 
    Occupation by irrep:
             Ag   B1g   B2g   B3g    Au   B1u   B2u   B3u 
    DOCC [     9,    1,    3,    3,    0,    7,    3,    3 ]

   @DF-RKS iter   1: -3275.34962050839613   -2.61882e-01   1.12065e-01 DIIS
    Occupation by irrep:
             Ag   B1g   B2g   B3g    Au   B1u   B2u   B3u 
    DOCC [     8,    1,    3,    3,    1,    7,    3,    3 ]

   @DF-RKS iter   2: -3192.98233611363867    8.23673e+01   2.37366e-01 DIIS
   @DF-RKS iter   3: -3278.14170285464297   -8.51594e+01   6.94570e-02 DIIS
   @DF-RKS iter   4: -3280.02641782548426   -1.88471e+00   3.61598e-02 DIIS
   @DF-RKS iter   5: -3280.62088444499159   -5.94467e-01   9.05346e-03 DIIS
   @DF-RKS iter   6: -3280.65761537480103   -3.67309e-02   1.23210e-03 DIIS
   @DF-RKS iter   7: -3280.65879597784033   -1.18060e-03   1.96746e-04 DIIS
   @DF-RKS iter   8: -3280.65896974173393   -1.73764e-04   1.08984e-04 DIIS
   @DF-RKS iter   9: -3280.65902545371455   -5.57120e-05   2.96126e-05 DIIS
   @DF-RKS iter  10: -3280.65903572325988   -1.02695e-05   2.28196e-05 DIIS
   @DF-RKS iter  11: -3280.65903718919844   -1.46594e-06   3.84277e-06 DIIS
   @DF-RKS iter  12: -3280.65903732212246   -1.32924e-07   1.22990e-06 DIIS
   @DF-RKS iter  13: -3280.65903732807919   -5.95674e-09   1.68442e-07 DIIS
  Energy and wave function converged.


  ==> Post-Iterations <==

   Electrons on quadrature grid:
      Ntotal   =   58.0000057123 ; deviation = 5.712e-06 

    Orbital Energies [Eh]
    ---------------------

    Doubly Occupied:                                                      

       1B1u -323.896164     1Ag  -323.896156     2B1u  -39.025575  
       2Ag   -39.025499     3B1u  -34.291381     3Ag   -34.291371  
       1B3g  -34.290867     1B2g  -34.290867     1B2u  -34.290858  
       1B3u  -34.290858     4Ag    -4.382281     4B1u   -4.381546  
       5Ag    -2.907121     2B2u   -2.901321     2B3u   -2.901321  
       5B1u   -2.900785     2B3g   -2.900760     2B2g   -2.900760  
       6Ag    -0.409118     3B3u   -0.397789     3B2u   -0.397789  
       7Ag    -0.379858     1B1g   -0.379842     6B1u   -0.371645  
       1Au    -0.371631     3B2g   -0.357772     3B3g   -0.357772  
       7B1u   -0.353878     8Ag    -0.262266  

    Virtual:                                                              

       8B1u   -0.011139     4B2u    0.030052     4B3u    0.030052  
       9Ag     0.030313     4B2g    0.056757     4B3g    0.056757  
       9B1u    0.057023    10Ag     0.149206     5B3u    0.156211  
       5B2u    0.156211    11Ag     0.179624    10B1u    0.209879  
       5B3g    0.228078     5B2g    0.228078    12Ag     0.232762  
       2B1g    0.232763    11B1u    0.269969     6B3u    0.280207  
       6B2u    0.280207    12B1u    0.289246     2Au     0.289247  
      13Ag     0.356668     6B3g    0.374543     6B2g    0.374543  
      13B1u    0.574734    14Ag     0.727076     7B3u    0.745612  
       7B2u    0.745612     7B2g    0.815661     7B3g    0.815661  
      14B1u    0.870239     8B3u    0.941074     8B2u    0.941074  
      15Ag     0.971320     3B1g    0.971344    15B1u    1.054081  
       3Au     1.054090    16Ag     1.088643     8B2g    1.210389  
       8B3g    1.210389    16B1u    1.429977    17Ag     3.077328  
       9B3u    3.091145     9B2u    3.091145    17B1u    3.174261  
       9B2g    3.176906     9B3g    3.176906    18Ag     3.246440  
      18B1u    3.526098    10B3u    3.554373    10B2u    3.554373  
      19Ag     3.571002    20Ag     3.580919     4B1g    3.580976  
      11B2u    3.592795    11B3u    3.592795    10B3g    3.593388  
      10B2g    3.593388    19B1u    3.597632     4Au     3.597677  
      11B2g    3.620053    11B3g    3.620053    20B1u    3.756720  
       5B1g    3.805683    21Ag     3.805807     5Au     3.845095  
      21B1u    3.845201    12B2u    3.880329    12B3u    3.880329  
      12B3g    3.940248    12B2g    3.940248    22Ag     4.141963  
      22B1u    4.229042    23Ag    13.023637    13B2u   13.023666  
      13B3u   13.023666     6B1g   13.024149     6Au    13.024181  
      13B3g   13.024297    13B2g   13.024297    24Ag    13.024378  
      23B1u   13.024412    14B3u   13.025284    14B2u   13.025284  
      14B2g   13.025289    14B3g   13.025289    24B1u   13.025973  
      25Ag    13.026320    25B1u   13.026322     7Au    13.026495  
       7B1g   13.026495    26Ag    13.223235    15B2u   13.228717  
      15B3u   13.228717     8B1g   13.231315    27Ag    13.231466  
      16B3u   13.232481    16B2u   13.232481    15B2g   13.232647  
      15B3g   13.232647     8Au    13.234807    26B1u   13.234957  
      16B3g   13.259100    16B2g   13.259100    27B1u   13.376991  

    Final Occupation by Irrep:
             Ag   B1g   B2g   B3g    Au   B1u   B2u   B3u 
    DOCC [     8,    1,    3,    3,    1,    7,    3,    3 ]

  @DF-RKS Final Energy: -3280.65903732807919

   => Energetics <=

    Nuclear Repulsion Energy =            200.4675829610225151
    One-Electron Energy =               -4976.6591110469871637
    Two-Electron Energy =                1568.8343220741123787
    DFT Exchange-Correlation Energy =     -73.3013016762264584
    Empirical Dispersion Energy =          -0.0005296400000000
    VV10 Nonlocal Energy =                  0.0000000000000000
    Total Energy =                      -3280.6590373280787389

Computation Completed


Properties will be evaluated at   0.000000,   0.000000,   0.000000 [a0]

Properties computed using the SCF density matrix

  Nuclear Dipole Moment: [e a0]
     X:     0.0000      Y:     0.0000      Z:     0.0000

  Electronic Dipole Moment: [e a0]
     X:     0.0000      Y:     0.0000      Z:     0.0000

  Dipole Moment: [e a0]
     X:     0.0000      Y:     0.0000      Z:     0.0000     Total:     0.0000

  Dipole Moment: [D]
     X:     0.0000      Y:     0.0000      Z:     0.0000     Total:     0.0000


*** tstop() called on compute196.bc4.acrc.priv at Sun Nov  7 05:08:24 2021
Module time:
	user time   =      54.30 seconds =       0.91 minutes
	system time =       2.83 seconds =       0.05 minutes
	total time  =          4 seconds =       0.07 minutes
Total time:
	user time   =      54.30 seconds =       0.91 minutes
	system time =       2.83 seconds =       0.05 minutes
	total time  =          4 seconds =       0.07 minutes

    Psi4 stopped on: Sunday, 07 November 2021 05:08AM
    Psi4 wall time for execution: 0:00:03.83

*** Psi4 exiting successfully. Buy a developer a beer!
