
    -----------------------------------------------------------------------
          Psi4: An Open-Source Ab Initio Electronic Structure Package
                               Psi4 1.4.1 release

                         Git: Rev {HEAD} cd00f19 


    D. G. A. Smith, L. A. Burns, A. C. Simmonett, R. M. Parrish,
    M. C. Schieber, R. Galvelis, P. Kraus, H. Kruse, R. Di Remigio,
    A. Alenaizan, A. M. James, S. Lehtola, J. P. Misiewicz, M. Scheurer,
    R. A. Shaw, J. B. Schriber, Y. Xie, Z. L. Glick, D. A. Sirianni,
    J. S. O'Brien, J. M. Waldrop, A. Kumar, E. G. Hohenstein,
    B. P. Pritchard, B. R. Brooks, H. F. Schaefer III, A. Yu. Sokolov,
    K. Patkowski, A. E. DePrince III, U. Bozkaya, R. A. King,
    F. A. Evangelista, J. M. Turney, T. D. Crawford, C. D. Sherrill,
    J. Chem. Phys. 152(18) 184108 (2020). https://doi.org/10.1063/5.0006002

                            Additional Code Authors
    E. T. Seidl, C. L. Janssen, E. F. Valeev, M. L. Leininger,
    J. F. Gonthier, R. M. Richard, H. R. McAlexander, M. Saitow, X. Wang,
    P. Verma, and M. H. Lechner

             Previous Authors, Complete List of Code Contributors,
                       and Citations for Specific Modules
    https://github.com/psi4/psi4/blob/master/codemeta.json
    https://github.com/psi4/psi4/graphs/contributors
    http://psicode.org/psi4manual/master/introduction.html#citing-psifour

    -----------------------------------------------------------------------


    Psi4 started on: Sunday, 07 November 2021 05:07AM

    Process ID: 22681
    Host:       compute297.bc4.acrc.priv
    PSIDATADIR: /mnt/storage/home/zw18965/.conda/envs/p4env/share/psi4
    Memory:     500.0 MiB
    Threads:    28
    
  ==> Input File <==

--------------------------------------------------------------------------
memory 120 GB

molecule {
0 1
Cu         0.00000        0.00000        0.00000
Ag         0.00000        0.00000        2.25929
 }

set dynamic_level 1
set basis Def2-TZVPPD

energy("M11-D3BJ")
--------------------------------------------------------------------------

  Memory set to 111.759 GiB by Python driver.

Scratch directory: /tmp/

*** tstart() called on compute297.bc4.acrc.priv
*** at Sun Nov  7 05:07:21 2021

   => Loading Basis Set <=

    Name: DEF2-TZVPPD
    Role: ORBITAL
    Keyword: BASIS
    atoms 1 entry CU         line  1290 file /mnt/storage/home/zw18965/.conda/envs/p4env/share/psi4/basis/def2-tzvppd.gbs 
    atoms 2 entry AG         line  2174 (ECP: line  3646) file /mnt/storage/home/zw18965/.conda/envs/p4env/share/psi4/basis/def2-tzvppd.gbs 

    !!!  WARNING: ECP capability is in beta. Please check occupations closely.  !!!

   => M11-D3(BJ): Empirical Dispersion <=

    Grimme's -D3 (BJ-damping) Dispersion Correction
    Grimme S.; Ehrlich S.; Goerigk L. (2011), J. Comput. Chem., 32: 1456
    Parametrisation from:    L. Goerigk, J. Phys. Chem. Lett. 6, 3891-3896, 2015

        s6 =       1.000000
        s8 =       2.811200
        a1 =       0.000000
        a2 =      10.138900


         ---------------------------------------------------------
                                   SCF
               by Justin Turney, Rob Parrish, Andy Simmonett
                          and Daniel G. A. Smith
                              RKS Reference
                       28 Threads, 114440 MiB Core
         ---------------------------------------------------------

  ==> Geometry <==

    Molecular point group: c2v
    Full point group: C_inf_v

    Geometry (in Angstrom), charge = 0, multiplicity = 1:

       Center              X                  Y                   Z               Mass       
    ------------   -----------------  -----------------  -----------------  -----------------
         CU           0.000000000000     0.000000000000    -1.422145295334    62.929597720000
         AG           0.000000000000     0.000000000000     0.837144704666   106.905091600000

  Running in c2v symmetry.

  Rotational constants: A = ************  B =      0.08337  C =      0.08337 [cm^-1]
  Rotational constants: A = ************  B =   2499.46060  C =   2499.46060 [MHz]
  Nuclear repulsion =  129.056758131612156

  Charge       = 0
  Multiplicity = 1
  Electrons    = 48
  Nalpha       = 24
  Nbeta        = 24

  ==> Algorithm <==

  SCF Algorithm Type is DF.
  DIIS enabled.
  MOM disabled.
  Fractional occupation disabled.
  Guess Type is SAD.
  Energy threshold   = 1.00e-06
  Density threshold  = 1.00e-06
  Integral threshold = 1.00e-12

  ==> Primary Basis <==

  Basis Set: DEF2-TZVPPD
    Blend: DEF2-TZVPPD
    Number of shells: 35
    Number of basis functions: 123
    Number of Cartesian functions: 154
    Spherical Harmonics?: true
    Max angular momentum: 4

  Core potential: DEF2-TZVPPD
    Number of shells: 4
    Number of ECP primitives: 14
    Number of ECP core electrons: 28
    Max angular momentum: 3

  ==> DFT Potential <==

   => Composite Functional: M11-D3BJ <= 

    M11 Meta-GGA XC Functional
(10.1021/jz201170d)
    R. Peverati and D. G. Truhlar, J. Phys. Chem. Lett., 2, 2810, 2011


    Deriv               =              1
    GGA                 =           TRUE
    Meta                =           TRUE

    Exchange Hybrid     =           TRUE
    MP2 Hybrid          =          FALSE

   => Exchange Functionals <=

    1.0000   XC_HYB_MGGA_X_M11 [omega = 0.2500]

   => Exact (HF) Exchange <=

    0.5720            HF,LR [omega = 0.2500]
    0.4280               HF 

   => Correlation Functionals <=

    1.0000    XC_MGGA_C_M11

   => LibXC Density Thresholds  <==

    XC_MGGA_C_M11:  1.00E-15 
    XC_HYB_MGGA_X_M11:  1.00E-11 

   => Molecular Quadrature <=

    Radial Scheme          =       TREUTLER
    Pruning Scheme         =           NONE
    Nuclear Scheme         =       TREUTLER

    BS radius alpha        =              1
    Pruning alpha          =              1
    Radial Points          =             75
    Spherical Points       =            302
    Total Points           =          42944
    Total Blocks           =            427
    Max Points             =            256
    Max Functions          =            121
    Weights Tolerance      =       1.00E-15

   => Loading Basis Set <=

    Name: (DEF2-TZVPPD AUX)
    Role: JKFIT
    Keyword: DF_BASIS_SCF
    atoms 1 entry CU         line  2356 file /mnt/storage/home/zw18965/.conda/envs/p4env/share/psi4/basis/def2-universal-jkfit.gbs 
    atoms 2 entry AG         line  4364 file /mnt/storage/home/zw18965/.conda/envs/p4env/share/psi4/basis/def2-universal-jkfit.gbs 

  ==> Integral Setup <==

  DFHelper Memory: AOs need 0.125 GiB; user supplied 83.548 GiB. Using in-core AOs.

  ==> MemDFJK: Density-Fitted J/K Matrices <==

    J tasked:                   Yes
    K tasked:                   Yes
    wK tasked:                  Yes
    Omega:                2.500E-01
    OpenMP threads:              28
    Memory [MiB]:             85552
    Algorithm:                 Core
    Schwarz Cutoff:           1E-12
    Mask sparsity (%):       1.5070
    Fitting Condition:        1E-10

   => Auxiliary Basis Set <=

  Basis Set: (DEF2-TZVPPD AUX)
    Blend: DEF2-UNIVERSAL-JKFIT
    Number of shells: 107
    Number of basis functions: 519
    Number of Cartesian functions: 761
    Spherical Harmonics?: true
    Max angular momentum: 6

  Cached 100.0% of DFT collocation blocks in 0.271 [GiB].

  Minimum eigenvalue in the overlap matrix is 1.3894909060E-03.
  Reciprocal condition number of the overlap matrix is 3.1777066296E-04.
    Using symmetric orthogonalization.

  ==> Pre-Iterations <==

  SCF Guess: Superposition of Atomic Densities via on-the-fly atomic UHF (no occupation information).

   -------------------------
    Irrep   Nso     Nmo    
   -------------------------
     A1        50      50 
     A2        15      15 
     B1        29      29 
     B2        29      29 
   -------------------------
    Total     123     123
   -------------------------

  ==> Iterations <==

                           Total Energy        Delta E     RMS |[F,P]|

   @DF-RKS iter SAD: -1784.02080363485356   -1.78402e+03   0.00000e+00 
    Occupation by irrep:
             A1    A2    B1    B2 
    DOCC [    12,    1,    6,    5 ]

   @DF-RKS iter   1: -1783.56927728255869    4.51526e-01   6.61673e-02 DIIS
    Occupation by irrep:
             A1    A2    B1    B2 
    DOCC [    12,    2,    5,    5 ]

   @DF-RKS iter   2: -1739.85503790362532    4.37142e+01   1.37338e-01 DIIS
   @DF-RKS iter   3: -1785.17941023498383   -4.53244e+01   4.18208e-02 DIIS
   @DF-RKS iter   4: -1786.95672796205190   -1.77732e+00   1.27676e-02 DIIS
   @DF-RKS iter   5: -1787.10393339926577   -1.47205e-01   9.02527e-03 DIIS
   @DF-RKS iter   6: -1787.16895127969292   -6.50179e-02   2.02556e-03 DIIS
   @DF-RKS iter   7: -1787.17545719897953   -6.50592e-03   7.49549e-04 DIIS
   @DF-RKS iter   8: -1787.17717380820682   -1.71661e-03   3.74787e-04 DIIS
   @DF-RKS iter   9: -1787.17754842239924   -3.74614e-04   9.98354e-05 DIIS
   @DF-RKS iter  10: -1787.17760753660241   -5.91142e-05   6.79846e-05 DIIS
   @DF-RKS iter  11: -1787.17761407846956   -6.54187e-06   1.11397e-05 DIIS
   @DF-RKS iter  12: -1787.17761483113350   -7.52664e-07   3.78891e-06 DIIS
   @DF-RKS iter  13: -1787.17761494305091   -1.11917e-07   1.22166e-06 DIIS
   @DF-RKS iter  14: -1787.17761496052708   -1.74762e-08   3.39296e-07 DIIS
  Energy and wave function converged.


  ==> Post-Iterations <==

   Electrons on quadrature grid:
      Ntotal   =   47.9999967230 ; deviation = -3.277e-06 

    Orbital Energies [Eh]
    ---------------------

    Doubly Occupied:                                                      

       1A1  -323.900946     2A1   -39.029847     3A1   -34.295498  
       1B2   -34.295383     1B1   -34.295383     4A1    -4.387460  
       5A1    -3.849037     6A1    -2.909961     2B2    -2.906868  
       2B1    -2.906868     7A1    -2.445929     3B2    -2.439565  
       3B1    -2.439565     8A1    -0.458942     4B1    -0.444109  
       4B2    -0.444109     1A2    -0.426136     9A1    -0.426115  
      10A1    -0.381268     2A2    -0.381246     5B2    -0.372297  
       5B1    -0.372297    11A1    -0.367035    12A1    -0.265344  

    Virtual:                                                              

      13A1    -0.010753     6B1     0.031334     6B2     0.031334  
      14A1     0.031714     7B1     0.070945     7B2     0.070945  
      15A1     0.080649    16A1     0.157109     8B1     0.177454  
       8B2     0.177454    17A1     0.201855    18A1     0.205499  
      19A1     0.245229     3A2     0.245229     9B1     0.257263  
       9B2     0.257263    20A1     0.314928    10B1     0.337086  
      10B2     0.337086    21A1     0.524584     4A2     0.542041  
      22A1     0.542049    11B2     0.650554    11B1     0.650554  
      23A1     0.712249    12B2     0.762278    12B1     0.762278  
      24A1     0.851174    25A1     0.997248     5A2     0.997294  
      13B1     1.014266    13B2     1.014266    26A1     1.129369  
      14B2     1.735819    14B1     1.735819     6A2     1.736850  
      27A1     1.736884    15B1     1.741950    15B2     1.741950  
      28A1     1.787267    16B2     1.804113    16B1     1.804113  
      29A1     1.915233    30A1     2.190137     7A2     2.190197  
      31A1     2.277040    17B2     2.277682    17B1     2.277683  
      32A1     2.388510    18B1     3.117833    18B2     3.117833  
      33A1     3.231884    34A1     3.312513    35A1     3.583567  
       8A2     3.583674    19B2     3.585637    19B1     3.585637  
      20B1     3.599792    20B2     3.599792    36A1     3.715223  
       9A2     3.811069    37A1     3.811202    21B2     3.853881  
      21B1     3.853881    38A1     4.078778    22B2     4.914397  
      22B1     4.914397    39A1     4.917904    10A2     4.918035  
      23B2     4.977302    23B1     4.977302    40A1     5.181341  
      41A1     5.681910    11A2     5.682073    24B1     5.684150  
      24B2     5.684151    42A1     5.686524    12A2     5.686705  
      25B1     5.688836    25B2     5.688836    43A1     5.708132  
      26B2    13.016572    26B1    13.016572    13A2    13.017355  
      44A1    13.017765    45A1    13.018102    27B2    13.018760  
      27B1    13.018760    46A1    13.019870    14A2    13.020110  
      28B2    13.226799    28B1    13.226799    15A2    13.227516  
      47A1    13.227735    29B2    13.236623    29B1    13.236623  
      48A1    13.279007    49A1    33.492854    50A1   110.576784  

    Final Occupation by Irrep:
             A1    A2    B1    B2 
    DOCC [    12,    2,    5,    5 ]

  @DF-RKS Final Energy: -1787.17761496052708

   => Energetics <=

    Nuclear Repulsion Energy =            129.0567581316121561
    One-Electron Energy =               -2807.2750364932717275
    Two-Electron Energy =                 934.5751544963902688
    DFT Exchange-Correlation Energy =     -43.5338220652579579
    Empirical Dispersion Energy =          -0.0006690300000000
    VV10 Nonlocal Energy =                  0.0000000000000000
    Total Energy =                      -1787.1776149605270803

Computation Completed


Properties will be evaluated at   0.000000,   0.000000,   0.000000 [a0]

Properties computed using the SCF density matrix

  Nuclear Dipole Moment: [e a0]
     X:     0.0000      Y:     0.0000      Z:   -47.8790

  Electronic Dipole Moment: [e a0]
     X:     0.0000      Y:     0.0000      Z:    47.7110

  Dipole Moment: [e a0]
     X:     0.0000      Y:     0.0000      Z:    -0.1679     Total:     0.1679

  Dipole Moment: [D]
     X:     0.0000      Y:     0.0000      Z:    -0.4268     Total:     0.4268


*** tstop() called on compute297.bc4.acrc.priv at Sun Nov  7 05:07:29 2021
Module time:
	user time   =      80.91 seconds =       1.35 minutes
	system time =       3.35 seconds =       0.06 minutes
	total time  =          8 seconds =       0.13 minutes
Total time:
	user time   =      80.91 seconds =       1.35 minutes
	system time =       3.35 seconds =       0.06 minutes
	total time  =          8 seconds =       0.13 minutes

    Psi4 stopped on: Sunday, 07 November 2021 05:07AM
    Psi4 wall time for execution: 0:00:08.22

*** Psi4 exiting successfully. Buy a developer a beer!
