
    -----------------------------------------------------------------------
          Psi4: An Open-Source Ab Initio Electronic Structure Package
                               Psi4 1.4.1 release

                         Git: Rev {HEAD} cd00f19 


    D. G. A. Smith, L. A. Burns, A. C. Simmonett, R. M. Parrish,
    M. C. Schieber, R. Galvelis, P. Kraus, H. Kruse, R. Di Remigio,
    A. Alenaizan, A. M. James, S. Lehtola, J. P. Misiewicz, M. Scheurer,
    R. A. Shaw, J. B. Schriber, Y. Xie, Z. L. Glick, D. A. Sirianni,
    J. S. O'Brien, J. M. Waldrop, A. Kumar, E. G. Hohenstein,
    B. P. Pritchard, B. R. Brooks, H. F. Schaefer III, A. Yu. Sokolov,
    K. Patkowski, A. E. DePrince III, U. Bozkaya, R. A. King,
    F. A. Evangelista, J. M. Turney, T. D. Crawford, C. D. Sherrill,
    J. Chem. Phys. 152(18) 184108 (2020). https://doi.org/10.1063/5.0006002

                            Additional Code Authors
    E. T. Seidl, C. L. Janssen, E. F. Valeev, M. L. Leininger,
    J. F. Gonthier, R. M. Richard, H. R. McAlexander, M. Saitow, X. Wang,
    P. Verma, and M. H. Lechner

             Previous Authors, Complete List of Code Contributors,
                       and Citations for Specific Modules
    https://github.com/psi4/psi4/blob/master/codemeta.json
    https://github.com/psi4/psi4/graphs/contributors
    http://psicode.org/psi4manual/master/introduction.html#citing-psifour

    -----------------------------------------------------------------------


    Psi4 started on: Sunday, 07 November 2021 05:07AM

    Process ID: 10515
    Host:       compute431.bc4.acrc.priv
    PSIDATADIR: /mnt/storage/home/zw18965/.conda/envs/p4env/share/psi4
    Memory:     500.0 MiB
    Threads:    28
    
  ==> Input File <==

--------------------------------------------------------------------------
memory 120 GB

molecule {
1 1
Cu         0.00000        0.00000       -0.49385
O          0.00000        0.00000        1.33615
H         -0.83138        0.00000        1.81615
H          0.83138        0.00000        1.81615
 }

set dynamic_level 1
set basis Def2-TZVPPD

energy("M11-D3BJ")
--------------------------------------------------------------------------

  Memory set to 111.759 GiB by Python driver.

Scratch directory: /tmp/

*** tstart() called on compute431.bc4.acrc.priv
*** at Sun Nov  7 05:07:20 2021

   => Loading Basis Set <=

    Name: DEF2-TZVPPD
    Role: ORBITAL
    Keyword: BASIS
    atoms 1   entry CU         line  1290 file /mnt/storage/home/zw18965/.conda/envs/p4env/share/psi4/basis/def2-tzvppd.gbs 
    atoms 2   entry O          line   218 file /mnt/storage/home/zw18965/.conda/envs/p4env/share/psi4/basis/def2-tzvppd.gbs 
    atoms 3-4 entry H          line    14 file /mnt/storage/home/zw18965/.conda/envs/p4env/share/psi4/basis/def2-tzvppd.gbs 

   => M11-D3(BJ): Empirical Dispersion <=

    Grimme's -D3 (BJ-damping) Dispersion Correction
    Grimme S.; Ehrlich S.; Goerigk L. (2011), J. Comput. Chem., 32: 1456
    Parametrisation from:    L. Goerigk, J. Phys. Chem. Lett. 6, 3891-3896, 2015

        s6 =       1.000000
        s8 =       2.811200
        a1 =       0.000000
        a2 =      10.138900


         ---------------------------------------------------------
                                   SCF
               by Justin Turney, Rob Parrish, Andy Simmonett
                          and Daniel G. A. Smith
                              RKS Reference
                       28 Threads, 114440 MiB Core
         ---------------------------------------------------------

  ==> Geometry <==

    Molecular point group: c2v
    Full point group: C2v

    Geometry (in Angstrom), charge = 1, multiplicity = 1:

       Center              X                  Y                   Z               Mass       
    ------------   -----------------  -----------------  -----------------  -----------------
         CU           0.000000000000    -0.000000000000    -0.419159591420    62.929597720000
         O            0.000000000000    -0.000000000000     1.410840408580    15.994914619570
         H           -0.831380000000    -0.000000000000     1.890840408580     1.007825032230
         H            0.831380000000     0.000000000000     1.890840408580     1.007825032230

  Running in c2v symmetry.

  Rotational constants: A =     12.09991  B =      0.33648  C =      0.32737 [cm^-1]
  Rotational constants: A = 362746.23798  B =  10087.34150  C =   9814.41957 [MHz]
  Nuclear repulsion =   88.726523002405358

  Charge       = 1
  Multiplicity = 1
  Electrons    = 38
  Nalpha       = 19
  Nbeta        = 19

  ==> Algorithm <==

  SCF Algorithm Type is DF.
  DIIS enabled.
  MOM disabled.
  Fractional occupation disabled.
  Guess Type is SAD.
  Energy threshold   = 1.00e-06
  Density threshold  = 1.00e-06
  Integral threshold = 1.00e-12

  ==> Primary Basis <==

  Basis Set: DEF2-TZVPPD
    Blend: DEF2-TZVPPD
    Number of shells: 47
    Number of basis functions: 141
    Number of Cartesian functions: 165
    Spherical Harmonics?: true
    Max angular momentum: 4

  ==> DFT Potential <==

   => Composite Functional: M11-D3BJ <= 

    M11 Meta-GGA XC Functional
(10.1021/jz201170d)
    R. Peverati and D. G. Truhlar, J. Phys. Chem. Lett., 2, 2810, 2011


    Deriv               =              1
    GGA                 =           TRUE
    Meta                =           TRUE

    Exchange Hybrid     =           TRUE
    MP2 Hybrid          =          FALSE

   => Exchange Functionals <=

    1.0000   XC_HYB_MGGA_X_M11 [omega = 0.2500]

   => Exact (HF) Exchange <=

    0.5720            HF,LR [omega = 0.2500]
    0.4280               HF 

   => Correlation Functionals <=

    1.0000    XC_MGGA_C_M11

   => LibXC Density Thresholds  <==

    XC_MGGA_C_M11:  1.00E-15 
    XC_HYB_MGGA_X_M11:  1.00E-11 

   => Molecular Quadrature <=

    Radial Scheme          =       TREUTLER
    Pruning Scheme         =           NONE
    Nuclear Scheme         =       TREUTLER

    BS radius alpha        =              1
    Pruning alpha          =              1
    Radial Points          =             75
    Spherical Points       =            302
    Total Points           =          87793
    Total Blocks           =            725
    Max Points             =            256
    Max Functions          =            140
    Weights Tolerance      =       1.00E-15

   => Loading Basis Set <=

    Name: (DEF2-TZVPPD AUX)
    Role: JKFIT
    Keyword: DF_BASIS_SCF
    atoms 1   entry CU         line  2356 file /mnt/storage/home/zw18965/.conda/envs/p4env/share/psi4/basis/def2-universal-jkfit.gbs 
    atoms 2   entry O          line   318 file /mnt/storage/home/zw18965/.conda/envs/p4env/share/psi4/basis/def2-universal-jkfit.gbs 
    atoms 3-4 entry H          line    18 file /mnt/storage/home/zw18965/.conda/envs/p4env/share/psi4/basis/def2-universal-jkfit.gbs 

  ==> Integral Setup <==

  DFHelper Memory: AOs need 0.122 GiB; user supplied 83.109 GiB. Using in-core AOs.

  ==> MemDFJK: Density-Fitted J/K Matrices <==

    J tasked:                   Yes
    K tasked:                   Yes
    wK tasked:                  Yes
    Omega:                2.500E-01
    OpenMP threads:              28
    Memory [MiB]:             85103
    Algorithm:                 Core
    Schwarz Cutoff:           1E-12
    Mask sparsity (%):       0.3923
    Fitting Condition:        1E-10

   => Auxiliary Basis Set <=

  Basis Set: (DEF2-TZVPPD AUX)
    Blend: DEF2-UNIVERSAL-JKFIT
    Number of shells: 95
    Number of basis functions: 377
    Number of Cartesian functions: 510
    Spherical Harmonics?: true
    Max angular momentum: 6

  Cached 100.0% of DFT collocation blocks in 0.710 [GiB].

  Minimum eigenvalue in the overlap matrix is 2.0118118913E-04.
  Reciprocal condition number of the overlap matrix is 2.8635659721E-05.
    Using symmetric orthogonalization.

  ==> Pre-Iterations <==

  SCF Guess: Superposition of Atomic Densities via on-the-fly atomic UHF (no occupation information).

   -------------------------
    Irrep   Nso     Nmo    
   -------------------------
     A1        57      57 
     A2        17      17 
     B1        37      37 
     B2        30      30 
   -------------------------
    Total     141     141
   -------------------------

  ==> Iterations <==

                           Total Energy        Delta E     RMS |[F,P]|

   @DF-RKS iter SAD: -1713.76042008365312   -1.71376e+03   0.00000e+00 
    Occupation by irrep:
             A1    A2    B1    B2 
    DOCC [    10,    0,    5,    4 ]

   @DF-RKS iter   1: -1713.87524937008266   -1.14829e-01   5.33100e-02 DIIS
    Occupation by irrep:
             A1    A2    B1    B2 
    DOCC [    10,    1,    4,    4 ]

   @DF-RKS iter   2: -1675.03853330430047    3.88367e+01   1.11277e-01 DIIS
   @DF-RKS iter   3: -1715.06177492971256   -4.00232e+01   3.54846e-02 DIIS
   @DF-RKS iter   4: -1716.30502573478930   -1.24325e+00   1.17946e-02 DIIS
   @DF-RKS iter   5: -1716.47746319728094   -1.72437e-01   7.23677e-03 DIIS
   @DF-RKS iter   6: -1716.53610085846526   -5.86377e-02   1.55038e-03 DIIS
   @DF-RKS iter   7: -1716.53849284652438   -2.39199e-03   1.75265e-04 DIIS
   @DF-RKS iter   8: -1716.53858947922299   -9.66327e-05   1.23622e-04 DIIS
   @DF-RKS iter   9: -1716.53860758287374   -1.81037e-05   1.83103e-05 DIIS
   @DF-RKS iter  10: -1716.53860983142658   -2.24855e-06   9.67027e-06 DIIS
   @DF-RKS iter  11: -1716.53861042602466   -5.94598e-07   3.85439e-06 DIIS
   @DF-RKS iter  12: -1716.53861060918962   -1.83165e-07   5.37535e-07 DIIS
  Energy and wave function converged.


  ==> Post-Iterations <==

   Electrons on quadrature grid:
      Ntotal   =   37.9999962823 ; deviation = -3.718e-06 

    Orbital Energies [Eh]
    ---------------------

    Doubly Occupied:                                                      

       1A1  -324.170588     2A1   -39.294428     1B1   -34.562039  
       1B2   -34.561065     3A1   -34.559617     4A1   -19.714928  
       5A1    -4.656687     2B1    -3.180035     6A1    -3.178747  
       2B2    -3.178054     7A1    -1.416351     3B1    -0.955592  
       8A1    -0.833404     3B2    -0.735522     9A1    -0.655851  
       1A2    -0.655827     4B1    -0.653207     4B2    -0.638039  
      10A1    -0.624622  

    Virtual:                                                              

      11A1    -0.223617    12A1    -0.153411     5B1    -0.152441  
       5B2    -0.142864     6B1    -0.092627    13A1    -0.081217  
       6B2    -0.063284    14A1    -0.050702    15A1    -0.034449  
       2A2    -0.009832     7B1    -0.006637     7B2     0.012603  
      16A1     0.021495     8B1     0.036873    17A1     0.044918  
       8B2     0.071509     3A2     0.076241    18A1     0.084672  
       9B1     0.099446    19A1     0.121690     9B2     0.154489  
      10B1     0.160833    11B1     0.177618    20A1     0.179846  
      21A1     0.218474    12B1     0.290396    22A1     0.324897  
       4A2     0.343179    10B2     0.375590    23A1     0.385666  
      13B1     0.512415    24A1     0.524350    11B2     0.530533  
      25A1     0.569155    12B2     0.575872    14B1     0.615695  
      26A1     0.737511     5A2     0.762614    15B1     0.805997  
      13B2     0.825048    27A1     0.834768    28A1     0.875279  
       6A2     0.879538    16B1     0.891544    14B2     0.941301  
      29A1     0.963200    17B1     1.058487    30A1     1.201410  
      18B1     1.265752    31A1     1.271817    15B2     1.654867  
       7A2     1.732979    32A1     1.795831    19B1     1.908687  
      33A1     2.061696    34A1     2.471823    20B1     2.522440  
      16B2     2.594622    35A1     2.603393    17B2     2.845913  
      21B1     2.897553    36A1     3.034086    18B2     3.079838  
       8A2     3.088740    37A1     3.096294    22B1     3.138080  
      38A1     3.174130    23B1     3.211282    24B1     3.295335  
      19B2     3.303289     9A2     3.309263    25B1     3.311139  
      39A1     3.337300    40A1     3.360787    20B2     3.375999  
      10A2     3.548901    41A1     3.563889    26B1     3.579647  
      21B2     3.600207    22B2     3.665472    11A2     3.684457  
      27B1     3.687337    42A1     3.737428    43A1     3.786510  
      12A2     3.945901    44A1     3.970541    23B2     3.988496  
      45A1     4.040237    28B1     4.063130    29B1     4.466703  
      30B1     4.747659    46A1     4.767016    47A1     4.884958  
      24B2     5.208948    48A1     5.600846    13A2     6.172476  
      25B2     6.185353    26B2     6.332265    14A2     6.368585  
      49A1     6.500910    31B1     6.593548    32B1     6.850763  
      50A1     6.863434    33B1     7.118689    51A1     7.514099  
      15A2    12.741586    52A1    12.741659    27B2    12.741826  
      34B1    12.741882    16A2    12.742185    53A1    12.742351  
      28B2    12.745215    35B1    12.746210    54A1    12.753960  
      29B2    12.952146    36B1    12.952363    17A2    12.963632  
      55A1    12.969735    30B2    12.994287    37B1    13.025554  
      56A1    13.172829    57A1    43.500021  

    Final Occupation by Irrep:
             A1    A2    B1    B2 
    DOCC [    10,    1,    4,    4 ]

  @DF-RKS Final Energy: -1716.53861060918962

   => Energetics <=

    Nuclear Repulsion Energy =             88.7265230024053579
    One-Electron Energy =               -2559.2850861130723388
    Two-Electron Energy =                 795.3656610922661230
    DFT Exchange-Correlation Energy =     -41.3455401807886886
    Empirical Dispersion Energy =          -0.0001684100000000
    VV10 Nonlocal Energy =                  0.0000000000000000
    Total Energy =                      -1716.5386106091893907

Computation Completed


Properties will be evaluated at   0.000000,   0.000000,   0.000000 [a0]

Properties computed using the SCF density matrix

  Nuclear Dipole Moment: [e a0]
     X:     0.0000      Y:     0.0000      Z:     5.5043

  Electronic Dipole Moment: [e a0]
     X:     0.0000      Y:     0.0000      Z:    -4.9232

  Dipole Moment: [e a0]
     X:     0.0000      Y:     0.0000      Z:     0.5812     Total:     0.5812

  Dipole Moment: [D]
     X:     0.0000      Y:     0.0000      Z:     1.4772     Total:     1.4772


*** tstop() called on compute431.bc4.acrc.priv at Sun Nov  7 05:07:24 2021
Module time:
	user time   =      58.73 seconds =       0.98 minutes
	system time =       3.27 seconds =       0.05 minutes
	total time  =          4 seconds =       0.07 minutes
Total time:
	user time   =      58.73 seconds =       0.98 minutes
	system time =       3.27 seconds =       0.05 minutes
	total time  =          4 seconds =       0.07 minutes

    Psi4 stopped on: Sunday, 07 November 2021 05:07AM
    Psi4 wall time for execution: 0:00:04.09

*** Psi4 exiting successfully. Buy a developer a beer!
