
    -----------------------------------------------------------------------
          Psi4: An Open-Source Ab Initio Electronic Structure Package
                               Psi4 1.4.1 release

                         Git: Rev {HEAD} cd00f19 


    D. G. A. Smith, L. A. Burns, A. C. Simmonett, R. M. Parrish,
    M. C. Schieber, R. Galvelis, P. Kraus, H. Kruse, R. Di Remigio,
    A. Alenaizan, A. M. James, S. Lehtola, J. P. Misiewicz, M. Scheurer,
    R. A. Shaw, J. B. Schriber, Y. Xie, Z. L. Glick, D. A. Sirianni,
    J. S. O'Brien, J. M. Waldrop, A. Kumar, E. G. Hohenstein,
    B. P. Pritchard, B. R. Brooks, H. F. Schaefer III, A. Yu. Sokolov,
    K. Patkowski, A. E. DePrince III, U. Bozkaya, R. A. King,
    F. A. Evangelista, J. M. Turney, T. D. Crawford, C. D. Sherrill,
    J. Chem. Phys. 152(18) 184108 (2020). https://doi.org/10.1063/5.0006002

                            Additional Code Authors
    E. T. Seidl, C. L. Janssen, E. F. Valeev, M. L. Leininger,
    J. F. Gonthier, R. M. Richard, H. R. McAlexander, M. Saitow, X. Wang,
    P. Verma, and M. H. Lechner

             Previous Authors, Complete List of Code Contributors,
                       and Citations for Specific Modules
    https://github.com/psi4/psi4/blob/master/codemeta.json
    https://github.com/psi4/psi4/graphs/contributors
    http://psicode.org/psi4manual/master/introduction.html#citing-psifour

    -----------------------------------------------------------------------


    Psi4 started on: Sunday, 07 November 2021 05:08AM

    Process ID: 2173
    Host:       compute319.bc4.acrc.priv
    PSIDATADIR: /mnt/storage/home/zw18965/.conda/envs/p4env/share/psi4
    Memory:     500.0 MiB
    Threads:    28
    
  ==> Input File <==

--------------------------------------------------------------------------
memory 120 GB

molecule {
0 1
O          0.00000        0.00000        0.00000
H          0.00000        0.00000        0.95691
H          0.92636        0.00000       -0.23987
 }

set dynamic_level 1
set basis Def2-TZVPPD

energy("M11-D3BJ")
--------------------------------------------------------------------------

  Memory set to 111.759 GiB by Python driver.

Scratch directory: /tmp/

*** tstart() called on compute319.bc4.acrc.priv
*** at Sun Nov  7 05:08:21 2021

   => Loading Basis Set <=

    Name: DEF2-TZVPPD
    Role: ORBITAL
    Keyword: BASIS
    atoms 1   entry O          line   218 file /mnt/storage/home/zw18965/.conda/envs/p4env/share/psi4/basis/def2-tzvppd.gbs 
    atoms 2-3 entry H          line    14 file /mnt/storage/home/zw18965/.conda/envs/p4env/share/psi4/basis/def2-tzvppd.gbs 

   => M11-D3(BJ): Empirical Dispersion <=

    Grimme's -D3 (BJ-damping) Dispersion Correction
    Grimme S.; Ehrlich S.; Goerigk L. (2011), J. Comput. Chem., 32: 1456
    Parametrisation from:    L. Goerigk, J. Phys. Chem. Lett. 6, 3891-3896, 2015

        s6 =       1.000000
        s8 =       2.811200
        a1 =       0.000000
        a2 =      10.138900


         ---------------------------------------------------------
                                   SCF
               by Justin Turney, Rob Parrish, Andy Simmonett
                          and Daniel G. A. Smith
                              RKS Reference
                       28 Threads, 114440 MiB Core
         ---------------------------------------------------------

  ==> Geometry <==

    Molecular point group: cs
    Full point group: Cs

    Geometry (in Angstrom), charge = 0, multiplicity = 1:

       Center              X                  Y                   Z               Mass       
    ------------   -----------------  -----------------  -----------------  -----------------
         O            0.051836731010    -0.040123720371     0.000000000000    15.994914619570
         H            0.051836731010     0.916786279629     0.000000000000     1.007825032230
         H           -0.874523268990    -0.279993720371     0.000000000000     1.007825032230

  Running in cs symmetry.

  Rotational constants: A =     27.44992  B =     14.60580  C =      9.53326 [cm^-1]
  Rotational constants: A = 822927.94090  B = 437870.75215  C = 285799.84928 [MHz]
  Nuclear repulsion =    9.197748699306425

  Charge       = 0
  Multiplicity = 1
  Electrons    = 10
  Nalpha       = 5
  Nbeta        = 5

  ==> Algorithm <==

  SCF Algorithm Type is DF.
  DIIS enabled.
  MOM disabled.
  Fractional occupation disabled.
  Guess Type is SAD.
  Energy threshold   = 1.00e-06
  Density threshold  = 1.00e-06
  Integral threshold = 1.00e-12

  ==> Primary Basis <==

  Basis Set: DEF2-TZVPPD
    Blend: DEF2-TZVPPD
    Number of shells: 28
    Number of basis functions: 74
    Number of Cartesian functions: 82
    Spherical Harmonics?: true
    Max angular momentum: 3

  ==> DFT Potential <==

   => Composite Functional: M11-D3BJ <= 

    M11 Meta-GGA XC Functional
(10.1021/jz201170d)
    R. Peverati and D. G. Truhlar, J. Phys. Chem. Lett., 2, 2810, 2011


    Deriv               =              1
    GGA                 =           TRUE
    Meta                =           TRUE

    Exchange Hybrid     =           TRUE
    MP2 Hybrid          =          FALSE

   => Exchange Functionals <=

    1.0000   XC_HYB_MGGA_X_M11 [omega = 0.2500]

   => Exact (HF) Exchange <=

    0.5720            HF,LR [omega = 0.2500]
    0.4280               HF 

   => Correlation Functionals <=

    1.0000    XC_MGGA_C_M11

   => LibXC Density Thresholds  <==

    XC_MGGA_C_M11:  1.00E-15 
    XC_HYB_MGGA_X_M11:  1.00E-11 

   => Molecular Quadrature <=

    Radial Scheme          =       TREUTLER
    Pruning Scheme         =           NONE
    Nuclear Scheme         =       TREUTLER

    BS radius alpha        =              1
    Pruning alpha          =              1
    Radial Points          =             75
    Spherical Points       =            302
    Total Points           =          66708
    Total Blocks           =            563
    Max Points             =            255
    Max Functions          =             74
    Weights Tolerance      =       1.00E-15

   => Loading Basis Set <=

    Name: (DEF2-TZVPPD AUX)
    Role: JKFIT
    Keyword: DF_BASIS_SCF
    atoms 1   entry O          line   318 file /mnt/storage/home/zw18965/.conda/envs/p4env/share/psi4/basis/def2-universal-jkfit.gbs 
    atoms 2-3 entry H          line    18 file /mnt/storage/home/zw18965/.conda/envs/p4env/share/psi4/basis/def2-universal-jkfit.gbs 

  ==> Integral Setup <==

  DFHelper Memory: AOs need 0.012 GiB; user supplied 83.473 GiB. Using in-core AOs.

  ==> MemDFJK: Density-Fitted J/K Matrices <==

    J tasked:                   Yes
    K tasked:                   Yes
    wK tasked:                  Yes
    Omega:                2.500E-01
    OpenMP threads:              28
    Memory [MiB]:             85475
    Algorithm:                 Core
    Schwarz Cutoff:           1E-12
    Mask sparsity (%):       0.0000
    Fitting Condition:        1E-10

   => Auxiliary Basis Set <=

  Basis Set: (DEF2-TZVPPD AUX)
    Blend: DEF2-UNIVERSAL-JKFIT
    Number of shells: 37
    Number of basis functions: 113
    Number of Cartesian functions: 133
    Spherical Harmonics?: true
    Max angular momentum: 4

  Cached 100.0% of DFT collocation blocks in 0.346 [GiB].

  Minimum eigenvalue in the overlap matrix is 6.6004688097E-04.
  Reciprocal condition number of the overlap matrix is 1.0131033719E-04.
    Using symmetric orthogonalization.

  ==> Pre-Iterations <==

  SCF Guess: Superposition of Atomic Densities via on-the-fly atomic UHF (no occupation information).

   -------------------------
    Irrep   Nso     Nmo    
   -------------------------
     A'        51      51 
     A"        23      23 
   -------------------------
    Total      74      74
   -------------------------

  ==> Iterations <==

                           Total Energy        Delta E     RMS |[F,P]|

   @DF-RKS iter SAD:   -75.99254602948693   -7.59925e+01   0.00000e+00 
   @DF-RKS iter   1:   -76.30659242960996   -3.14046e-01   1.14237e-02 DIIS
   @DF-RKS iter   2:   -76.28005249049633    2.65399e-02   1.29762e-02 DIIS
   @DF-RKS iter   3:   -76.44380154956414   -1.63749e-01   4.21718e-04 DIIS
   @DF-RKS iter   4:   -76.44409920300144   -2.97653e-04   1.02596e-04 DIIS
   @DF-RKS iter   5:   -76.44411618661512   -1.69836e-05   2.28208e-05 DIIS
   @DF-RKS iter   6:   -76.44411724481652   -1.05820e-06   4.22480e-06 DIIS
   @DF-RKS iter   7:   -76.44411731400275   -6.91862e-08   6.74748e-07 DIIS
  Energy and wave function converged.


  ==> Post-Iterations <==

   Electrons on quadrature grid:
      Ntotal   =   10.0000000712 ; deviation = 7.122e-08 

    Orbital Energies [Eh]
    ---------------------

    Doubly Occupied:                                                      

       1Ap   -19.445332     2Ap    -1.151119     3Ap    -0.659585  
       4Ap    -0.518811     1App   -0.444918  

    Virtual:                                                              

       5Ap     0.017035     6Ap     0.043135     2App    0.073182  
       7Ap     0.076243     8Ap     0.158116     9Ap     0.175765  
       3App    0.201189    10Ap     0.236440     4App    0.249198  
      11Ap     0.293143    12Ap     0.295735    13Ap     0.332330  
      14Ap     0.445953    15Ap     0.472133     5App    0.514406  
      16Ap     0.550484     6App    0.563526    17Ap     0.684711  
      18Ap     0.740496    19Ap     0.741757     7App    0.756245  
      20Ap     0.902596    21Ap     1.004030     8App    1.021539  
       9App    1.088277    22Ap     1.125879    23Ap     1.223736  
      24Ap     1.344551    25Ap     1.393455    10App    1.916607  
      11App    1.984031    26Ap     2.053127    27Ap     2.117751  
      28Ap     2.213576    29Ap     2.511291    30Ap     2.716925  
      12App    2.801863    31Ap     3.050359    13App    3.166721  
      32Ap     3.259507    33Ap     3.365738    34Ap     3.420048  
      35Ap     3.453319    14App    3.458778    36Ap     3.703110  
      15App    3.868492    16App    3.890940    37Ap     3.977366  
      17App    4.080955    18App    4.174322    38Ap     4.191006  
      39Ap     4.264527    40Ap     4.703069    41Ap     4.752955  
      42Ap     4.892581    43Ap     5.118412    19App    5.609293  
      44Ap     6.171817    20App    6.396812    21App    6.441562  
      22App    6.517006    45Ap     6.563043    46Ap     6.567364  
      23App    6.759664    47Ap     6.884030    48Ap     7.368402  
      49Ap     7.462089    50Ap     7.636912    51Ap    43.605323  

    Final Occupation by Irrep:
             Ap   App 
    DOCC [     4,    1 ]

  @DF-RKS Final Energy:   -76.44411731400275

   => Energetics <=

    Nuclear Repulsion Energy =              9.1977486993064250
    One-Electron Energy =                -123.0586011885910693
    Two-Electron Energy =                  42.1409642137401903
    DFT Exchange-Correlation Energy =      -4.7242109684583040
    Empirical Dispersion Energy =          -0.0000180700000000
    VV10 Nonlocal Energy =                  0.0000000000000000
    Total Energy =                        -76.4441173140027530

Computation Completed


Properties will be evaluated at   0.000000,   0.000000,   0.000000 [a0]

Properties computed using the SCF density matrix

  Nuclear Dipole Moment: [e a0]
     X:    -0.7710      Y:     0.5968      Z:     0.0000

  Electronic Dipole Moment: [e a0]
     X:     0.1587      Y:    -0.1228      Z:     0.0000

  Dipole Moment: [e a0]
     X:    -0.6123      Y:     0.4740      Z:     0.0000     Total:     0.7743

  Dipole Moment: [D]
     X:    -1.5564      Y:     1.2047      Z:     0.0000     Total:     1.9681


*** tstop() called on compute319.bc4.acrc.priv at Sun Nov  7 05:08:23 2021
Module time:
	user time   =      24.28 seconds =       0.40 minutes
	system time =       1.49 seconds =       0.02 minutes
	total time  =          2 seconds =       0.03 minutes
Total time:
	user time   =      24.28 seconds =       0.40 minutes
	system time =       1.49 seconds =       0.02 minutes
	total time  =          2 seconds =       0.03 minutes

    Psi4 stopped on: Sunday, 07 November 2021 05:08AM
    Psi4 wall time for execution: 0:00:02.68

*** Psi4 exiting successfully. Buy a developer a beer!
