
    -----------------------------------------------------------------------
          Psi4: An Open-Source Ab Initio Electronic Structure Package
                               Psi4 1.4.1 release

                         Git: Rev {HEAD} cd00f19 


    D. G. A. Smith, L. A. Burns, A. C. Simmonett, R. M. Parrish,
    M. C. Schieber, R. Galvelis, P. Kraus, H. Kruse, R. Di Remigio,
    A. Alenaizan, A. M. James, S. Lehtola, J. P. Misiewicz, M. Scheurer,
    R. A. Shaw, J. B. Schriber, Y. Xie, Z. L. Glick, D. A. Sirianni,
    J. S. O'Brien, J. M. Waldrop, A. Kumar, E. G. Hohenstein,
    B. P. Pritchard, B. R. Brooks, H. F. Schaefer III, A. Yu. Sokolov,
    K. Patkowski, A. E. DePrince III, U. Bozkaya, R. A. King,
    F. A. Evangelista, J. M. Turney, T. D. Crawford, C. D. Sherrill,
    J. Chem. Phys. 152(18) 184108 (2020). https://doi.org/10.1063/5.0006002

                            Additional Code Authors
    E. T. Seidl, C. L. Janssen, E. F. Valeev, M. L. Leininger,
    J. F. Gonthier, R. M. Richard, H. R. McAlexander, M. Saitow, X. Wang,
    P. Verma, and M. H. Lechner

             Previous Authors, Complete List of Code Contributors,
                       and Citations for Specific Modules
    https://github.com/psi4/psi4/blob/master/codemeta.json
    https://github.com/psi4/psi4/graphs/contributors
    http://psicode.org/psi4manual/master/introduction.html#citing-psifour

    -----------------------------------------------------------------------


    Psi4 started on: Sunday, 07 November 2021 05:07AM

    Process ID: 27244
    Host:       compute303.bc4.acrc.priv
    PSIDATADIR: /mnt/storage/home/zw18965/.conda/envs/p4env/share/psi4
    Memory:     500.0 MiB
    Threads:    28
    
  ==> Input File <==

--------------------------------------------------------------------------
memory 120 GB

molecule {
0 1
Li         0.00000        0.00000        0.00000
Cl         0.00000        0.00000        2.02067
 }

set dynamic_level 1
set basis Def2-TZVPPD

energy("M11-D3BJ")
--------------------------------------------------------------------------

  Memory set to 111.759 GiB by Python driver.

Scratch directory: /tmp/

*** tstart() called on compute303.bc4.acrc.priv
*** at Sun Nov  7 05:07:21 2021

   => Loading Basis Set <=

    Name: DEF2-TZVPPD
    Role: ORBITAL
    Keyword: BASIS
    atoms 1 entry LI         line    50 file /mnt/storage/home/zw18965/.conda/envs/p4env/share/psi4/basis/def2-tzvppd.gbs 
    atoms 2 entry CL         line   607 file /mnt/storage/home/zw18965/.conda/envs/p4env/share/psi4/basis/def2-tzvppd.gbs 

   => M11-D3(BJ): Empirical Dispersion <=

    Grimme's -D3 (BJ-damping) Dispersion Correction
    Grimme S.; Ehrlich S.; Goerigk L. (2011), J. Comput. Chem., 32: 1456
    Parametrisation from:    L. Goerigk, J. Phys. Chem. Lett. 6, 3891-3896, 2015

        s6 =       1.000000
        s8 =       2.811200
        a1 =       0.000000
        a2 =      10.138900


         ---------------------------------------------------------
                                   SCF
               by Justin Turney, Rob Parrish, Andy Simmonett
                          and Daniel G. A. Smith
                              RKS Reference
                       28 Threads, 114440 MiB Core
         ---------------------------------------------------------

  ==> Geometry <==

    Molecular point group: c2v
    Full point group: C_inf_v

    Geometry (in Angstrom), charge = 0, multiplicity = 1:

       Center              X                  Y                   Z               Mass       
    ------------   -----------------  -----------------  -----------------  -----------------
         LI           0.000000000000     0.000000000000    -1.682999969068     7.016003436600
         CL           0.000000000000     0.000000000000     0.337670030932    34.968852682000

  Running in c2v symmetry.

  Rotational constants: A = ************  B =      0.70652  C =      0.70652 [cm^-1]
  Rotational constants: A = ************  B =  21181.07044  C =  21181.07044 [MHz]
  Nuclear repulsion =   13.355984769492297

  Charge       = 0
  Multiplicity = 1
  Electrons    = 20
  Nalpha       = 10
  Nbeta        = 10

  ==> Algorithm <==

  SCF Algorithm Type is DF.
  DIIS enabled.
  MOM disabled.
  Fractional occupation disabled.
  Guess Type is SAD.
  Energy threshold   = 1.00e-06
  Density threshold  = 1.00e-06
  Integral threshold = 1.00e-12

  ==> Primary Basis <==

  Basis Set: DEF2-TZVPPD
    Blend: DEF2-TZVPPD
    Number of shells: 27
    Number of basis functions: 73
    Number of Cartesian functions: 81
    Spherical Harmonics?: true
    Max angular momentum: 3

  ==> DFT Potential <==

   => Composite Functional: M11-D3BJ <= 

    M11 Meta-GGA XC Functional
(10.1021/jz201170d)
    R. Peverati and D. G. Truhlar, J. Phys. Chem. Lett., 2, 2810, 2011


    Deriv               =              1
    GGA                 =           TRUE
    Meta                =           TRUE

    Exchange Hybrid     =           TRUE
    MP2 Hybrid          =          FALSE

   => Exchange Functionals <=

    1.0000   XC_HYB_MGGA_X_M11 [omega = 0.2500]

   => Exact (HF) Exchange <=

    0.5720            HF,LR [omega = 0.2500]
    0.4280               HF 

   => Correlation Functionals <=

    1.0000    XC_MGGA_C_M11

   => LibXC Density Thresholds  <==

    XC_MGGA_C_M11:  1.00E-15 
    XC_HYB_MGGA_X_M11:  1.00E-11 

   => Molecular Quadrature <=

    Radial Scheme          =       TREUTLER
    Pruning Scheme         =           NONE
    Nuclear Scheme         =       TREUTLER

    BS radius alpha        =              1
    Pruning alpha          =              1
    Radial Points          =             75
    Spherical Points       =            302
    Total Points           =          44401
    Total Blocks           =            440
    Max Points             =            256
    Max Functions          =             72
    Weights Tolerance      =       1.00E-15

   => Loading Basis Set <=

    Name: (DEF2-TZVPPD AUX)
    Role: JKFIT
    Keyword: DF_BASIS_SCF
    atoms 1 entry LI         line    54 file /mnt/storage/home/zw18965/.conda/envs/p4env/share/psi4/basis/def2-universal-jkfit.gbs 
    atoms 2 entry CL         line   986 file /mnt/storage/home/zw18965/.conda/envs/p4env/share/psi4/basis/def2-universal-jkfit.gbs 

  ==> Integral Setup <==

  DFHelper Memory: AOs need 0.016 GiB; user supplied 83.635 GiB. Using in-core AOs.

  ==> MemDFJK: Density-Fitted J/K Matrices <==

    J tasked:                   Yes
    K tasked:                   Yes
    wK tasked:                  Yes
    Omega:                2.500E-01
    OpenMP threads:              28
    Memory [MiB]:             85642
    Algorithm:                 Core
    Schwarz Cutoff:           1E-12
    Mask sparsity (%):       1.0133
    Fitting Condition:        1E-10

   => Auxiliary Basis Set <=

  Basis Set: (DEF2-TZVPPD AUX)
    Blend: DEF2-UNIVERSAL-JKFIT
    Number of shells: 55
    Number of basis functions: 179
    Number of Cartesian functions: 215
    Spherical Harmonics?: true
    Max angular momentum: 4

  Cached 100.0% of DFT collocation blocks in 0.184 [GiB].

  Minimum eigenvalue in the overlap matrix is 3.9842851479E-03.
  Reciprocal condition number of the overlap matrix is 9.3918265097E-04.
    Using symmetric orthogonalization.

  ==> Pre-Iterations <==

  SCF Guess: Superposition of Atomic Densities via on-the-fly atomic UHF (no occupation information).

   -------------------------
    Irrep   Nso     Nmo    
   -------------------------
     A1        33      33 
     A2         6       6 
     B1        17      17 
     B2        17      17 
   -------------------------
    Total      73      73
   -------------------------

  ==> Iterations <==

                           Total Energy        Delta E     RMS |[F,P]|

   @DF-RKS iter SAD:  -467.32453597751470   -4.67325e+02   0.00000e+00 
   @DF-RKS iter   1:  -467.71757646726149   -3.93040e-01   1.02519e-02 DIIS
   @DF-RKS iter   2:  -467.76139372824491   -4.38173e-02   7.89626e-03 DIIS
   @DF-RKS iter   3:  -467.79241000456943   -3.10163e-02   4.34332e-04 DIIS
   @DF-RKS iter   4:  -467.79253586472743   -1.25860e-04   1.19654e-04 DIIS
   @DF-RKS iter   5:  -467.79254762285558   -1.17581e-05   3.02476e-05 DIIS
   @DF-RKS iter   6:  -467.79254843934132   -8.16486e-07   6.56437e-06 DIIS
   @DF-RKS iter   7:  -467.79254854846181   -1.09120e-07   1.35366e-06 DIIS
   @DF-RKS iter   8:  -467.79254855363399   -5.17218e-09   1.57197e-07 DIIS
  Energy and wave function converged.


  ==> Post-Iterations <==

   Electrons on quadrature grid:
      Ntotal   =   20.0000004992 ; deviation = 4.992e-07 

    Orbital Energies [Eh]
    ---------------------

    Doubly Occupied:                                                      

       1A1  -102.007093     2A1    -9.524670     3A1    -7.313319  
       1B2    -7.312899     1B1    -7.312899     4A1    -2.202436  
       5A1    -0.839001     6A1    -0.380226     2B1    -0.356493  
       2B2    -0.356493  

    Virtual:                                                              

       7A1    -0.063382     3B1    -0.005698     3B2    -0.005698  
       8A1     0.020082     9A1     0.042609     4B2     0.073260  
       4B1     0.073260    10A1     0.082315     5B2     0.106752  
       5B1     0.106752    11A1     0.200379    12A1     0.262012  
      13A1     0.265245     1A2     0.265251     6B2     0.299536  
       6B1     0.299536    14A1     0.310027    15A1     0.368866  
       2A2     0.368867    16A1     0.413827     7B2     0.415912  
       7B1     0.415912     8B2     0.584542     8B1     0.584542  
      17A1     0.627385     9B2     0.684494     9B1     0.684494  
      18A1     0.744628     3A2     0.744748    19A1     0.748130  
      10B2     0.773340    10B1     0.773340    20A1     0.931008  
      21A1     1.145554    22A1     1.538794    23A1     1.993333  
       4A2     1.993846    11B2     2.017983    11B1     2.017983  
      24A1     2.082051     5A2     2.233838    25A1     2.233848  
      12B2     2.233953    12B1     2.233953    13B2     2.257195  
      13B1     2.257195    14B2     2.424273    14B1     2.424273  
      26A1     2.473897    27A1     2.546864    15B1     5.970510  
      15B2     5.970510    28A1     6.250924     6A2     8.308649  
      29A1     8.308662    16B2     8.325396    16B1     8.325396  
      30A1     8.385737    17B2    10.835294    17B1    10.835294  
      31A1    10.929428    32A1    14.341119    33A1    24.843997  

    Final Occupation by Irrep:
             A1    A2    B1    B2 
    DOCC [     6,    0,    2,    2 ]

  @DF-RKS Final Energy:  -467.79254855363399

   => Energetics <=

    Nuclear Repulsion Energy =             13.3559847694922968
    One-Electron Energy =                -673.6389620730292336
    Two-Electron Energy =                 208.5295793503960340
    DFT Exchange-Correlation Energy =     -16.0389650304931202
    Empirical Dispersion Energy =          -0.0001855700000000
    VV10 Nonlocal Energy =                  0.0000000000000000
    Total Energy =                       -467.7925485536339352

Computation Completed


Properties will be evaluated at   0.000000,   0.000000,   0.000000 [a0]

Properties computed using the SCF density matrix

  Nuclear Dipole Moment: [e a0]
     X:     0.0000      Y:     0.0000      Z:     1.3065

  Electronic Dipole Moment: [e a0]
     X:     0.0000      Y:     0.0000      Z:    -4.0913

  Dipole Moment: [e a0]
     X:     0.0000      Y:     0.0000      Z:    -2.7848     Total:     2.7848

  Dipole Moment: [D]
     X:     0.0000      Y:     0.0000      Z:    -7.0783     Total:     7.0783


*** tstop() called on compute303.bc4.acrc.priv at Sun Nov  7 05:07:23 2021
Module time:
	user time   =      22.17 seconds =       0.37 minutes
	system time =       1.22 seconds =       0.02 minutes
	total time  =          2 seconds =       0.03 minutes
Total time:
	user time   =      22.17 seconds =       0.37 minutes
	system time =       1.22 seconds =       0.02 minutes
	total time  =          2 seconds =       0.03 minutes

    Psi4 stopped on: Sunday, 07 November 2021 05:07AM
    Psi4 wall time for execution: 0:00:02.49

*** Psi4 exiting successfully. Buy a developer a beer!
