
    -----------------------------------------------------------------------
          Psi4: An Open-Source Ab Initio Electronic Structure Package
                               Psi4 1.4.1 release

                         Git: Rev {HEAD} cd00f19 


    D. G. A. Smith, L. A. Burns, A. C. Simmonett, R. M. Parrish,
    M. C. Schieber, R. Galvelis, P. Kraus, H. Kruse, R. Di Remigio,
    A. Alenaizan, A. M. James, S. Lehtola, J. P. Misiewicz, M. Scheurer,
    R. A. Shaw, J. B. Schriber, Y. Xie, Z. L. Glick, D. A. Sirianni,
    J. S. O'Brien, J. M. Waldrop, A. Kumar, E. G. Hohenstein,
    B. P. Pritchard, B. R. Brooks, H. F. Schaefer III, A. Yu. Sokolov,
    K. Patkowski, A. E. DePrince III, U. Bozkaya, R. A. King,
    F. A. Evangelista, J. M. Turney, T. D. Crawford, C. D. Sherrill,
    J. Chem. Phys. 152(18) 184108 (2020). https://doi.org/10.1063/5.0006002

                            Additional Code Authors
    E. T. Seidl, C. L. Janssen, E. F. Valeev, M. L. Leininger,
    J. F. Gonthier, R. M. Richard, H. R. McAlexander, M. Saitow, X. Wang,
    P. Verma, and M. H. Lechner

             Previous Authors, Complete List of Code Contributors,
                       and Citations for Specific Modules
    https://github.com/psi4/psi4/blob/master/codemeta.json
    https://github.com/psi4/psi4/graphs/contributors
    http://psicode.org/psi4manual/master/introduction.html#citing-psifour

    -----------------------------------------------------------------------


    Psi4 started on: Sunday, 07 November 2021 05:07AM

    Process ID: 22276
    Host:       compute429.bc4.acrc.priv
    PSIDATADIR: /mnt/storage/home/zw18965/.conda/envs/p4env/share/psi4
    Memory:     500.0 MiB
    Threads:    28
    
  ==> Input File <==

--------------------------------------------------------------------------
memory 120 GB

molecule {
0 2
Li         0.00000        0.00000        0.00000
O          0.00000        0.00000        1.68900
 }

set reference uks
set dynamic_level 1
set basis Def2-TZVPPD

energy("M11-D3BJ")
--------------------------------------------------------------------------

  Memory set to 111.759 GiB by Python driver.

Scratch directory: /tmp/

*** tstart() called on compute429.bc4.acrc.priv
*** at Sun Nov  7 05:07:21 2021

   => Loading Basis Set <=

    Name: DEF2-TZVPPD
    Role: ORBITAL
    Keyword: BASIS
    atoms 1 entry LI         line    50 file /mnt/storage/home/zw18965/.conda/envs/p4env/share/psi4/basis/def2-tzvppd.gbs 
    atoms 2 entry O          line   218 file /mnt/storage/home/zw18965/.conda/envs/p4env/share/psi4/basis/def2-tzvppd.gbs 

   => M11-D3(BJ): Empirical Dispersion <=

    Grimme's -D3 (BJ-damping) Dispersion Correction
    Grimme S.; Ehrlich S.; Goerigk L. (2011), J. Comput. Chem., 32: 1456
    Parametrisation from:    L. Goerigk, J. Phys. Chem. Lett. 6, 3891-3896, 2015

        s6 =       1.000000
        s8 =       2.811200
        a1 =       0.000000
        a2 =      10.138900


         ---------------------------------------------------------
                                   SCF
               by Justin Turney, Rob Parrish, Andy Simmonett
                          and Daniel G. A. Smith
                              UKS Reference
                       28 Threads, 114440 MiB Core
         ---------------------------------------------------------

  ==> Geometry <==

    Molecular point group: c2v
    Full point group: C_inf_v

    Geometry (in Angstrom), charge = 0, multiplicity = 2:

       Center              X                  Y                   Z               Mass       
    ------------   -----------------  -----------------  -----------------  -----------------
         LI           0.000000000000     0.000000000000    -1.174025770137     7.016003436600
         O            0.000000000000     0.000000000000     0.514974229863    15.994914619570

  Running in c2v symmetry.

  Rotational constants: A = ************  B =      1.21171  C =      1.21171 [cm^-1]
  Rotational constants: A = ************  B =  36326.21314  C =  36326.21314 [MHz]
  Nuclear repulsion =    7.519391981101244

  Charge       = 0
  Multiplicity = 2
  Electrons    = 11
  Nalpha       = 6
  Nbeta        = 5

  ==> Algorithm <==

  SCF Algorithm Type is DF.
  DIIS enabled.
  MOM disabled.
  Fractional occupation disabled.
  Guess Type is SAD.
  Energy threshold   = 1.00e-06
  Density threshold  = 1.00e-06
  Integral threshold = 1.00e-12

  ==> Primary Basis <==

  Basis Set: DEF2-TZVPPD
    Blend: DEF2-TZVPPD
    Number of shells: 24
    Number of basis functions: 62
    Number of Cartesian functions: 69
    Spherical Harmonics?: true
    Max angular momentum: 3

  ==> DFT Potential <==

   => Composite Functional: M11-D3BJ <= 

    M11 Meta-GGA XC Functional
(10.1021/jz201170d)
    R. Peverati and D. G. Truhlar, J. Phys. Chem. Lett., 2, 2810, 2011


    Deriv               =              1
    GGA                 =           TRUE
    Meta                =           TRUE

    Exchange Hybrid     =           TRUE
    MP2 Hybrid          =          FALSE

   => Exchange Functionals <=

    1.0000   XC_HYB_MGGA_X_M11 [omega = 0.2500]

   => Exact (HF) Exchange <=

    0.5720            HF,LR [omega = 0.2500]
    0.4280               HF 

   => Correlation Functionals <=

    1.0000    XC_MGGA_C_M11

   => LibXC Density Thresholds  <==

    XC_MGGA_C_M11:  1.00E-15 
    XC_HYB_MGGA_X_M11:  1.00E-11 

   => Molecular Quadrature <=

    Radial Scheme          =       TREUTLER
    Pruning Scheme         =           NONE
    Nuclear Scheme         =       TREUTLER

    BS radius alpha        =              1
    Pruning alpha          =              1
    Radial Points          =             75
    Spherical Points       =            302
    Total Points           =          44342
    Total Blocks           =            422
    Max Points             =            256
    Max Functions          =             62
    Weights Tolerance      =       1.00E-15

   => Loading Basis Set <=

    Name: (DEF2-TZVPPD AUX)
    Role: JKFIT
    Keyword: DF_BASIS_SCF
    atoms 1 entry LI         line    54 file /mnt/storage/home/zw18965/.conda/envs/p4env/share/psi4/basis/def2-universal-jkfit.gbs 
    atoms 2 entry O          line   318 file /mnt/storage/home/zw18965/.conda/envs/p4env/share/psi4/basis/def2-universal-jkfit.gbs 

  ==> Integral Setup <==

  DFHelper Memory: AOs need 0.009 GiB; user supplied 83.647 GiB. Using in-core AOs.

  ==> MemDFJK: Density-Fitted J/K Matrices <==

    J tasked:                   Yes
    K tasked:                   Yes
    wK tasked:                  Yes
    Omega:                2.500E-01
    OpenMP threads:              28
    Memory [MiB]:             85654
    Algorithm:                 Core
    Schwarz Cutoff:           1E-12
    Mask sparsity (%):       0.2081
    Fitting Condition:        1E-10

   => Auxiliary Basis Set <=

  Basis Set: (DEF2-TZVPPD AUX)
    Blend: DEF2-UNIVERSAL-JKFIT
    Number of shells: 42
    Number of basis functions: 128
    Number of Cartesian functions: 153
    Spherical Harmonics?: true
    Max angular momentum: 4

  Cached 100.0% of DFT collocation blocks in 0.172 [GiB].

  Minimum eigenvalue in the overlap matrix is 2.6070108226E-03.
  Reciprocal condition number of the overlap matrix is 5.7160898048E-04.
    Using symmetric orthogonalization.

  ==> Pre-Iterations <==

  SCF Guess: Superposition of Atomic Densities via on-the-fly atomic UHF (no occupation information).

   -------------------------
    Irrep   Nso     Nmo    
   -------------------------
     A1        29      29 
     A2         5       5 
     B1        14      14 
     B2        14      14 
   -------------------------
    Total      62      62
   -------------------------

  ==> Iterations <==

                           Total Energy        Delta E     RMS |[F,P]|

   @DF-UKS iter SAD:   -81.87045105171819   -8.18705e+01   0.00000e+00 
   @DF-UKS iter   1:   -82.55913461406635   -6.88684e-01   1.57948e-02 DIIS
   @DF-UKS iter   2:   -82.49983714339604    5.92975e-02   2.02696e-02 DIIS
   @DF-UKS iter   3:   -82.68877458732533   -1.88937e-01   7.90194e-04 DIIS
   @DF-UKS iter   4:   -82.68939047073133   -6.15883e-04   2.04733e-04 DIIS
   @DF-UKS iter   5:   -82.68942808117023   -3.76104e-05   3.34477e-05 DIIS
   @DF-UKS iter   6:   -82.68943134642717   -3.26526e-06   1.30800e-05 DIIS
   @DF-UKS iter   7:   -82.68943215230172   -8.05875e-07   3.32171e-06 DIIS
   @DF-UKS iter   8:   -82.68943220809564   -5.57939e-08   9.20262e-07 DIIS
  Energy and wave function converged.


  ==> Post-Iterations <==

   Electrons on quadrature grid:
      Nalpha   =    5.9999973215 ; deviation = -2.679e-06
      Nbeta    =    4.9999980515 ; deviation = -1.949e-06
      Ntotal   =   10.9999953729 ; deviation = -4.627e-06 

   @Spin Contamination Metric:   2.010509839E-03
   @S^2 Expected:                7.500000000E-01
   @S^2 Observed:                7.520105098E-01
   @S   Expected:                5.000000000E-01
   @S   Observed:                5.000000000E-01

    Orbital Energies [Eh]
    ---------------------

    Alpha Occupied:                                                       

       1A1   -19.367939     2A1    -2.165063     3A1    -0.948758  
       1B1    -0.407192     4A1    -0.363804     1B2    -0.348036  

    Alpha Virtual:                                                        

       5A1    -0.055922     2B2    -0.003921     2B1    -0.001615  
       6A1     0.022680     7A1     0.051535     3B1     0.089264  
       3B2     0.092688     8A1     0.132150     4B1     0.145907  
       4B2     0.152993     9A1     0.199076    10A1     0.293485  
      11A1     0.325505     1A2     0.325764    12A1     0.359271  
       5B2     0.374223     5B1     0.376734     6B1     0.464985  
       6B2     0.469437    13A1     0.526893     2A2     0.528191  
      14A1     0.618187     7B1     0.699101     7B2     0.715844  
      15A1     0.753809     8B1     0.885976     8B2     0.894871  
      16A1     0.926872    17A1     0.991680    18A1     1.693807  
       3A2     1.858620    19A1     1.863827     9B1     1.866374  
       9B2     1.922886    20A1     2.200515    10B1     2.778063  
      10B2     2.850262    21A1     2.901376    22A1     3.155652  
      11B1     5.169190    11B2     5.181355    23A1     5.189281  
       4A2     5.210200    12B1     5.211944    12B2     5.249617  
      24A1     5.314855    13B1     6.072721    13B2     6.075880  
      25A1     6.299373    26A1     6.366433     5A2     6.367256  
      14B1     6.379757    14B2     6.436960    27A1     6.608053  
      28A1    14.613360    29A1    43.100591  

    Beta Occupied:                                                        

       1A1   -19.341270     2A1    -2.165236     3A1    -0.886097  
       4A1    -0.342769     1B2    -0.322125  

    Beta Virtual:                                                         

       5A1    -0.057998     1B1    -0.019689     2B2     0.002072  
       6A1     0.018642     2B1     0.037067     7A1     0.048875  
       3B1     0.079796     3B2     0.098573     8A1     0.133848  
       4B1     0.149938     4B2     0.157867     9A1     0.196211  
      10A1     0.288546    11A1     0.318653     1A2     0.325021  
      12A1     0.352581     5B1     0.361638     5B2     0.379340  
       6B2     0.471354     6B1     0.473004    13A1     0.520273  
       2A2     0.530390    14A1     0.619784     7B2     0.720306  
       7B1     0.733015    15A1     0.759829     8B2     0.898848  
       8B1     0.908287    16A1     0.940143    17A1     0.992520  
      18A1     1.699405     3A2     1.906830     9B1     1.916208  
      19A1     1.922113     9B2     1.929387    20A1     2.215679  
      10B2     2.871992    10B1     2.904490    21A1     2.933514  
      22A1     3.212952    11B2     5.222714    23A1     5.252629  
      11B1     5.291080     4A2     5.291796    12B2     5.302765  
      24A1     5.344743    12B1     5.354569    13B1     6.075026  
      13B2     6.075491    25A1     6.309647    14B2     6.435776  
       5A2     6.486436    26A1     6.493540    14B1     6.506116  
      27A1     6.660335    28A1    14.612790    29A1    43.100715  

    Final Occupation by Irrep:
             A1    A2    B1    B2 
    DOCC [     4,    0,    0,    1 ]
    SOCC [     0,    0,    1,    0 ]

  @DF-UKS Final Energy:   -82.68943220809564

   => Energetics <=

    Nuclear Repulsion Energy =              7.5193919811012435
    One-Electron Energy =                -129.5151072115657200
    Two-Electron Energy =                  44.6015584577502153
    DFT Exchange-Correlation Energy =      -5.2952240253813603
    Empirical Dispersion Energy =          -0.0000514100000000
    VV10 Nonlocal Energy =                  0.0000000000000000
    Total Energy =                        -82.6894322080956101

  UHF NO Occupations:
  HONO-2 :    4 A1 1.9996644
  HONO-1 :    1 B2 1.9995272
  HONO-0 :    1 B1 1.0000000
  LUNO+0 :    2 B2 0.0004728
  LUNO+1 :    5 A1 0.0003356
  LUNO+2 :    6 A1 0.0001967
  LUNO+3 :    7 A1 0.0000003


Computation Completed


Properties will be evaluated at   0.000000,   0.000000,   0.000000 [a0]

Properties computed using the SCF density matrix

  Nuclear Dipole Moment: [e a0]
     X:     0.0000      Y:     0.0000      Z:     1.1295

  Electronic Dipole Moment: [e a0]
     X:     0.0000      Y:     0.0000      Z:    -3.7518

  Dipole Moment: [e a0]
     X:     0.0000      Y:     0.0000      Z:    -2.6222     Total:     2.6222

  Dipole Moment: [D]
     X:     0.0000      Y:     0.0000      Z:    -6.6651     Total:     6.6651


*** tstop() called on compute429.bc4.acrc.priv at Sun Nov  7 05:07:26 2021
Module time:
	user time   =     100.84 seconds =       1.68 minutes
	system time =       4.74 seconds =       0.08 minutes
	total time  =          5 seconds =       0.08 minutes
Total time:
	user time   =     100.84 seconds =       1.68 minutes
	system time =       4.74 seconds =       0.08 minutes
	total time  =          5 seconds =       0.08 minutes

    Psi4 stopped on: Sunday, 07 November 2021 05:07AM
    Psi4 wall time for execution: 0:00:05.40

*** Psi4 exiting successfully. Buy a developer a beer!
