
    -----------------------------------------------------------------------
          Psi4: An Open-Source Ab Initio Electronic Structure Package
                               Psi4 1.4.1 release

                         Git: Rev {HEAD} cd00f19 


    D. G. A. Smith, L. A. Burns, A. C. Simmonett, R. M. Parrish,
    M. C. Schieber, R. Galvelis, P. Kraus, H. Kruse, R. Di Remigio,
    A. Alenaizan, A. M. James, S. Lehtola, J. P. Misiewicz, M. Scheurer,
    R. A. Shaw, J. B. Schriber, Y. Xie, Z. L. Glick, D. A. Sirianni,
    J. S. O'Brien, J. M. Waldrop, A. Kumar, E. G. Hohenstein,
    B. P. Pritchard, B. R. Brooks, H. F. Schaefer III, A. Yu. Sokolov,
    K. Patkowski, A. E. DePrince III, U. Bozkaya, R. A. King,
    F. A. Evangelista, J. M. Turney, T. D. Crawford, C. D. Sherrill,
    J. Chem. Phys. 152(18) 184108 (2020). https://doi.org/10.1063/5.0006002

                            Additional Code Authors
    E. T. Seidl, C. L. Janssen, E. F. Valeev, M. L. Leininger,
    J. F. Gonthier, R. M. Richard, H. R. McAlexander, M. Saitow, X. Wang,
    P. Verma, and M. H. Lechner

             Previous Authors, Complete List of Code Contributors,
                       and Citations for Specific Modules
    https://github.com/psi4/psi4/blob/master/codemeta.json
    https://github.com/psi4/psi4/graphs/contributors
    http://psicode.org/psi4manual/master/introduction.html#citing-psifour

    -----------------------------------------------------------------------


    Psi4 started on: Sunday, 07 November 2021 05:08AM

    Process ID: 28024
    Host:       compute361.bc4.acrc.priv
    PSIDATADIR: /mnt/storage/home/zw18965/.conda/envs/p4env/share/psi4
    Memory:     500.0 MiB
    Threads:    28
    
  ==> Input File <==

--------------------------------------------------------------------------
memory 120 GB

molecule {
0 3
O          0.00000        0.00000        0.00000
 }

set reference uks
set dynamic_level 1
set basis Def2-TZVPPD

energy("M11-D3BJ")
--------------------------------------------------------------------------

  Memory set to 111.759 GiB by Python driver.

Scratch directory: /tmp/

*** tstart() called on compute361.bc4.acrc.priv
*** at Sun Nov  7 05:08:21 2021

   => Loading Basis Set <=

    Name: DEF2-TZVPPD
    Role: ORBITAL
    Keyword: BASIS
    atoms 1 entry O          line   218 file /mnt/storage/home/zw18965/.conda/envs/p4env/share/psi4/basis/def2-tzvppd.gbs 

   => M11-D3(BJ): Empirical Dispersion <=

    Grimme's -D3 (BJ-damping) Dispersion Correction
    Grimme S.; Ehrlich S.; Goerigk L. (2011), J. Comput. Chem., 32: 1456
    Parametrisation from:    L. Goerigk, J. Phys. Chem. Lett. 6, 3891-3896, 2015

        s6 =       1.000000
        s8 =       2.811200
        a1 =       0.000000
        a2 =      10.138900


         ---------------------------------------------------------
                                   SCF
               by Justin Turney, Rob Parrish, Andy Simmonett
                          and Daniel G. A. Smith
                              UKS Reference
                       28 Threads, 114440 MiB Core
         ---------------------------------------------------------

  ==> Geometry <==

    Molecular point group: d2h
    Geometry (in Angstrom), charge = 0, multiplicity = 3:

       Center              X                  Y                   Z               Mass       
    ------------   -----------------  -----------------  -----------------  -----------------
         O            0.000000000000     0.000000000000     0.000000000000    15.994914619570

  Running in d2h symmetry.

  Rotational constants: A = ************  B = ************  C = ************ [cm^-1]
  Rotational constants: A = ************  B = ************  C = ************ [MHz]
  Nuclear repulsion =    0.000000000000000

  Charge       = 0
  Multiplicity = 3
  Electrons    = 8
  Nalpha       = 5
  Nbeta        = 3

  ==> Algorithm <==

  SCF Algorithm Type is DF.
  DIIS enabled.
  MOM disabled.
  Fractional occupation disabled.
  Guess Type is CORE.
  Energy threshold   = 1.00e-06
  Density threshold  = 1.00e-06
  Integral threshold = 1.00e-12

  ==> Primary Basis <==

  Basis Set: DEF2-TZVPPD
    Blend: DEF2-TZVPPD
    Number of shells: 14
    Number of basis functions: 40
    Number of Cartesian functions: 46
    Spherical Harmonics?: true
    Max angular momentum: 3

  ==> DFT Potential <==

   => Composite Functional: M11-D3BJ <= 

    M11 Meta-GGA XC Functional
(10.1021/jz201170d)
    R. Peverati and D. G. Truhlar, J. Phys. Chem. Lett., 2, 2810, 2011


    Deriv               =              1
    GGA                 =           TRUE
    Meta                =           TRUE

    Exchange Hybrid     =           TRUE
    MP2 Hybrid          =          FALSE

   => Exchange Functionals <=

    1.0000   XC_HYB_MGGA_X_M11 [omega = 0.2500]

   => Exact (HF) Exchange <=

    0.5720            HF,LR [omega = 0.2500]
    0.4280               HF 

   => Correlation Functionals <=

    1.0000    XC_MGGA_C_M11

   => LibXC Density Thresholds  <==

    XC_MGGA_C_M11:  1.00E-15 
    XC_HYB_MGGA_X_M11:  1.00E-11 

   => Molecular Quadrature <=

    Radial Scheme          =       TREUTLER
    Pruning Scheme         =           NONE
    Nuclear Scheme         =       TREUTLER

    BS radius alpha        =              1
    Pruning alpha          =              1
    Radial Points          =             75
    Spherical Points       =            302
    Total Points           =          22348
    Total Blocks           =            224
    Max Points             =            252
    Max Functions          =             40
    Weights Tolerance      =       1.00E-15

   => Loading Basis Set <=

    Name: (DEF2-TZVPPD AUX)
    Role: JKFIT
    Keyword: DF_BASIS_SCF
    atoms 1 entry O          line   318 file /mnt/storage/home/zw18965/.conda/envs/p4env/share/psi4/basis/def2-universal-jkfit.gbs 

  ==> Integral Setup <==

  DFHelper Memory: AOs need 0.003 GiB; user supplied 83.757 GiB. Using in-core AOs.

  ==> MemDFJK: Density-Fitted J/K Matrices <==

    J tasked:                   Yes
    K tasked:                   Yes
    wK tasked:                  Yes
    Omega:                2.500E-01
    OpenMP threads:              28
    Memory [MiB]:             85767
    Algorithm:                 Core
    Schwarz Cutoff:           1E-12
    Mask sparsity (%):       0.0000
    Fitting Condition:        1E-10

   => Auxiliary Basis Set <=

  Basis Set: (DEF2-TZVPPD AUX)
    Blend: DEF2-UNIVERSAL-JKFIT
    Number of shells: 25
    Number of basis functions: 77
    Number of Cartesian functions: 93
    Spherical Harmonics?: true
    Max angular momentum: 4

  Cached 100.0% of DFT collocation blocks in 0.062 [GiB].

  Minimum eigenvalue in the overlap matrix is 1.4986248253E-02.
  Reciprocal condition number of the overlap matrix is 4.6483012928E-03.
    Using symmetric orthogonalization.

  ==> Pre-Iterations <==

  SCF Guess: Core (One-Electron) Hamiltonian.

   -------------------------------------------------------
    Irrep   Nso     Nmo     Nalpha   Nbeta   Ndocc  Nsocc
   -------------------------------------------------------
     Ag        12      12       2       2       2       0
     B1g        3       3       0       0       0       0
     B2g        3       3       0       0       0       0
     B3g        3       3       0       0       0       0
     Au         1       1       0       0       0       0
     B1u        6       6       1       0       0       1
     B2u        6       6       1       0       0       1
     B3u        6       6       1       1       1       0
   -------------------------------------------------------
    Total      40      40       5       3       3       2
   -------------------------------------------------------

  ==> Iterations <==

                           Total Energy        Delta E     RMS |[F,P]|

    Occupation by irrep:
             Ag   B1g   B2g   B3g    Au   B1u   B2u   B3u 
    DOCC [     2,    0,    0,    0,    0,    1,    0,    0 ]
    SOCC [     0,    0,    0,    0,    0,    0,    1,    1 ]

   @DF-UKS iter   1:   -69.32778812326134   -6.93278e+01   3.01255e-01 DIIS
    Occupation by irrep:
             Ag   B1g   B2g   B3g    Au   B1u   B2u   B3u 
    DOCC [     2,    0,    0,    0,    0,    0,    0,    1 ]
    SOCC [     0,    0,    0,    0,    0,    1,    1,    0 ]

   @DF-UKS iter   2:   -68.74023496411084    5.87553e-01   1.39582e-01 DIIS
   @DF-UKS iter   3:   -74.16881783304669   -5.42858e+00   9.91733e-02 DIIS
   @DF-UKS iter   4:   -74.96422857741939   -7.95411e-01   3.15200e-02 DIIS
   @DF-UKS iter   5:   -75.07292443669687   -1.08696e-01   2.77032e-03 DIIS
   @DF-UKS iter   6:   -75.07463300854403   -1.70857e-03   5.54389e-04 DIIS
   @DF-UKS iter   7:   -75.07466024394117   -2.72354e-05   1.44897e-04 DIIS
   @DF-UKS iter   8:   -75.07466270254275   -2.45860e-06   1.19835e-05 DIIS
   @DF-UKS iter   9:   -75.07466273750700   -3.49642e-08   2.39524e-06 DIIS
   @DF-UKS iter  10:   -75.07466273823785   -7.30850e-10   3.28967e-07 DIIS
  Energy and wave function converged.


  ==> Post-Iterations <==

   Electrons on quadrature grid:
      Nalpha   =    5.0000000000 ; deviation = 4.383e-11
      Nbeta    =    3.0000000000 ; deviation = 4.386e-11
      Ntotal   =    8.0000000001 ; deviation = 8.769e-11 

   @Spin Contamination Metric:   1.972224421E-03
   @S^2 Expected:                2.000000000E+00
   @S^2 Observed:                2.001972224E+00
   @S   Expected:                1.000000000E+00
   @S   Observed:                1.000000000E+00

    Orbital Energies [Eh]
    ---------------------

    Alpha Occupied:                                                       

       1Ag   -19.597348     2Ag    -1.146011     1B2u   -0.580434  
       1B1u   -0.580434     1B3u   -0.519581  

    Alpha Virtual:                                                        

       2B3u    0.075712     2B2u    0.081969     2B1u    0.081969  
       3Ag     0.093926     4Ag     0.417226     1B3g    0.417226  
       5Ag     0.427916     1B1g    0.428083     1B2g    0.428083  
       3B2u    0.623270     3B1u    0.623270     3B3u    0.643984  
       6Ag     0.690914     7Ag     1.666674     2B3g    1.666674  
       2B1g    1.711902     2B2g    1.711902     8Ag     1.729989  
       4B2u    2.571309     4B1u    2.571309     4B3u    2.638579  
       9Ag     2.843902     5B1u    4.969336     5B2u    4.969336  
       1Au     5.037325     5B3u    5.037325     6B1u    5.076591  
       6B2u    5.076591     6B3u    5.089563     3B3g    6.135088  
      10Ag     6.135088     3B1g    6.207619     3B2g    6.207619  
      11Ag     6.229217    12Ag    42.745758  

    Beta Occupied:                                                        

       1Ag   -19.539291     2Ag    -1.001736     1B3u   -0.472773  

    Beta Virtual:                                                         

       1B2u   -0.073257     1B1u   -0.073257     3Ag     0.054966  
       2B2u    0.059559     2B1u    0.059559     2B3u    0.078732  
       1B3g    0.378979     4Ag     0.378981     5Ag     0.411525  
       1B1g    0.419500     1B2g    0.419500     3B3u    0.651182  
       3B2u    0.669502     3B1u    0.669502     6Ag     0.716465  
       2B1g    1.768763     2B2g    1.768763     7Ag     1.775540  
       2B3g    1.780064     8Ag     1.780065     4B3u    2.659459  
       4B2u    2.708336     4B1u    2.708336     9Ag     2.930770  
       5B3u    5.141177     5B1u    5.159288     5B2u    5.159288  
       1Au     5.179251     6B3u    5.179251     6B1u    5.232596  
       6B2u    5.232596     3B2g    6.277819     3B1g    6.277819  
      10Ag     6.335244     3B3g    6.402655    11Ag     6.402656  
      12Ag    42.748171  

    Final Occupation by Irrep:
             Ag   B1g   B2g   B3g    Au   B1u   B2u   B3u 
    DOCC [     2,    0,    0,    0,    0,    0,    0,    1 ]
    SOCC [     0,    0,    0,    0,    0,    1,    1,    0 ]

  @DF-UKS Final Energy:   -75.07466273823785

   => Energetics <=

    Nuclear Repulsion Energy =              0.0000000000000000
    One-Electron Energy =                -103.2005688744145431
    Two-Electron Energy =                  32.4519872694106226
    DFT Exchange-Correlation Energy =      -4.3260811332339273
    Empirical Dispersion Energy =           0.0000000000000000
    VV10 Nonlocal Energy =                  0.0000000000000000
    Total Energy =                        -75.0746627382378477

  UHF NO Occupations:
  HONO-2 :    2 Ag 1.9994374
  HONO-1 :    1B1u 1.0000000
  HONO-0 :    1B2u 1.0000000
  LUNO+0 :    3 Ag 0.0005626
  LUNO+1 :    2B3u 0.0004231
  LUNO+2 :    4 Ag 0.0000006
  LUNO+3 :    3B3u 0.0000000


Computation Completed


Properties will be evaluated at   0.000000,   0.000000,   0.000000 [a0]

Properties computed using the SCF density matrix

  Nuclear Dipole Moment: [e a0]
     X:     0.0000      Y:     0.0000      Z:     0.0000

  Electronic Dipole Moment: [e a0]
     X:     0.0000      Y:     0.0000      Z:     0.0000

  Dipole Moment: [e a0]
     X:     0.0000      Y:     0.0000      Z:     0.0000     Total:     0.0000

  Dipole Moment: [D]
     X:     0.0000      Y:     0.0000      Z:     0.0000     Total:     0.0000


*** tstop() called on compute361.bc4.acrc.priv at Sun Nov  7 05:08:24 2021
Module time:
	user time   =      52.79 seconds =       0.88 minutes
	system time =       2.07 seconds =       0.03 minutes
	total time  =          3 seconds =       0.05 minutes
Total time:
	user time   =      52.79 seconds =       0.88 minutes
	system time =       2.07 seconds =       0.03 minutes
	total time  =          3 seconds =       0.05 minutes

    Psi4 stopped on: Sunday, 07 November 2021 05:08AM
    Psi4 wall time for execution: 0:00:03.45

*** Psi4 exiting successfully. Buy a developer a beer!
