
    -----------------------------------------------------------------------
          Psi4: An Open-Source Ab Initio Electronic Structure Package
                               Psi4 1.4.1 release

                         Git: Rev {HEAD} cd00f19 


    D. G. A. Smith, L. A. Burns, A. C. Simmonett, R. M. Parrish,
    M. C. Schieber, R. Galvelis, P. Kraus, H. Kruse, R. Di Remigio,
    A. Alenaizan, A. M. James, S. Lehtola, J. P. Misiewicz, M. Scheurer,
    R. A. Shaw, J. B. Schriber, Y. Xie, Z. L. Glick, D. A. Sirianni,
    J. S. O'Brien, J. M. Waldrop, A. Kumar, E. G. Hohenstein,
    B. P. Pritchard, B. R. Brooks, H. F. Schaefer III, A. Yu. Sokolov,
    K. Patkowski, A. E. DePrince III, U. Bozkaya, R. A. King,
    F. A. Evangelista, J. M. Turney, T. D. Crawford, C. D. Sherrill,
    J. Chem. Phys. 152(18) 184108 (2020). https://doi.org/10.1063/5.0006002

                            Additional Code Authors
    E. T. Seidl, C. L. Janssen, E. F. Valeev, M. L. Leininger,
    J. F. Gonthier, R. M. Richard, H. R. McAlexander, M. Saitow, X. Wang,
    P. Verma, and M. H. Lechner

             Previous Authors, Complete List of Code Contributors,
                       and Citations for Specific Modules
    https://github.com/psi4/psi4/blob/master/codemeta.json
    https://github.com/psi4/psi4/graphs/contributors
    http://psicode.org/psi4manual/master/introduction.html#citing-psifour

    -----------------------------------------------------------------------


    Psi4 started on: Sunday, 07 November 2021 05:07AM

    Process ID: 9095
    Host:       compute153.bc4.acrc.priv
    PSIDATADIR: /mnt/storage/home/zw18965/.conda/envs/p4env/share/psi4
    Memory:     500.0 MiB
    Threads:    28
    
  ==> Input File <==

--------------------------------------------------------------------------
memory 120 GB

molecule {
1 5
V          0.00000        0.00000        0.00000
 }

set reference uks
set dynamic_level 1
set basis Def2-TZVPPD

energy("M11-D3BJ")
--------------------------------------------------------------------------

  Memory set to 111.759 GiB by Python driver.

Scratch directory: /tmp/

*** tstart() called on compute153.bc4.acrc.priv
*** at Sun Nov  7 05:07:34 2021

   => Loading Basis Set <=

    Name: DEF2-TZVPPD
    Role: ORBITAL
    Keyword: BASIS
    atoms 1 entry V          line   924 file /mnt/storage/home/zw18965/.conda/envs/p4env/share/psi4/basis/def2-tzvppd.gbs 

   => M11-D3(BJ): Empirical Dispersion <=

    Grimme's -D3 (BJ-damping) Dispersion Correction
    Grimme S.; Ehrlich S.; Goerigk L. (2011), J. Comput. Chem., 32: 1456
    Parametrisation from:    L. Goerigk, J. Phys. Chem. Lett. 6, 3891-3896, 2015

        s6 =       1.000000
        s8 =       2.811200
        a1 =       0.000000
        a2 =      10.138900


         ---------------------------------------------------------
                                   SCF
               by Justin Turney, Rob Parrish, Andy Simmonett
                          and Daniel G. A. Smith
                              UKS Reference
                       28 Threads, 114440 MiB Core
         ---------------------------------------------------------

  ==> Geometry <==

    Molecular point group: d2h
    Geometry (in Angstrom), charge = 1, multiplicity = 5:

       Center              X                  Y                   Z               Mass       
    ------------   -----------------  -----------------  -----------------  -----------------
         V            0.000000000000     0.000000000000     0.000000000000    50.943957040000

  Running in d2h symmetry.

  Rotational constants: A = ************  B = ************  C = ************ [cm^-1]
  Rotational constants: A = ************  B = ************  C = ************ [MHz]
  Nuclear repulsion =    0.000000000000000

  Charge       = 1
  Multiplicity = 5
  Electrons    = 22
  Nalpha       = 13
  Nbeta        = 9

  ==> Algorithm <==

  SCF Algorithm Type is DF.
  DIIS enabled.
  MOM disabled.
  Fractional occupation disabled.
  Guess Type is CORE.
  Energy threshold   = 1.00e-06
  Density threshold  = 1.00e-06
  Integral threshold = 1.00e-12

  ==> Primary Basis <==

  Basis Set: DEF2-TZVPPD
    Blend: DEF2-TZVPPD
    Number of shells: 19
    Number of basis functions: 67
    Number of Cartesian functions: 83
    Spherical Harmonics?: true
    Max angular momentum: 4

  ==> DFT Potential <==

   => Composite Functional: M11-D3BJ <= 

    M11 Meta-GGA XC Functional
(10.1021/jz201170d)
    R. Peverati and D. G. Truhlar, J. Phys. Chem. Lett., 2, 2810, 2011


    Deriv               =              1
    GGA                 =           TRUE
    Meta                =           TRUE

    Exchange Hybrid     =           TRUE
    MP2 Hybrid          =          FALSE

   => Exchange Functionals <=

    1.0000   XC_HYB_MGGA_X_M11 [omega = 0.2500]

   => Exact (HF) Exchange <=

    0.5720            HF,LR [omega = 0.2500]
    0.4280               HF 

   => Correlation Functionals <=

    1.0000    XC_MGGA_C_M11

   => LibXC Density Thresholds  <==

    XC_MGGA_C_M11:  1.00E-15 
    XC_HYB_MGGA_X_M11:  1.00E-11 

   => Molecular Quadrature <=

    Radial Scheme          =       TREUTLER
    Pruning Scheme         =           NONE
    Nuclear Scheme         =       TREUTLER

    BS radius alpha        =              1
    Pruning alpha          =              1
    Radial Points          =             75
    Spherical Points       =            302
    Total Points           =          22040
    Total Blocks           =            248
    Max Points             =            245
    Max Functions          =             67
    Weights Tolerance      =       1.00E-15

   => Loading Basis Set <=

    Name: (DEF2-TZVPPD AUX)
    Role: JKFIT
    Keyword: DF_BASIS_SCF
    atoms 1 entry V          line  1600 file /mnt/storage/home/zw18965/.conda/envs/p4env/share/psi4/basis/def2-universal-jkfit.gbs 

  ==> Integral Setup <==

  DFHelper Memory: AOs need 0.020 GiB; user supplied 83.727 GiB. Using in-core AOs.

  ==> MemDFJK: Density-Fitted J/K Matrices <==

    J tasked:                   Yes
    K tasked:                   Yes
    wK tasked:                  Yes
    Omega:                2.500E-01
    OpenMP threads:              28
    Memory [MiB]:             85735
    Algorithm:                 Core
    Schwarz Cutoff:           1E-12
    Mask sparsity (%):       0.0000
    Fitting Condition:        1E-10

   => Auxiliary Basis Set <=

  Basis Set: (DEF2-TZVPPD AUX)
    Blend: DEF2-UNIVERSAL-JKFIT
    Number of shells: 58
    Number of basis functions: 264
    Number of Cartesian functions: 377
    Spherical Harmonics?: true
    Max angular momentum: 6

  Cached 100.0% of DFT collocation blocks in 0.092 [GiB].

  Minimum eigenvalue in the overlap matrix is 3.6743538076E-02.
  Reciprocal condition number of the overlap matrix is 1.2975168697E-02.
    Using symmetric orthogonalization.

  ==> Pre-Iterations <==

  SCF Guess: Core (One-Electron) Hamiltonian.

   -------------------------------------------------------
    Irrep   Nso     Nmo     Nalpha   Nbeta   Ndocc  Nsocc
   -------------------------------------------------------
     Ag        17      17       5       3       3       2
     B1g        6       6       1       0       0       1
     B2g        6       6       0       0       0       0
     B3g        6       6       1       0       0       1
     Au         2       2       0       0       0       0
     B1u       10      10       2       2       2       0
     B2u       10      10       2       2       2       0
     B3u       10      10       2       2       2       0
   -------------------------------------------------------
    Total      67      67      13       9       9       4
   -------------------------------------------------------

  ==> Iterations <==

                           Total Energy        Delta E     RMS |[F,P]|

    Occupation by irrep:
             Ag   B1g   B2g   B3g    Au   B1u   B2u   B3u 
    DOCC [     3,    0,    0,    0,    0,    2,    2,    2 ]
    SOCC [     1,    0,    0,    0,    0,    1,    1,    1 ]

   @DF-UKS iter   1:  -929.26510486128541   -9.29265e+02   1.96111e-01 DIIS
    Occupation by irrep:
             Ag   B1g   B2g   B3g    Au   B1u   B2u   B3u 
    DOCC [     3,    0,    0,    0,    0,    2,    2,    2 ]
    SOCC [     2,    1,    0,    1,    0,    0,    0,    0 ]

   @DF-UKS iter   2:  -929.87191820370913   -6.06813e-01   2.37946e-01 DIIS
   @DF-UKS iter   3:  -943.48927936251448   -1.36174e+01   1.61027e-02 DIIS
   @DF-UKS iter   4:  -943.57708775539527   -8.78084e-02   9.76560e-03 DIIS
   @DF-UKS iter   5:  -943.58830214332193   -1.12144e-02   4.92273e-03 DIIS
   @DF-UKS iter   6:  -943.59236998656752   -4.06784e-03   4.75992e-04 DIIS
   @DF-UKS iter   7:  -943.59244900831220   -7.90217e-05   1.39010e-04 DIIS
   @DF-UKS iter   8:  -943.59247481874604   -2.58104e-05   6.04865e-05 DIIS
   @DF-UKS iter   9:  -943.59253443242585   -5.96137e-05   4.56586e-05 DIIS
   @DF-UKS iter  10:  -943.59256417554036   -2.97431e-05   2.34198e-05 DIIS
   @DF-UKS iter  11:  -943.59256438006889   -2.04529e-07   1.58570e-05 DIIS
   @DF-UKS iter  12:  -943.59256454313481   -1.63066e-07   2.93611e-06 DIIS
   @DF-UKS iter  13:  -943.59256454557999   -2.44518e-09   4.10207e-07 DIIS
  Energy and wave function converged.


  ==> Post-Iterations <==

   Electrons on quadrature grid:
      Nalpha   =   12.9999998309 ; deviation = -1.691e-07
      Nbeta    =    8.9999998309 ; deviation = -1.691e-07
      Ntotal   =   21.9999996619 ; deviation = -3.381e-07 

   @Spin Contamination Metric:   2.352994685E-04
   @S^2 Expected:                6.000000000E+00
   @S^2 Observed:                6.000235299E+00
   @S   Expected:                2.000000000E+00
   @S   Observed:                2.000000000E+00

    Orbital Energies [Eh]
    ---------------------

    Alpha Occupied:                                                       

       1Ag  -197.776539     2Ag   -22.578647     1B3u  -19.130445  
       1B1u  -19.130445     1B2u  -19.123383     3Ag    -2.965892  
       2B1u   -2.016436     2B3u   -2.016436     2B2u   -1.996647  
       4Ag    -0.541261     1B1g   -0.520589     1B3g   -0.520589  
       5Ag    -0.517261  

    Alpha Virtual:                                                        

       6Ag    -0.236237     1B2g   -0.158346     3B1u   -0.151941  
       3B3u   -0.151941     3B2u   -0.146469     7Ag    -0.036834  
       4B1u   -0.032470     4B3u   -0.032470     4B2u   -0.031311  
       8Ag    -0.016188     2B3g   -0.011285     2B1g   -0.011285  
       9Ag    -0.010599     2B2g   -0.006566     5B3u    0.257645  
       5B1u    0.257645     5B2u    0.261502    10Ag     0.493801  
       3B3g    0.502884     3B1g    0.502884    11Ag     0.503129  
       3B2g    0.520328     6B2u    0.966425     6B3u    0.971389  
       6B1u    0.971389     7B2u    0.981056     1Au     0.984702  
       7B3u    0.988369     7B1u    0.988369     8B3u    1.585688  
       8B1u    1.585688     8B2u    1.590147    12Ag     1.754767  
      13Ag     2.296455     4B1g    2.316415     4B3g    2.316415  
      14Ag     2.323187     4B2g    2.351366     5B2g    3.959881  
       5B3g    3.963406     5B1g    3.963406    15Ag     3.963407  
      16Ag     3.966212     6B3g    3.980022     6B1g    3.980022  
       6B2g    3.982787    17Ag     3.984273     9B2u    4.466523  
       9B3u    4.468576     9B1u    4.468576    10B2u    4.474176  
      10B3u    4.474249    10B1u    4.474249     2Au     4.477881  

    Beta Occupied:                                                        

       1Ag  -197.777879     2Ag   -22.542650     1B3u  -19.101909  
       1B1u  -19.101909     1B2u  -19.082908     3Ag    -2.814418  
       2B1u   -1.859582     2B3u   -1.859582     2B2u   -1.808137  

    Beta Virtual:                                                         

       4Ag    -0.334882     3B1u   -0.282099     3B3u   -0.282099  
       3B2u   -0.266392     1B2g   -0.216910     5Ag    -0.201290  
       1B3g   -0.195578     1B1g   -0.195578     6Ag    -0.193446  
       4B1u   -0.079813     4B3u   -0.079813     7Ag    -0.075090  
       4B2u   -0.072425     2B2g   -0.054339     8Ag    -0.041401  
       2B3g   -0.022687     2B1g   -0.022687     9Ag    -0.015670  
       5B3u    0.218748     5B1u    0.218748     5B2u    0.243844  
       3B2g    0.478497    10Ag     0.518679     3B3g    0.532422  
       3B1g    0.532422    11Ag     0.534906     6B3u    1.014044  
       6B1u    1.014044     1Au     1.032915     6B2u    1.052086  
       7B3u    1.054980     7B1u    1.054980     7B2u    1.056582  
       8B3u    1.588012     8B1u    1.588012     8B2u    1.621269  
      12Ag     1.765283     4B2g    2.334561    13Ag     2.348682  
       4B1g    2.368877     4B3g    2.368877    14Ag     2.374546  
      15Ag     4.026365     5B2g    4.030565     5B3g    4.051193  
       5B1g    4.051193     6B2g    4.059560    16Ag     4.075943  
       6B3g    4.077744     6B1g    4.077744    17Ag     4.079042  
       9B3u    4.527593     9B1u    4.527593     2Au     4.550997  
       9B2u    4.583971    10B3u    4.585477    10B1u    4.585477  
      10B2u    4.586193  

    Final Occupation by Irrep:
             Ag   B1g   B2g   B3g    Au   B1u   B2u   B3u 
    DOCC [     3,    0,    0,    0,    0,    2,    2,    2 ]
    SOCC [     2,    1,    0,    1,    0,    0,    0,    0 ]

  @DF-UKS Final Energy:  -943.59256454557999

   => Energetics <=

    Nuclear Repulsion Energy =              0.0000000000000000
    One-Electron Energy =               -1291.6484839216054752
    Two-Electron Energy =                 372.5752456261045609
    DFT Exchange-Correlation Energy =     -24.5193262500790645
    Empirical Dispersion Energy =           0.0000000000000000
    VV10 Nonlocal Energy =                  0.0000000000000000
    Total Energy =                       -943.5925645455799895

  UHF NO Occupations:
  HONO-2 :    5 Ag 1.0000000
  HONO-1 :    1B1g 1.0000000
  HONO-0 :    1B3g 1.0000000
  LUNO+0 :    3B1u 0.0000470
  LUNO+1 :    3B3u 0.0000470
  LUNO+2 :    3B2u 0.0000194
  LUNO+3 :    6 Ag 0.0000040


Computation Completed


Properties will be evaluated at   0.000000,   0.000000,   0.000000 [a0]

Properties computed using the SCF density matrix

  Nuclear Dipole Moment: [e a0]
     X:     0.0000      Y:     0.0000      Z:     0.0000

  Electronic Dipole Moment: [e a0]
     X:     0.0000      Y:     0.0000      Z:     0.0000

  Dipole Moment: [e a0]
     X:     0.0000      Y:     0.0000      Z:     0.0000     Total:     0.0000

  Dipole Moment: [D]
     X:     0.0000      Y:     0.0000      Z:     0.0000     Total:     0.0000


*** tstop() called on compute153.bc4.acrc.priv at Sun Nov  7 05:07:40 2021
Module time:
	user time   =      84.71 seconds =       1.41 minutes
	system time =       3.65 seconds =       0.06 minutes
	total time  =          6 seconds =       0.10 minutes
Total time:
	user time   =      84.71 seconds =       1.41 minutes
	system time =       3.65 seconds =       0.06 minutes
	total time  =          6 seconds =       0.10 minutes

    Psi4 stopped on: Sunday, 07 November 2021 05:07AM
    Psi4 wall time for execution: 0:00:06.31

*** Psi4 exiting successfully. Buy a developer a beer!
