
    -----------------------------------------------------------------------
          Psi4: An Open-Source Ab Initio Electronic Structure Package
                               Psi4 1.4.1 release

                         Git: Rev {HEAD} cd00f19 


    D. G. A. Smith, L. A. Burns, A. C. Simmonett, R. M. Parrish,
    M. C. Schieber, R. Galvelis, P. Kraus, H. Kruse, R. Di Remigio,
    A. Alenaizan, A. M. James, S. Lehtola, J. P. Misiewicz, M. Scheurer,
    R. A. Shaw, J. B. Schriber, Y. Xie, Z. L. Glick, D. A. Sirianni,
    J. S. O'Brien, J. M. Waldrop, A. Kumar, E. G. Hohenstein,
    B. P. Pritchard, B. R. Brooks, H. F. Schaefer III, A. Yu. Sokolov,
    K. Patkowski, A. E. DePrince III, U. Bozkaya, R. A. King,
    F. A. Evangelista, J. M. Turney, T. D. Crawford, C. D. Sherrill,
    J. Chem. Phys. 152(18) 184108 (2020). https://doi.org/10.1063/5.0006002

                            Additional Code Authors
    E. T. Seidl, C. L. Janssen, E. F. Valeev, M. L. Leininger,
    J. F. Gonthier, R. M. Richard, H. R. McAlexander, M. Saitow, X. Wang,
    P. Verma, and M. H. Lechner

             Previous Authors, Complete List of Code Contributors,
                       and Citations for Specific Modules
    https://github.com/psi4/psi4/blob/master/codemeta.json
    https://github.com/psi4/psi4/graphs/contributors
    http://psicode.org/psi4manual/master/introduction.html#citing-psifour

    -----------------------------------------------------------------------


    Psi4 started on: Sunday, 07 November 2021 05:08AM

    Process ID: 12498
    Host:       compute350.bc4.acrc.priv
    PSIDATADIR: /mnt/storage/home/zw18965/.conda/envs/p4env/share/psi4
    Memory:     500.0 MiB
    Threads:    28
    
  ==> Input File <==

--------------------------------------------------------------------------
memory 120 GB

molecule {
1 5
V          0.00000        0.00000        0.00000
C          0.00000        0.00000        2.11314
O          0.00000        0.00000        3.23351
 }

set reference uks
set dynamic_level 1
set basis Def2-TZVPPD

energy("M11-D3BJ")
--------------------------------------------------------------------------

  Memory set to 111.759 GiB by Python driver.

Scratch directory: /tmp/

*** tstart() called on compute350.bc4.acrc.priv
*** at Sun Nov  7 05:08:21 2021

   => Loading Basis Set <=

    Name: DEF2-TZVPPD
    Role: ORBITAL
    Keyword: BASIS
    atoms 1 entry V          line   924 file /mnt/storage/home/zw18965/.conda/envs/p4env/share/psi4/basis/def2-tzvppd.gbs 
    atoms 2 entry C          line   144 file /mnt/storage/home/zw18965/.conda/envs/p4env/share/psi4/basis/def2-tzvppd.gbs 
    atoms 3 entry O          line   218 file /mnt/storage/home/zw18965/.conda/envs/p4env/share/psi4/basis/def2-tzvppd.gbs 

   => M11-D3(BJ): Empirical Dispersion <=

    Grimme's -D3 (BJ-damping) Dispersion Correction
    Grimme S.; Ehrlich S.; Goerigk L. (2011), J. Comput. Chem., 32: 1456
    Parametrisation from:    L. Goerigk, J. Phys. Chem. Lett. 6, 3891-3896, 2015

        s6 =       1.000000
        s8 =       2.811200
        a1 =       0.000000
        a2 =      10.138900


         ---------------------------------------------------------
                                   SCF
               by Justin Turney, Rob Parrish, Andy Simmonett
                          and Daniel G. A. Smith
                              UKS Reference
                       28 Threads, 114440 MiB Core
         ---------------------------------------------------------

  ==> Geometry <==

    Molecular point group: c2v
    Full point group: C_inf_v

    Geometry (in Angstrom), charge = 1, multiplicity = 5:

       Center              X                  Y                   Z               Mass       
    ------------   -----------------  -----------------  -----------------  -----------------
         V            0.000000000000     0.000000000000    -0.976418775074    50.943957040000
         C            0.000000000000     0.000000000000     1.136721224926    12.000000000000
         O            0.000000000000     0.000000000000     2.257091224926    15.994914619570

  Running in c2v symmetry.

  Rotational constants: A = ************  B =      0.11581  C =      0.11581 [cm^-1]
  Rotational constants: A = ************  B =   3471.94608  C =   3471.94608 [MHz]
  Nuclear repulsion =   87.342156794418941

  Charge       = 1
  Multiplicity = 5
  Electrons    = 36
  Nalpha       = 20
  Nbeta        = 16

  ==> Algorithm <==

  SCF Algorithm Type is DF.
  DIIS enabled.
  MOM disabled.
  Fractional occupation disabled.
  Guess Type is SAD.
  Energy threshold   = 1.00e-06
  Density threshold  = 1.00e-06
  Integral threshold = 1.00e-12

  ==> Primary Basis <==

  Basis Set: DEF2-TZVPPD
    Blend: DEF2-TZVPPD
    Number of shells: 46
    Number of basis functions: 144
    Number of Cartesian functions: 172
    Spherical Harmonics?: true
    Max angular momentum: 4

  ==> DFT Potential <==

   => Composite Functional: M11-D3BJ <= 

    M11 Meta-GGA XC Functional
(10.1021/jz201170d)
    R. Peverati and D. G. Truhlar, J. Phys. Chem. Lett., 2, 2810, 2011


    Deriv               =              1
    GGA                 =           TRUE
    Meta                =           TRUE

    Exchange Hybrid     =           TRUE
    MP2 Hybrid          =          FALSE

   => Exchange Functionals <=

    1.0000   XC_HYB_MGGA_X_M11 [omega = 0.2500]

   => Exact (HF) Exchange <=

    0.5720            HF,LR [omega = 0.2500]
    0.4280               HF 

   => Correlation Functionals <=

    1.0000    XC_MGGA_C_M11

   => LibXC Density Thresholds  <==

    XC_MGGA_C_M11:  1.00E-15 
    XC_HYB_MGGA_X_M11:  1.00E-11 

   => Molecular Quadrature <=

    Radial Scheme          =       TREUTLER
    Pruning Scheme         =           NONE
    Nuclear Scheme         =       TREUTLER

    BS radius alpha        =              1
    Pruning alpha          =              1
    Radial Points          =             75
    Spherical Points       =            302
    Total Points           =          66346
    Total Blocks           =            580
    Max Points             =            255
    Max Functions          =            142
    Weights Tolerance      =       1.00E-15

   => Loading Basis Set <=

    Name: (DEF2-TZVPPD AUX)
    Role: JKFIT
    Keyword: DF_BASIS_SCF
    atoms 1 entry V          line  1600 file /mnt/storage/home/zw18965/.conda/envs/p4env/share/psi4/basis/def2-universal-jkfit.gbs 
    atoms 2 entry C          line   198 file /mnt/storage/home/zw18965/.conda/envs/p4env/share/psi4/basis/def2-universal-jkfit.gbs 
    atoms 3 entry O          line   318 file /mnt/storage/home/zw18965/.conda/envs/p4env/share/psi4/basis/def2-universal-jkfit.gbs 

  ==> Integral Setup <==

  DFHelper Memory: AOs need 0.137 GiB; user supplied 83.260 GiB. Using in-core AOs.

  ==> MemDFJK: Density-Fitted J/K Matrices <==

    J tasked:                   Yes
    K tasked:                   Yes
    wK tasked:                  Yes
    Omega:                2.500E-01
    OpenMP threads:              28
    Memory [MiB]:             85257
    Algorithm:                 Core
    Schwarz Cutoff:           1E-12
    Mask sparsity (%):       2.3341
    Fitting Condition:        1E-10

   => Auxiliary Basis Set <=

  Basis Set: (DEF2-TZVPPD AUX)
    Blend: DEF2-UNIVERSAL-JKFIT
    Number of shells: 108
    Number of basis functions: 416
    Number of Cartesian functions: 559
    Spherical Harmonics?: true
    Max angular momentum: 6

  Cached 100.0% of DFT collocation blocks in 0.559 [GiB].

  Minimum eigenvalue in the overlap matrix is 1.0074175382E-04.
  Reciprocal condition number of the overlap matrix is 1.4209822468E-05.
    Using symmetric orthogonalization.

  ==> Pre-Iterations <==

  SCF Guess: Superposition of Atomic Densities via on-the-fly atomic UHF (no occupation information).

   -------------------------
    Irrep   Nso     Nmo    
   -------------------------
     A1        62      62 
     A2        16      16 
     B1        33      33 
     B2        33      33 
   -------------------------
    Total     144     144
   -------------------------

  ==> Iterations <==

                           Total Energy        Delta E     RMS |[F,P]|

   @DF-UKS iter SAD: -1055.89415759710664   -1.05589e+03   0.00000e+00 
   @DF-UKS iter   1: -1056.81431686559722   -9.20159e-01   8.72597e-03 DIIS
   @DF-UKS iter   2: -1056.80062496495361    1.36919e-02   9.17556e-03 DIIS
   @DF-UKS iter   3: -1056.94918073439521   -1.48556e-01   1.23112e-03 DIIS
   @DF-UKS iter   4: -1056.95372711067785   -4.54638e-03   3.00192e-04 DIIS
   @DF-UKS iter   5: -1056.95478747572747   -1.06037e-03   1.28929e-04 DIIS
   @DF-UKS iter   6: -1056.95504883203830   -2.61356e-04   5.50054e-05 DIIS
   @DF-UKS iter   7: -1056.95507931022257   -3.04782e-05   4.19880e-05 DIIS
   @DF-UKS iter   8: -1056.95508627198706   -6.96176e-06   9.88262e-06 DIIS
   @DF-UKS iter   9: -1056.95508768802847   -1.41604e-06   3.62475e-06 DIIS
   @DF-UKS iter  10: -1056.95508791083739   -2.22809e-07   1.08586e-06 DIIS
   @DF-UKS iter  11: -1056.95508793324643   -2.24090e-08   4.93795e-07 DIIS
  Energy and wave function converged.


  ==> Post-Iterations <==

   Electrons on quadrature grid:
      Nalpha   =   19.9999993356 ; deviation = -6.644e-07
      Nbeta    =   15.9999996481 ; deviation = -3.519e-07
      Ntotal   =   35.9999989837 ; deviation = -1.016e-06 

   @Spin Contamination Metric:   2.020092183E-03
   @S^2 Expected:                6.000000000E+00
   @S^2 Observed:                6.002020092E+00
   @S   Expected:                2.000000000E+00
   @S   Observed:                2.000000000E+00

    Orbital Energies [Eh]
    ---------------------

    Alpha Occupied:                                                       

       1A1  -197.775492     2A1   -22.583804     3A1   -19.746835  
       4A1   -19.138227     1B1   -19.129470     1B2   -19.129470  
       5A1   -10.751846     6A1    -2.959964     7A1    -2.011525  
       2B1    -2.000065     2B2    -2.000065     8A1    -1.498798  
       9A1    -0.895647     3B1    -0.797843     3B2    -0.797843  
      10A1    -0.766300     4B1    -0.521187     4B2    -0.521187  
       1A2    -0.514047    11A1    -0.514041  

    Alpha Virtual:                                                        

      12A1    -0.212131     5B1    -0.169656     5B2    -0.169656  
      13A1    -0.157839     6B1    -0.103542     6B2    -0.103542  
      14A1    -0.092833    15A1    -0.065538     7B2    -0.056509  
       7B1    -0.056509    16A1    -0.046786     8B1    -0.012333  
       8B2    -0.012333     2A2    -0.010359    17A1    -0.010358  
      18A1    -0.009636     9B1     0.023873     9B2     0.023873  
      19A1     0.041775    20A1     0.087080     3A2     0.092589  
      21A1     0.092592    22A1     0.149727    23A1     0.204280  
      10B2     0.204980    10B1     0.204980    11B1     0.255288  
      11B2     0.255288    24A1     0.266720    12B1     0.333540  
      12B2     0.333540    25A1     0.339027     4A2     0.375867  
      26A1     0.375870    13B2     0.405341    13B1     0.405341  
      27A1     0.430752     5A2     0.500963    28A1     0.500983  
      29A1     0.538086    14B1     0.604888    14B2     0.604888  
      30A1     0.646465     6A2     0.694699    31A1     0.694984  
      32A1     0.718396    15B1     0.769493    15B2     0.769493  
      33A1     0.794430    16B1     0.855567    16B2     0.855568  
      34A1     0.974051    17B2     0.987018    17B1     0.987018  
       7A2     1.037225    35A1     1.037232    36A1     1.249815  
      18B1     1.331138    18B2     1.331138    37A1     1.510514  
      19B1     1.517081    19B2     1.517082     8A2     1.608811  
      38A1     1.608918    20B1     1.620363    20B2     1.620363  
      39A1     1.708422    40A1     1.741839    41A1     2.034252  
      21B1     2.074091    21B2     2.074091    42A1     2.158976  
      43A1     2.275819    44A1     2.329145     9A2     2.329151  
      22B1     2.354037    22B2     2.354037    23B1     2.519266  
      23B2     2.519266    45A1     2.668853    10A2     2.738472  
      46A1     2.738801    24B1     2.742316    24B2     2.742316  
      47A1     2.931918    11A2     2.933198    25B1     3.011790  
      25B2     3.011790    48A1     3.083476    49A1     3.240845  
      26B1     3.461638    26B2     3.461638    50A1     3.918274  
      27B2     3.974285    27B1     3.974285    12A2     3.993814  
      51A1     3.993864    13A2     3.994301    52A1     3.994311  
      28B1     4.161091    28B2     4.161091    53A1     4.230754  
      29B2     4.473655    29B1     4.473655    14A2     4.493817  
      54A1     4.493838    55A1     4.497976    30B1     4.651520  
      30B2     4.651520    31B1     4.907318    31B2     4.907318  
      56A1     5.021620    15A2     5.325211    57A1     5.325276  
      32B1     6.114129    32B2     6.114129    16A2     6.130527  
      58A1     6.130661    59A1     6.423254    33B1     6.524308  
      33B2     6.524308    60A1     6.952106    61A1    22.338667  
      62A1    43.532133  

    Beta Occupied:                                                        

       1A1  -197.776790     2A1   -22.549305     3A1   -19.744169  
       4A1   -19.115771     1B1   -19.093867     1B2   -19.093867  
       5A1   -10.752680     6A1    -2.818236     7A1    -1.882488  
       2B1    -1.826846     2B2    -1.826846     8A1    -1.496835  
       9A1    -0.891089     3B1    -0.789635     3B2    -0.789635  
      10A1    -0.757549  

    Beta Virtual:                                                         

      11A1    -0.293999     4B1    -0.235927     4B2    -0.235927  
      12A1    -0.195750     5B1    -0.177690     5B2    -0.177690  
       1A2    -0.152281    13A1    -0.152278    14A1    -0.102109  
       6B1    -0.095738     6B2    -0.095738    15A1    -0.084040  
      16A1    -0.066939     7B1    -0.053458     7B2    -0.053458  
       8B2    -0.040135     8B1    -0.040135    17A1    -0.036627  
       2A2    -0.007891    18A1    -0.007880     9B2    -0.007226  
       9B1    -0.007226    19A1     0.026083    20A1     0.052641  
       3A2     0.068204    21A1     0.068208    22A1     0.127696  
      10B2     0.200566    10B1     0.200566    23A1     0.200742  
      11B1     0.235886    11B2     0.235886    24A1     0.252627  
      12B1     0.320580    12B2     0.320580    25A1     0.332143  
       4A2     0.367498    26A1     0.367503    13B2     0.411644  
      13B1     0.411644    27A1     0.429294    28A1     0.526661  
       5A2     0.533543    29A1     0.533561    14B1     0.626962  
      14B2     0.626962    30A1     0.644504     6A2     0.698211  
      31A1     0.698421    32A1     0.715475    15B1     0.770217  
      15B2     0.770217    33A1     0.802600    16B1     0.868469  
      16B2     0.868469    34A1     0.969720    17B2     1.056847  
      17B1     1.056847     7A2     1.110961    35A1     1.110972  
      36A1     1.263984    18B1     1.361484    18B2     1.361484  
      37A1     1.504047    19B1     1.515353    19B2     1.515353  
       8A2     1.611543    38A1     1.611644    20B1     1.646096  
      20B2     1.646096    39A1     1.709429    40A1     1.744731  
      41A1     2.031825    21B1     2.081061    21B2     2.081061  
      42A1     2.176062    43A1     2.280923     9A2     2.382001  
      44A1     2.382001    22B1     2.403052    22B2     2.403052  
      23B1     2.521350    23B2     2.521350    45A1     2.660416  
      10A2     2.742558    46A1     2.742894    24B1     2.748280  
      24B2     2.748280    47A1     2.930857    11A2     2.932186  
      25B1     3.006913    25B2     3.006913    48A1     3.082858  
      49A1     3.237437    26B1     3.471590    26B2     3.471590  
      50A1     3.946227    27B2     4.081311    27B1     4.081311  
      12A2     4.082296    51A1     4.082443    52A1     4.082842  
      13A2     4.082857    28B1     4.219130    28B2     4.219130  
      53A1     4.233160    54A1     4.517679    29B2     4.586625  
      29B1     4.586625    55A1     4.606461    14A2     4.606473  
      30B1     4.713185    30B2     4.713186    31B1     4.917754  
      31B2     4.917754    56A1     5.051336    15A2     5.331103  
      57A1     5.331179    32B1     6.121434    32B2     6.121434  
      16A2     6.141517    58A1     6.141650    59A1     6.427128  
      33B1     6.527798    33B2     6.527798    60A1     6.952797  
      61A1    22.337274    62A1    43.531215  

    Final Occupation by Irrep:
             A1    A2    B1    B2 
    DOCC [    10,    0,    3,    3 ]
    SOCC [     1,    1,    1,    1 ]

  @DF-UKS Final Energy: -1056.95508793324643

   => Energetics <=

    Nuclear Repulsion Energy =             87.3421567944189405
    One-Electron Energy =               -1616.8867359766459231
    Two-Electron Energy =                 504.2055907642579768
    DFT Exchange-Correlation Energy =     -31.6156701452776439
    Empirical Dispersion Energy =          -0.0004293700000000
    VV10 Nonlocal Energy =                  0.0000000000000000
    Total Energy =                      -1056.9550879332464319

  UHF NO Occupations:
  HONO-2 :    1 A2 1.0000000
  HONO-1 :    4 B2 1.0000000
  HONO-0 :    4 B1 1.0000000
  LUNO+0 :   12 A1 0.0004845
  LUNO+1 :    5 B2 0.0002064
  LUNO+2 :    5 B1 0.0002064
  LUNO+3 :   13 A1 0.0000765


Computation Completed


Properties will be evaluated at   0.000000,   0.000000,   0.000000 [a0]

Properties computed using the SCF density matrix

  Nuclear Dipole Moment: [e a0]
     X:     0.0000      Y:     0.0000      Z:     4.5721

  Electronic Dipole Moment: [e a0]
     X:     0.0000      Y:     0.0000      Z:    -6.2810

  Dipole Moment: [e a0]
     X:     0.0000      Y:     0.0000      Z:    -1.7090     Total:     1.7090

  Dipole Moment: [D]
     X:     0.0000      Y:     0.0000      Z:    -4.3437     Total:     4.3437


*** tstop() called on compute350.bc4.acrc.priv at Sun Nov  7 05:08:36 2021
Module time:
	user time   =     346.99 seconds =       5.78 minutes
	system time =      14.30 seconds =       0.24 minutes
	total time  =         15 seconds =       0.25 minutes
Total time:
	user time   =     346.99 seconds =       5.78 minutes
	system time =      14.30 seconds =       0.24 minutes
	total time  =         15 seconds =       0.25 minutes

    Psi4 stopped on: Sunday, 07 November 2021 05:08AM
    Psi4 wall time for execution: 0:00:14.99

*** Psi4 exiting successfully. Buy a developer a beer!
