
    -----------------------------------------------------------------------
          Psi4: An Open-Source Ab Initio Electronic Structure Package
                               Psi4 1.4.1 release

                         Git: Rev {HEAD} cd00f19 


    D. G. A. Smith, L. A. Burns, A. C. Simmonett, R. M. Parrish,
    M. C. Schieber, R. Galvelis, P. Kraus, H. Kruse, R. Di Remigio,
    A. Alenaizan, A. M. James, S. Lehtola, J. P. Misiewicz, M. Scheurer,
    R. A. Shaw, J. B. Schriber, Y. Xie, Z. L. Glick, D. A. Sirianni,
    J. S. O'Brien, J. M. Waldrop, A. Kumar, E. G. Hohenstein,
    B. P. Pritchard, B. R. Brooks, H. F. Schaefer III, A. Yu. Sokolov,
    K. Patkowski, A. E. DePrince III, U. Bozkaya, R. A. King,
    F. A. Evangelista, J. M. Turney, T. D. Crawford, C. D. Sherrill,
    J. Chem. Phys. 152(18) 184108 (2020). https://doi.org/10.1063/5.0006002

                            Additional Code Authors
    E. T. Seidl, C. L. Janssen, E. F. Valeev, M. L. Leininger,
    J. F. Gonthier, R. M. Richard, H. R. McAlexander, M. Saitow, X. Wang,
    P. Verma, and M. H. Lechner

             Previous Authors, Complete List of Code Contributors,
                       and Citations for Specific Modules
    https://github.com/psi4/psi4/blob/master/codemeta.json
    https://github.com/psi4/psi4/graphs/contributors
    http://psicode.org/psi4manual/master/introduction.html#citing-psifour

    -----------------------------------------------------------------------


    Psi4 started on: Sunday, 07 November 2021 05:08AM

    Process ID: 4249
    Host:       compute399.bc4.acrc.priv
    PSIDATADIR: /mnt/storage/home/zw18965/.conda/envs/p4env/share/psi4
    Memory:     500.0 MiB
    Threads:    28
    
  ==> Input File <==

--------------------------------------------------------------------------
memory 120 GB

molecule {
0 3
Zr         0.00000        0.00000        0.00000
Zr         0.00000        0.00000        2.24000
 }

set reference uks
set dynamic_level 1
set basis Def2-TZVPPD

energy("M11-D3BJ")
--------------------------------------------------------------------------

  Memory set to 111.759 GiB by Python driver.

Scratch directory: /tmp/

*** tstart() called on compute399.bc4.acrc.priv
*** at Sun Nov  7 05:08:20 2021

   => Loading Basis Set <=

    Name: DEF2-TZVPPD
    Role: ORBITAL
    Keyword: BASIS
    atoms 1-2 entry ZR         line  1892 (ECP: line  3478) file /mnt/storage/home/zw18965/.conda/envs/p4env/share/psi4/basis/def2-tzvppd.gbs 

    !!!  WARNING: ECP capability is in beta. Please check occupations closely.  !!!

   => M11-D3(BJ): Empirical Dispersion <=

    Grimme's -D3 (BJ-damping) Dispersion Correction
    Grimme S.; Ehrlich S.; Goerigk L. (2011), J. Comput. Chem., 32: 1456
    Parametrisation from:    L. Goerigk, J. Phys. Chem. Lett. 6, 3891-3896, 2015

        s6 =       1.000000
        s8 =       2.811200
        a1 =       0.000000
        a2 =      10.138900


         ---------------------------------------------------------
                                   SCF
               by Justin Turney, Rob Parrish, Andy Simmonett
                          and Daniel G. A. Smith
                              UKS Reference
                       28 Threads, 114440 MiB Core
         ---------------------------------------------------------

  ==> Geometry <==

    Molecular point group: d2h
    Full point group: D_inf_h

    Geometry (in Angstrom), charge = 0, multiplicity = 3:

       Center              X                  Y                   Z               Mass       
    ------------   -----------------  -----------------  -----------------  -----------------
         ZR           0.000000000000     0.000000000000    -1.120000000000    89.904697700000
         ZR           0.000000000000     0.000000000000     1.120000000000    89.904697700000

  Running in d2h symmetry.

  Rotational constants: A = ************  B =      0.07474  C =      0.07474 [cm^-1]
  Rotational constants: A = ************  B =   2240.62292  C =   2240.62292 [MHz]
  Nuclear repulsion =   34.018534971642843

  Charge       = 0
  Multiplicity = 3
  Electrons    = 24
  Nalpha       = 13
  Nbeta        = 11

  ==> Algorithm <==

  SCF Algorithm Type is DF.
  DIIS enabled.
  MOM disabled.
  Fractional occupation disabled.
  Guess Type is SAD.
  Energy threshold   = 1.00e-06
  Density threshold  = 1.00e-06
  Integral threshold = 1.00e-12

  ==> Primary Basis <==

  Basis Set: DEF2-TZVPPD
    Blend: DEF2-TZVPPD
    Number of shells: 32
    Number of basis functions: 112
    Number of Cartesian functions: 142
    Spherical Harmonics?: true
    Max angular momentum: 4

  Core potential: DEF2-TZVPPD
    Number of shells: 8
    Number of ECP primitives: 28
    Number of ECP core electrons: 56
    Max angular momentum: 3

  ==> DFT Potential <==

   => Composite Functional: M11-D3BJ <= 

    M11 Meta-GGA XC Functional
(10.1021/jz201170d)
    R. Peverati and D. G. Truhlar, J. Phys. Chem. Lett., 2, 2810, 2011


    Deriv               =              1
    GGA                 =           TRUE
    Meta                =           TRUE

    Exchange Hybrid     =           TRUE
    MP2 Hybrid          =          FALSE

   => Exchange Functionals <=

    1.0000   XC_HYB_MGGA_X_M11 [omega = 0.2500]

   => Exact (HF) Exchange <=

    0.5720            HF,LR [omega = 0.2500]
    0.4280               HF 

   => Correlation Functionals <=

    1.0000    XC_MGGA_C_M11

   => LibXC Density Thresholds  <==

    XC_MGGA_C_M11:  1.00E-15 
    XC_HYB_MGGA_X_M11:  1.00E-11 

   => Molecular Quadrature <=

    Radial Scheme          =       TREUTLER
    Pruning Scheme         =           NONE
    Nuclear Scheme         =       TREUTLER

    BS radius alpha        =              1
    Pruning alpha          =              1
    Radial Points          =             75
    Spherical Points       =            302
    Total Points           =          42990
    Total Blocks           =            436
    Max Points             =            255
    Max Functions          =            111
    Weights Tolerance      =       1.00E-15

   => Loading Basis Set <=

    Name: (DEF2-TZVPPD AUX)
    Role: JKFIT
    Keyword: DF_BASIS_SCF
    atoms 1-2 entry ZR         line  3622 file /mnt/storage/home/zw18965/.conda/envs/p4env/share/psi4/basis/def2-universal-jkfit.gbs 

  ==> Integral Setup <==

  DFHelper Memory: AOs need 0.103 GiB; user supplied 83.508 GiB. Using in-core AOs.

  ==> MemDFJK: Density-Fitted J/K Matrices <==

    J tasked:                   Yes
    K tasked:                   Yes
    wK tasked:                  Yes
    Omega:                2.500E-01
    OpenMP threads:              28
    Memory [MiB]:             85512
    Algorithm:                 Core
    Schwarz Cutoff:           1E-12
    Mask sparsity (%):       0.0638
    Fitting Condition:        1E-10

   => Auxiliary Basis Set <=

  Basis Set: (DEF2-TZVPPD AUX)
    Blend: DEF2-UNIVERSAL-JKFIT
    Number of shells: 98
    Number of basis functions: 510
    Number of Cartesian functions: 768
    Spherical Harmonics?: true
    Max angular momentum: 6

  Cached 100.0% of DFT collocation blocks in 0.311 [GiB].

  Minimum eigenvalue in the overlap matrix is 2.7957454173E-04.
  Reciprocal condition number of the overlap matrix is 5.8617086553E-05.
    Using symmetric orthogonalization.

  ==> Pre-Iterations <==

  SCF Guess: Superposition of Atomic Densities via on-the-fly atomic UHF (no occupation information).

   -------------------------
    Irrep   Nso     Nmo    
   -------------------------
     Ag        23      23 
     B1g        7       7 
     B2g       13      13 
     B3g       13      13 
     Au         7       7 
     B1u       23      23 
     B2u       13      13 
     B3u       13      13 
   -------------------------
    Total     112     112
   -------------------------

  ==> Iterations <==

                           Total Energy        Delta E     RMS |[F,P]|

   @DF-UKS iter SAD:   -93.69527214030208   -9.36953e+01   0.00000e+00 
   @DF-UKS iter   1:   -93.47108553331233    2.24187e-01   1.31724e-02 DIIS
   @DF-UKS iter   2:   -93.50471340062393   -3.36279e-02   1.21589e-02 DIIS
   @DF-UKS iter   3:   -93.63300146178688   -1.28288e-01   6.57056e-04 DIIS
   @DF-UKS iter   4:   -93.63413463923399   -1.13318e-03   2.28752e-04 DIIS
   @DF-UKS iter   5:   -93.63437893557142   -2.44296e-04   1.12532e-04 DIIS
   @DF-UKS iter   6:   -93.63445469883723   -7.57633e-05   5.63650e-05 DIIS
   @DF-UKS iter   7:   -93.63450261851651   -4.79197e-05   4.03558e-05 DIIS
   @DF-UKS iter   8:   -93.63454902205447   -4.64035e-05   2.97046e-05 DIIS
   @DF-UKS iter   9:   -93.63459309758207   -4.40755e-05   1.65753e-05 DIIS
   @DF-UKS iter  10:   -93.63460809292059   -1.49953e-05   5.18364e-06 DIIS
   @DF-UKS iter  11:   -93.63460889599173   -8.03071e-07   1.72784e-06 DIIS
   @DF-UKS iter  12:   -93.63460894622546   -5.02337e-08   7.18906e-07 DIIS
  Energy and wave function converged.


  ==> Post-Iterations <==

   Electrons on quadrature grid:
      Nalpha   =   13.0000006186 ; deviation = 6.186e-07
      Nbeta    =   11.0000013206 ; deviation = 1.321e-06
      Ntotal   =   24.0000019392 ; deviation = 1.939e-06 

   @Spin Contamination Metric:   1.189772683E-02
   @S^2 Expected:                2.000000000E+00
   @S^2 Observed:                2.011897727E+00
   @S   Expected:                1.000000000E+00
   @S   Observed:                1.000000000E+00

    Orbital Energies [Eh]
    ---------------------

    Alpha Occupied:                                                       

       1Ag    -2.218157     1B1u   -2.184282     2Ag    -1.396228  
       1B3u   -1.350280     1B2u   -1.338389     1B2g   -1.320483  
       1B3g   -1.309358     2B1u   -1.234418     2B3u   -0.282073  
       2B2u   -0.261859     3Ag    -0.239712     4Ag    -0.225332  
       5Ag    -0.206173  

    Alpha Virtual:                                                        

       3B1u   -0.019879     3B3u    0.011533     3B2u    0.014886  
       1B1g    0.025879     6Ag     0.031824     4B1u    0.034128  
       2B2g    0.034473     2B3g    0.036712     5B1u    0.046052  
       6B1u    0.091275     1Au     0.099097     3B2g    0.107657  
       3B3g    0.111770     7Ag     0.118715     4B3u    0.147217  
       4B2u    0.154515     7B1u    0.175483     8Ag     0.182291  
       9Ag     0.207007     5B3u    0.219180     2B1g    0.222965  
       5B2u    0.224892     8B1u    0.243515     2Au     0.246760  
       4B2g    0.246796     4B3g    0.255918     9B1u    0.270518  
      10Ag     0.282754     5B2g    0.284393     5B3g    0.289445  
       6B3u    0.501652     6B2u    0.504621     3B1g    0.513927  
      11Ag     0.521528    10B1u    0.551256     6B2g    0.609290  
       6B3g    0.612877    12Ag     0.639043     7B3u    0.669277  
       7B2u    0.675438    11B1u    0.713759     7B2g    0.714395  
       7B3g    0.721621    12B1u    0.732298     3Au     0.738476  
      13Ag     0.914451     8B3u    0.918936     4B1g    0.920901  
       8B2u    0.935177    14Ag     0.941082     8B2g    0.954694  
       8B3g    0.959299    13B1u    0.991989     4Au     1.007034  
       9B3u    1.047723    15Ag     1.053075     9B2u    1.054980  
      14B1u    1.094780    10B3u    1.156228    10B2u    1.156565  
      16Ag     1.189354     5B1g    1.191007    15B1u    1.193287  
       6B1g    1.270943    17Ag     1.273057    16B1u    1.286612  
       9B2g    1.288924     5Au     1.289305     9B3g    1.294156  
      11B3u    1.401460    18Ag     1.418869    11B2u    1.420601  
      10B2g    1.468781    10B3g    1.468820    19Ag     1.614293  
      12B2u    1.676108    12B3u    1.677116    11B3g    1.715850  
      11B2g    1.716973    12B2g    1.729099    17B1u    1.740687  
      12B3g    1.740793     7B1g    1.760317     6Au     1.762263  
      18B1u    1.762648    20Ag     1.764345    19B1u    1.796912  
       7Au     1.800845    20B1u    1.856393    13B3u    2.019499  
      13B2u    2.038000    21Ag     2.125969    13B2g    2.262795  
      13B3g    2.279992    21B1u    2.765683    22Ag    20.111524  
      22B1u   20.378313    23Ag    72.323743    23B1u   72.416596  

    Beta Occupied:                                                        

       1Ag    -2.201540     1B1u   -2.169759     2Ag    -1.370120  
       1B2u   -1.315626     1B3u   -1.314708     1B3g   -1.290728  
       1B2g   -1.289929     2B1u   -1.222474     2B2u   -0.242076  
       3Ag    -0.219215     4Ag    -0.202713  

    Beta Virtual:                                                         

       3B1u   -0.015856     2B3u   -0.000902     3B2u    0.020088  
       3B3u    0.024540     5Ag     0.035874     1B1g    0.036175  
       2B3g    0.040812     2B2g    0.041476     4B1u    0.045500  
       6Ag     0.047970     5B1u    0.088215     1Au     0.103681  
       6B1u    0.112502     3B3g    0.115086     7Ag     0.121199  
       3B2g    0.131515     4B3u    0.157313     4B2u    0.162096  
       7B1u    0.180944     8Ag     0.196633     2B1g    0.227795  
       5B2u    0.230335     9Ag     0.231425     5B3u    0.236363  
       2Au     0.250687     8B1u    0.256253     4B3g    0.262637  
       9B1u    0.278772     4B2g    0.286641    10Ag     0.291740  
       5B2g    0.294638     5B3g    0.297484     6B3u    0.523341  
       6B2u    0.526552     3B1g    0.533153    11Ag     0.549390  
      10B1u    0.559901     6B2g    0.621403     6B3g    0.624905  
      12Ag     0.652009     7B2u    0.683688     7B3u    0.692613  
       7B2g    0.721630    11B1u    0.721990     7B3g    0.727930  
       3Au     0.742608    12B1u    0.746164     4B1g    0.925323  
      13Ag     0.940768     8B3u    0.941973     8B2u    0.942230  
      14Ag     0.951899     8B3g    0.964083     8B2g    0.975012  
       4Au     1.010833    13B1u    1.018631    15Ag     1.064386  
       9B2u    1.066008     9B3u    1.066174    14B1u    1.100260  
      10B3u    1.176091    10B2u    1.177068    15B1u    1.202125  
      16Ag     1.203955     5B1g    1.207991     6B1g    1.287133  
      16B1u    1.298166     9B3g    1.299978    17Ag     1.301933  
       5Au     1.303970     9B2g    1.310529    18Ag     1.430584  
      11B2u    1.430606    11B3u    1.435815    10B2g    1.484022  
      10B3g    1.485020    19Ag     1.631031    12B2u    1.698354  
      12B3u    1.699670    11B3g    1.735389    11B2g    1.737412  
      12B2g    1.745334    12B3g    1.745766    17B1u    1.752055  
       6Au     1.777468     7B1g    1.777648    18B1u    1.787624  
      20Ag     1.792975     7Au     1.808488    19B1u    1.821641  
      20B1u    1.874442    13B2u    2.043710    13B3u    2.044142  
      21Ag     2.129615    13B3g    2.282524    13B2g    2.285484  
      21B1u    2.775615    22Ag    20.104621    22B1u   20.370427  
      23Ag    72.317299    23B1u   72.410032  

    Final Occupation by Irrep:
             Ag   B1g   B2g   B3g    Au   B1u   B2u   B3u 
    DOCC [     4,    0,    1,    1,    0,    2,    2,    1 ]
    SOCC [     1,    0,    0,    0,    0,    0,    0,    1 ]

  @DF-UKS Final Energy:   -93.63460894622546

   => Energetics <=

    Nuclear Repulsion Energy =             34.0185349716428433
    One-Electron Energy =                -225.0849304230973758
    Two-Electron Energy =                 102.7129947865529687
    DFT Exchange-Correlation Energy =      -5.2764033313239089
    Empirical Dispersion Energy =          -0.0048049500000000
    VV10 Nonlocal Energy =                  0.0000000000000000
    Total Energy =                        -93.6346089462254554

  UHF NO Occupations:
  HONO-2 :    4 Ag 1.9954389
  HONO-1 :    2B3u 1.0000000
  HONO-0 :    5 Ag 1.0000000
  LUNO+0 :    6 Ag 0.0045611
  LUNO+1 :    3B2u 0.0007353
  LUNO+2 :    7 Ag 0.0002564
  LUNO+3 :    2B2g 0.0001269


Computation Completed


Properties will be evaluated at   0.000000,   0.000000,   0.000000 [a0]

Properties computed using the SCF density matrix

  Nuclear Dipole Moment: [e a0]
     X:     0.0000      Y:     0.0000      Z:     0.0000

  Electronic Dipole Moment: [e a0]
     X:     0.0000      Y:     0.0000      Z:     0.0000

  Dipole Moment: [e a0]
     X:     0.0000      Y:     0.0000      Z:     0.0000     Total:     0.0000

  Dipole Moment: [D]
     X:     0.0000      Y:     0.0000      Z:     0.0000     Total:     0.0000


*** tstop() called on compute399.bc4.acrc.priv at Sun Nov  7 05:08:33 2021
Module time:
	user time   =     225.83 seconds =       3.76 minutes
	system time =       8.88 seconds =       0.15 minutes
	total time  =         13 seconds =       0.22 minutes
Total time:
	user time   =     225.83 seconds =       3.76 minutes
	system time =       8.88 seconds =       0.15 minutes
	total time  =         13 seconds =       0.22 minutes

    Psi4 stopped on: Sunday, 07 November 2021 05:08AM
    Psi4 wall time for execution: 0:00:13.40

*** Psi4 exiting successfully. Buy a developer a beer!
