
                                 *****************
                                 * O   R   C   A *
                                 *****************

           --- An Ab Initio, DFT and Semiempirical electronic structure package ---

                  #######################################################
                  #                        -***-                        #
                  #          Department of theory and spectroscopy      #
                  #               Directorship: Frank Neese             #
                  #        Max Planck Institute fuer Kohlenforschung    #
                  #                Kaiser Wilhelm Platz 1               #
                  #                 D-45470 Muelheim/Ruhr               #
                  #                      Germany                        #
                  #                                                     #
                  #                  All rights reserved                #
                  #                        -***-                        #
                  #######################################################


                         Program Version 4.2.0 -  RELEASE  -


 With contributions from (in alphabetic order):
   Daniel Aravena         : Magnetic Suceptibility
   Michael Atanasov       : Ab Initio Ligand Field Theory (pilot matlab implementation)
   Alexander A. Auer      : GIAO ZORA, VPT2
   Ute Becker             : Parallelization
   Giovanni Bistoni       : ED, misc. LED, open-shell LED, HFLED
   Martin Brehm           : Molecular dynamics
   Dmytro Bykov           : SCF Hessian
   Vijay G. Chilkuri      : MRCI spin determinant printing, contributions to CSF-ICE
   Dipayan Datta          : RHF DLPNO-CCSD density
   Achintya Kumar Dutta   : EOM-CC, STEOM-CC
   Dmitry Ganyushin       : Spin-Orbit,Spin-Spin,Magnetic field MRCI
   Miquel Garcia          : C-PCM Hessian, Gaussian charge scheme
   Yang Guo               : DLPNO-NEVPT2, CIM, IAO-localization
   Andreas Hansen         : Spin unrestricted coupled pair/coupled cluster methods
   Benjamin Helmich-Paris : CASSCF linear response (MC-RPA)
   Lee Huntington         : MR-EOM, pCC
   Robert Izsak           : Overlap fitted RIJCOSX, COSX-SCS-MP3, EOM
   Christian Kollmar      : KDIIS, OOCD, Brueckner-CCSD(T), CCSD density
   Simone Kossmann        : Meta GGA functionals, TD-DFT gradient, OOMP2, MP2 Hessian
   Martin Krupicka        : AUTO-CI
   Lucas Lang             : DCDCAS
   Dagmar Lenk            : GEPOL surface, SMD
   Dimitrios Liakos       : Extrapolation schemes; Compound Job, initial MDCI parallelization
   Dimitrios Manganas     : Further ROCIS development; embedding schemes
   Dimitrios Pantazis     : SARC Basis sets
   Taras Petrenko         : DFT Hessian,TD-DFT gradient, ASA, ECA, R-Raman, ABS, FL, XAS/XES, NRVS
   Peter Pinski           : DLPNO-MP2, DLPNO-MP2 Gradient
   Christoph Reimann      : Effective Core Potentials
   Marius Retegan         : Local ZFS, SOC
   Christoph Riplinger    : Optimizer, TS searches, QM/MM, DLPNO-CCSD(T), (RO)-DLPNO pert. Triples
   Tobias Risthaus        : Range-separated hybrids, TD-DFT gradient, RPA, STAB
   Michael Roemelt        : Original ROCIS implementation
   Masaaki Saitow         : Open-shell DLPNO-CCSD energy and density
   Barbara Sandhoefer     : DKH picture change effects
   Avijit Sen             : IP-ROCIS
   Kantharuban Sivalingam : CASSCF convergence, NEVPT2, FIC-MRCI
   Bernardo de Souza      : ESD, SOC TD-DFT
   Georgi Stoychev        : AutoAux, RI-MP2 NMR
   Willem Van den Heuvel  : Paramagnetic NMR
   Boris Wezisla          : Elementary symmetry handling
   Frank Wennmohs         : Technical directorship


 We gratefully acknowledge several colleagues who have allowed us to
 interface, adapt or use parts of their codes:
   Stefan Grimme, W. Hujo, H. Kruse,             : VdW corrections, initial TS optimization,
                  C. Bannwarth                     DFT functionals, gCP, sTDA/sTD-DF
   Ed Valeev, F. Pavosevic, A. Kumar             : LibInt (2-el integral package), F12 methods
   Garnet Chan, S. Sharma, J. Yang, R. Olivares  : DMRG
   Ulf Ekstrom                                   : XCFun DFT Library
   Mihaly Kallay                                 : mrcc  (arbitrary order and MRCC methods)
   Andreas Klamt, Michael Diedenhofen            : otool_cosmo (COSMO solvation model)
   Jiri Pittner, Ondrej Demel                    : Mk-CCSD
   Frank Weinhold                                : gennbo (NPA and NBO analysis)
   Christopher J. Cramer and Donald G. Truhlar   : smd solvation model
   Lars Goerigk                                  : TD-DFT with DH, B97 family of functionals
   V. Asgeirsson, H. Jonsson                     : NEB implementation
   FAccTs GmbH                                   : IRC, NEB, NEB-TS, Multilevel, MM, QM/MM, CI optimization
   S Lehtola, MJT Oliveira, MAL Marques          : LibXC Library


 Your calculation uses the libint2 library for the computation of 2-el integrals
 For citations please refer to: http://libint.valeyev.net

 Your ORCA version has been built with support for libXC version: 4.2.3
 For citations please refer to: https://tddft.org/programs/libxc/

 This ORCA versions uses:
   CBLAS   interface :  Fast vector & matrix operations
   LAPACKE interface :  Fast linear algebra routines
   SCALAPACK package :  Parallel linear algebra routines


Your calculation utilizes the DFT-NL dispersion correction.
Cite in your paper:
Vydrov, O. A.; Van Voorhis, T. J. Chem. Phys. 2010, 133, 244103
Hujo, W.; Grimme, S. J. Chem. Theory Comput. 2011, 7, 3866 
   

----- Orbital basis set information -----
Your calculation utilizes the basis: def2-TZVPPD
   F. Weigend and R. Ahlrichs, Phys. Chem. Chem. Phys. 7, 3297 (2005).
   D. Rappoport and F. Furche, J. Chem. Phys. 133 134105 (2010).

----- AuxJK basis set information -----
Your calculation utilizes the auxiliary basis: def2/JK
   H-Ba, Hf-Rn: F. Weigend, J. Comput. Chem. 29, 167 (2008).

================================================================================
                                        WARNINGS
                       Please study these warnings very carefully!
================================================================================

INFO   : Found keyword 'NumGrad' for Energy calculation
  ===> : Setting RunTyp to EnGrad

WARNING: Numerical Gradient with sloppy Convergence Criteria    
         Your results may be not reliable!                      
         Please choose at least TightSCF!                       

WARNING: your system is open-shell and RHF/RKS was chosen
  ===> : WILL SWITCH to UHF/UKS


INFO   : the flag for use of LIBINT has been found!

================================================================================
                                       INPUT FILE
================================================================================
NAME = b.in
|  1> #
|  2> # b wB97M-V/Def2-TZVPPD
|  3> #
|  4> ! wb97m-v def2-tzvppd def2/jk grid4 nofinalgrid numgrad
|  5> 
|  6> *xyz 0 2
|  7> B          0.00000        0.00000        0.00000
|  8> *
|  9> 
| 10> %maxcore 5000
| 11> 
| 12> %pal
| 13> nprocs = 28
| 14> end
| 15> 
| 16> 
| 17>                          ****END OF INPUT****
================================================================================

                     *******************************
                     * Energy+Gradient Calculation *
                     *******************************

---------------------------------
CARTESIAN COORDINATES (ANGSTROEM)
---------------------------------
  B      0.000000    0.000000    0.000000

----------------------------
CARTESIAN COORDINATES (A.U.)
----------------------------
  NO LB      ZA    FRAG     MASS         X           Y           Z
   0 B     5.0000    0    10.810    0.000000    0.000000    0.000000

--------------------------------
INTERNAL COORDINATES (ANGSTROEM)
--------------------------------
 B      0   0   0     0.000000000000     0.00000000     0.00000000

---------------------------
INTERNAL COORDINATES (A.U.)
---------------------------
 B      0   0   0     0.000000000000     0.00000000     0.00000000

---------------------
BASIS SET INFORMATION
---------------------
There are 1 groups of distinct atoms

 Group   1 Type B   : 12s6p3d1f contracted to 6s3p3d1f pattern {621111/411/111/1}

Atom   0B    basis set group =>   1
----------------------------------
AUXILIARY/JK BASIS SET INFORMATION
----------------------------------
There are 1 groups of distinct atoms

 Group   1 Type B   : 14s10p6d2f1g contracted to 10s8p5d1f1g pattern {5111111111/31111111/21111/2/1}

Atom   0B    basis set group =>   1


           ************************************************************
           *        Program running with 28 parallel MPI-processes    *
           *              working on a common directory               *
           ************************************************************
------------------------------------------------------------------------------
                           ORCA GTO INTEGRAL CALCULATION
------------------------------------------------------------------------------

                         BASIS SET STATISTICS AND STARTUP INFO

 # of primitive gaussian shells          ...   22
 # of primitive gaussian functions       ...   52
 # of contracted shells                  ...   13
 # of contracted basis functions         ...   37
 Highest angular momentum                ...    3
 Maximum contraction depth               ...    6
 Integral package used                   ... LIBINT
 Integral threshhold            Thresh   ...  1.000e-10
 Primitive cut-off              TCut     ...  1.000e-11


------------------------------ INTEGRAL EVALUATION ----------------------------


 * One electron integrals 
 Pre-screening matrix                    ... done
 Shell pair data                         ... done (   0.000 sec)



           ************************************************************
           *        Program running with 28 parallel MPI-processes    *
           *              working on a common directory               *
           ************************************************************
-------------------------------------------------------------------------------
                                 ORCA SCF
-------------------------------------------------------------------------------

------------
SCF SETTINGS
------------
Hamiltonian:
 Density Functional     Method          .... DFT(GTOs)
 Exchange Functional    Exchange        .... WB97M-V
 Correlation Functional Correlation     .... WB97M-V
 Gradients option       PostSCFGGA      .... off
 Hybrid DFT is turned on
   Fraction HF Exchange ScalHFX         ....  0.150000
   Scaling of DF-GGA-X  ScalDFX         ....  0.000000
   Scaling of DF-GGA-C  ScalDFC         ....  1.000000
   Scaling of DF-LDA-C  ScalLDAC        ....  1.000000
   Perturbative correction              ....  0.000000
   Density functional embedding theory  .... OFF
 Long-range corrected/Screened/Range-Separated Hybrid DFT is turned on
   Amount of maximum screened exact exchange              ....  0.850000
   Range separation parameter mu (erf(mu*r12)/r12)        ....  0.300000
   NL short-range parameter             ....  6.000000
   NL long-range parameter              ....  0.010000


General Settings:
 Integral files         IntName         .... b.in
 Hartree-Fock type      HFTyp           .... UHF
 Total Charge           Charge          ....    0
 Multiplicity           Mult            ....    2
 Number of Electrons    NEL             ....    5
 Basis Dimension        Dim             ....   37
 Nuclear Repulsion      ENuc            ....      0.0000000000 Eh

Convergence Acceleration:
 DIIS                   CNVDIIS         .... on
   Start iteration      DIISMaxIt       ....    12
   Startup error        DIISStart       ....  0.200000
   # of expansion vecs  DIISMaxEq       ....     5
   Bias factor          DIISBfac        ....   1.050
   Max. coefficient     DIISMaxC        ....  10.000
 Newton-Raphson         CNVNR           .... off
 SOSCF                  CNVSOSCF        .... off
 Level Shifting         CNVShift        .... on
   Level shift para.    LevelShift      ....    0.2500
   Turn off err/grad.   ShiftErr        ....    0.0010
 Zerner damping         CNVZerner       .... off
 Static damping         CNVDamp         .... on
   Fraction old density DampFac         ....    0.7000
   Max. Damping (<1)    DampMax         ....    0.9800
   Min. Damping (>=0)   DampMin         ....    0.0000
   Turn off err/grad.   DampErr         ....    0.1000
 Fernandez-Rico         CNVRico         .... off

SCF Procedure:
 Maximum # iterations   MaxIter         ....   125
 SCF integral mode      SCFMode         .... Direct
   Integral package                     .... LIBINT
 Reset frequency        DirectResetFreq ....    20
 Integral Threshold     Thresh          ....  1.000e-10 Eh
 Primitive CutOff       TCut            ....  1.000e-11 Eh

Convergence Tolerance:
 Convergence Check Mode ConvCheckMode   .... Total+1el-Energy
 Convergence forced     ConvForced      .... 0
 Energy Change          TolE            ....  1.000e-06 Eh
 1-El. energy change                    ....  1.000e-03 Eh
 DIIS Error             TolErr          ....  1.000e-06


Diagonalization of the overlap matrix:
Smallest eigenvalue                        ... 7.967e-03
Time for diagonalization                   ...    0.001 sec
Threshold for overlap eigenvalues          ... 1.000e-08
Number of eigenvalues below threshold      ... 0
Time for construction of square roots      ...    0.026 sec
Total time needed                          ...    0.027 sec

-------------------
DFT GRID GENERATION
-------------------

General Integration Accuracy     IntAcc      ...  4.670
Radial Grid Type                 RadialGrid  ... Gauss-Chebyshev
Angular Grid (max. acc.)         AngularGrid ... Lebedev-302
Angular grid pruning method      GridPruning ... 3 (G Style)
Weight generation scheme         WeightScheme... Becke
Basis function cutoff            BFCut       ...    1.0000e-10
Integration weight cutoff        WCut        ...    1.0000e-14
Grids for H and He will be reduced by one unit

# of grid points (after initial pruning)     ...   6128 (   0.0 sec)
# of grid points (after weights+screening)   ...   6128 (   0.0 sec)
Grid point division into batches done        ...    0.0 sec
Reduced shell lists constructed in    0.0 sec

Total number of grid points                  ...     6128
Total number of batches                      ...       96
Average number of points per batch           ...       63
Average number of grid points per atom       ...     6128
Average number of shells per batch           ...     3.20 (24.62%)
Average number of basis functions per batch  ...     8.00 (21.62%)
Average number of large shells per batch     ...     3.20 (100.00%)
Average number of large basis fcns per batch ...     8.00 (100.00%)
Maximum spatial batch extension              ...  21.99, 21.99, 21.99 au
Average spatial batch extension              ...   0.77,  0.77,  0.92 au

Time for grid setup =    0.079 sec

------------------------------
INITIAL GUESS: MODEL POTENTIAL
------------------------------
Loading Hartree-Fock densities                     ... done
Calculating cut-offs                               ... done
Setting up the integral package                    ... done
Initializing the effective Hamiltonian             ... done
Starting the Coulomb interaction                   ... done (   0.0 sec)
Reading the grid                                   ... done
Mapping shells                                     ... done
Starting the XC term evaluation                    ... done (   0.0 sec)
  promolecular density results
     # of electrons  =      4.999999611
     EX              =     -3.655912330
     EC              =     -0.116011671
     EX+EC           =     -3.771924001
Transforming the Hamiltonian                       ... done (   0.0 sec)
Diagonalizing the Hamiltonian                      ... done (   0.0 sec)
Back transforming the eigenvectors                 ... done (   0.0 sec)
Now organizing SCF variables                       ... done
                      ------------------
                      INITIAL GUESS DONE (   0.2 sec)
                      ------------------
--------------
SCF ITERATIONS
--------------
ITER       Energy         Delta-E        Max-DP      RMS-DP      [F,P]     Damp
               ***  Starting incremental Fock matrix formation  ***
  0    -24.6670446252   0.000000000000 0.02264767  0.00067038  0.0327478 0.7000
  1    -24.6675587519  -0.000514126690 0.01974792  0.00057755  0.0230813 0.7000
                               ***Turning on DIIS***
  2    -24.6680036692  -0.000444917224 0.04818373  0.00141411  0.0161405 0.0000
  3    -24.6691837884  -0.001180119228 0.00416193  0.00013453  0.0023700 0.0000
  4    -24.6692811178  -0.000097329455 0.00229531  0.00007705  0.0014233 0.0000
  5    -24.6693366941  -0.000055576307 0.00160821  0.00005822  0.0006955 0.0000
  6    -24.6693866295  -0.000049935331 0.00028676  0.00001088  0.0000819 0.0000
  7    -24.6693922278  -0.000005598354 0.00003997  0.00000170  0.0000117 0.0000
                 **** Energy Check signals convergence ****

               *****************************************************
               *                     SUCCESS                       *
               *           SCF CONVERGED AFTER   8 CYCLES          *
               *****************************************************


Setting up the DFT-NL grid :

General Integration Accuracy     IntAcc      ...  4.340
Radial Grid Type                 RadialGrid  ... Gauss-Chebyshev
Angular Grid (max. acc.)         AngularGrid ... Lebedev-110
Angular grid pruning method      GridPruning ... 3 (G Style)
Weight generation scheme         WeightScheme... Becke
Basis function cutoff            BFCut       ...    1.0000e-10
Integration weight cutoff        WCut        ...    1.0000e-14
Grids for H and He will be reduced by one unit

# of grid points (after initial pruning)     ...   1678 (   0.0 sec)
# of grid points (after weights+screening)   ...   1678 (   0.0 sec)
Grid point division into batches done        ...    0.0 sec
Reduced shell lists constructed in    0.0 sec

Total number of grid points                  ...     1678
Total number of batches                      ...       27
Average number of points per batch           ...       62
Average number of grid points per atom       ...     1678
Average number of shells per batch           ...     5.50 (42.31%)
Average number of basis functions per batch  ...    17.50 (47.30%)
Average number of large shells per batch     ...     3.50 (63.64%)
Average number of large basis fcns per batch ...     9.50 (54.29%)
Maximum spatial batch extension              ...  20.06, 37.06, 37.06 au
Average spatial batch extension              ...   0.74,  1.37,  1.37 au

Final grid set up in    0.4 sec

-------------------------------------------------------------------------------
                         DFT-NL dispersion correction                          
-------------------------------------------------------------------------------

SC Energy -24.669392358 
NL    Energy 0.021838304 
SC+NL Energy -24.647554054 
NL done in    0.5 sec
-------------------------------------------------------------------------------

----------------
TOTAL SCF ENERGY
----------------

Total Energy       :          -24.64755405 Eh            -670.69404 eV

Components:
Nuclear Repulsion  :            0.00000000 Eh               0.00000 eV
Electronic Energy  :          -24.64755405 Eh            -670.69404 eV
One Electron Energy:          -32.38440903 Eh            -881.22457 eV
Two Electron Energy:            7.73685498 Eh             210.53053 eV

Virial components:
Potential Energy   :          -49.25568943 Eh           -1340.31545 eV
Kinetic Energy     :           24.60813537 Eh             669.62141 eV
Virial Ratio       :            2.00160186


DFT components:
N(Alpha)           :        3.000000198468 electrons
N(Beta)            :        2.000000216877 electrons
N(Total)           :        5.000000415345 electrons
E(X)               :       -2.587748862460 Eh       
E(C)               :       -0.110874698851 Eh       
NL Energy, E(C,NL) :        0.021838304399 Eh       
E(XC)              :       -2.676785256912 Eh       
DFET-embed. en.    :        0.000000000000 Eh       

---------------
SCF CONVERGENCE
---------------

  Last Energy change         ...   -1.3067e-07  Tolerance :   1.0000e-06
  Last MAX-Density change    ...    1.0105e-05  Tolerance :   1.0000e-05
  Last RMS-Density change    ...    3.5541e-07  Tolerance :   1.0000e-06
  Last DIIS Error            ...    2.0124e-06  Tolerance :   1.0000e-06

             **** THE GBW FILE WAS UPDATED (b.in.gbw) ****
             **** DENSITY FILE WAS UPDATED (b.in.scfp) ****
             **** ENERGY FILE WAS UPDATED (b.in.en.tmp) ****
----------------------
UHF SPIN CONTAMINATION
----------------------

Warning: in a DFT calculation there is little theoretical justification to 
         calculate <S**2> as in Hartree-Fock theory. We will do it anyways
         but you should keep in mind that the values have only limited relevance

Expectation value of <S**2>     :     0.751923
Ideal value S*(S+1) for S=0.5   :     0.750000
Deviation                       :     0.001923

             **** THE GBW FILE WAS UPDATED (b.in.gbw) ****
             **** DENSITY FILE WAS UPDATED (b.in.scfp) ****
----------------
ORBITAL ENERGIES
----------------
                 SPIN UP ORBITALS
  NO   OCC          E(Eh)            E(eV) 
   0   1.0000      -7.015716      -190.9073 
   1   1.0000      -0.497430       -13.5358 
   2   1.0000      -0.269306        -7.3282 
   3   0.0000      -0.019425        -0.5286 
   4   0.0000      -0.019425        -0.5286 
   5   0.0000       0.032856         0.8941 
   6   0.0000       0.153119         4.1666 
   7   0.0000       0.153119         4.1666 
   8   0.0000       0.159265         4.3338 
   9   0.0000       0.161351         4.3906 
  10   0.0000       0.161351         4.3906 
  11   0.0000       0.194770         5.3000 
  12   0.0000       0.194770         5.3000 
  13   0.0000       0.194911         5.3038 
  14   0.0000       0.251378         6.8403 
  15   0.0000       0.574495        15.6328 
  16   0.0000       0.574495        15.6328 
  17   0.0000       0.578632        15.7454 
  18   0.0000       0.579837        15.7782 
  19   0.0000       0.579837        15.7782 
  20   0.0000       0.906312        24.6620 
  21   0.0000       0.911814        24.8117 
  22   0.0000       0.946751        25.7624 
  23   0.0000       0.946752        25.7624 
  24   0.0000       1.715171        46.6722 
  25   0.0000       1.725555        46.9547 
  26   0.0000       1.725555        46.9547 
  27   0.0000       1.729488        47.0618 
  28   0.0000       1.729488        47.0618 
  29   0.0000       1.749755        47.6133 
  30   0.0000       1.749755        47.6133 
  31   0.0000       1.862913        50.6925 
  32   0.0000       1.881162        51.1890 
  33   0.0000       1.881162        51.1890 
  34   0.0000       1.908805        51.9412 
  35   0.0000       1.908805        51.9412 
  36   0.0000      13.572979       369.3395 

                 SPIN DOWN ORBITALS
  NO   OCC          E(Eh)            E(eV) 
   0   1.0000      -7.004677      -190.6070 
   1   1.0000      -0.454464       -12.3666 
   2   0.0000      -0.014169        -0.3856 
   3   0.0000      -0.011094        -0.3019 
   4   0.0000      -0.011094        -0.3019 
   5   0.0000      -0.008656        -0.2355 
   6   0.0000       0.103332         2.8118 
   7   0.0000       0.103332         2.8118 
   8   0.0000       0.112763         3.0684 
   9   0.0000       0.135011         3.6738 
  10   0.0000       0.135011         3.6738 
  11   0.0000       0.177868         4.8400 
  12   0.0000       0.186512         5.0752 
  13   0.0000       0.186512         5.0752 
  14   0.0000       0.232656         6.3309 
  15   0.0000       0.577142        15.7048 
  16   0.0000       0.577142        15.7048 
  17   0.0000       0.586735        15.9659 
  18   0.0000       0.586735        15.9659 
  19   0.0000       0.597715        16.2647 
  20   0.0000       0.917399        24.9637 
  21   0.0000       0.934263        25.4226 
  22   0.0000       0.934263        25.4226 
  23   0.0000       0.964093        26.2343 
  24   0.0000       1.728105        47.0241 
  25   0.0000       1.728105        47.0241 
  26   0.0000       1.760627        47.9091 
  27   0.0000       1.760627        47.9091 
  28   0.0000       1.776142        48.3313 
  29   0.0000       1.776142        48.3313 
  30   0.0000       1.779375        48.4192 
  31   0.0000       1.898895        51.6716 
  32   0.0000       1.898895        51.6716 
  33   0.0000       1.920511        52.2598 
  34   0.0000       1.920511        52.2598 
  35   0.0000       1.938147        52.7397 
  36   0.0000      13.587049       369.7224 

                    ********************************
                    * MULLIKEN POPULATION ANALYSIS *
                    ********************************

--------------------------------------------
MULLIKEN ATOMIC CHARGES AND SPIN POPULATIONS
--------------------------------------------
   0 B :   -0.000000    1.000000
Sum of atomic charges         :   -0.0000000
Sum of atomic spin populations:    1.0000000

-----------------------------------------------------
MULLIKEN REDUCED ORBITAL CHARGES AND SPIN POPULATIONS
-----------------------------------------------------
CHARGE
  0 B s       :     3.999578  s :     3.999578
      pz      :     0.998243  p :     1.000000
      px      :     0.001394
      py      :     0.000362
      dz2     :     0.000420  d :     0.000422
      dxz     :     0.000002
      dyz     :     0.000000
      dx2y2   :     0.000000
      dxy     :     0.000000
      f0      :     0.000000  f :     0.000000
      f+1     :     0.000000
      f-1     :     0.000000
      f+2     :     0.000000
      f-2     :     0.000000
      f+3     :     0.000000
      f-3     :     0.000000

SPIN
  0 B s       :     0.000302  s :     0.000302
      pz      :     0.998243  p :     1.000000
      px      :     0.001394
      py      :     0.000362
      dz2     :    -0.000301  d :    -0.000302
      dxz     :    -0.000001
      dyz     :    -0.000000
      dx2y2   :    -0.000000
      dxy     :    -0.000000
      f0      :     0.000000  f :     0.000000
      f+1     :     0.000000
      f-1     :     0.000000
      f+2     :     0.000000
      f-2     :     0.000000
      f+3     :     0.000000
      f-3     :     0.000000


                     *******************************
                     * LOEWDIN POPULATION ANALYSIS *
                     *******************************

-------------------------------------------
LOEWDIN ATOMIC CHARGES AND SPIN POPULATIONS
-------------------------------------------
   0 B :   -0.000000    1.000000

----------------------------------------------------
LOEWDIN REDUCED ORBITAL CHARGES AND SPIN POPULATIONS
----------------------------------------------------
CHARGE
  0 B s       :     3.999578  s :     3.999578
      pz      :     0.998243  p :     1.000000
      px      :     0.001394
      py      :     0.000362
      dz2     :     0.000420  d :     0.000422
      dxz     :     0.000002
      dyz     :     0.000000
      dx2y2   :     0.000000
      dxy     :     0.000000
      f0      :     0.000000  f :     0.000000
      f+1     :     0.000000
      f-1     :     0.000000
      f+2     :     0.000000
      f-2     :     0.000000
      f+3     :     0.000000
      f-3     :     0.000000

SPIN
  0 B s       :     0.000302  s :     0.000302
      pz      :     0.998243  p :     1.000000
      px      :     0.001394
      py      :     0.000362
      dz2     :    -0.000301  d :    -0.000302
      dxz     :    -0.000001
      dyz     :    -0.000000
      dx2y2   :    -0.000000
      dxy     :    -0.000000
      f0      :     0.000000  f :     0.000000
      f+1     :     0.000000
      f-1     :     0.000000
      f+2     :     0.000000
      f-2     :     0.000000
      f+3     :     0.000000
      f-3     :     0.000000


                      *****************************
                      * MAYER POPULATION ANALYSIS *
                      *****************************

  NA   - Mulliken gross atomic population
  ZA   - Total nuclear charge
  QA   - Mulliken gross atomic charge
  VA   - Mayer's total valence
  BVA  - Mayer's bonded valence
  FA   - Mayer's free valence

  ATOM       NA         ZA         QA         VA         BVA        FA
  0 B      5.0000     5.0000    -0.0000     1.0038     0.0000     1.0038

  Mayer bond orders larger than 0.100000


-------
TIMINGS
-------

Total SCF time: 0 days 0 hours 0 min 11 sec 

Total time                  ....      11.887 sec
Sum of individual times     ....      10.729 sec  ( 90.3%)

Fock matrix formation       ....       9.634 sec  ( 81.1%)
  XC integration            ....       8.087 sec  ( 83.9% of F)
    Basis function eval.    ....       0.002 sec  (  0.0% of XC)
    Density eval.           ....       0.008 sec  (  0.1% of XC)
    XC-Functional eval.     ....       0.011 sec  (  0.1% of XC)
    XC-Potential eval.      ....       0.006 sec  (  0.1% of XC)
Diagonalization             ....       0.226 sec  (  1.9%)
Density matrix formation    ....       0.002 sec  (  0.0%)
Population analysis         ....       0.185 sec  (  1.6%)
Initial guess               ....       0.146 sec  (  1.2%)
Orbital Transformation      ....       0.000 sec  (  0.0%)
Orbital Orthonormalization  ....       0.000 sec  (  0.0%)
DIIS solution               ....       0.046 sec  (  0.4%)
Grid generation             ....       0.489 sec  (  4.1%)

-------------------------   --------------------
FINAL SINGLE POINT ENERGY       -24.647554054101
-------------------------   --------------------


----------------------------------------------------------------------------
                           ORCA NUMERICAL GRADIENT
                              (28-process run)
----------------------------------------------------------------------------

I state                        ... 1
J state                        ... 0
Number of atoms                ... 1
Derivative's order of accuracy ... 2
Central differences            ... used
Number of displacements        ... 6
Numerical increment            ... 5.000e-03 bohr
Translation invariance         ... used

The output will be reduced. Please look at the following files:
SCF program output             ... >b.in.lastscf
Integral program output        ... >b.in.lastint
Gradient program output        ... >b.in.lastgrad


     Note:   There are more processes than displacements to do
     ===>:   Reducing number of processes to   0


------------------------------
CARTESIAN GRADIENT (NUMERICAL)
-------------------------------
   1   B   :    0.000000000    0.000000000    0.000000000

Norm of the cartesian gradient     ...    0.000000000
RMS gradient                       ...    0.000000000
MAX gradient                       ...    0.000000000
*** glibc detected *** /mnt/storage/software/apps/orca-4.2.0/orca_4_2_0_linux_x86-64_openmpi314/orca: free(): invalid next size (fast): 0x000000000cf88900 ***
======= Backtrace: =========
[0xb0928aa]
[0xb09567c]
[0x76d903]
[0x76fb95]
[0x915b4f]
[0x918f24]
[0x487649]
[0xb05c99e]
[0x4870d9]
======= Memory map: ========
00400000-0bf42000 r-xp 00000000 00:2b 4876154                            /mnt/storage/software/apps/orca-4.2.0/orca_4_2_0_linux_x86-64_openmpi314/orca
0c141000-0c203000 rw-p 0bb41000 00:2b 4876154                            /mnt/storage/software/apps/orca-4.2.0/orca_4_2_0_linux_x86-64_openmpi314/orca
0c203000-0c77a000 rw-p 00000000 00:00 0 
0cd45000-0cfad000 rw-p 00000000 00:00 0                                  [heap]
2ae626323000-2ae626b24000 rw-p 00000000 00:00 0 
2ae627323000-2ae6299e6000 rw-p 00000000 00:00 0 
2ae62c000000-2ae62c0b3000 rw-p 00000000 00:00 0 
2ae62c0b3000-2ae630000000 ---p 00000000 00:00 0 
7ffe8a9e5000-7ffe8aae6000 rw-p 00000000 00:00 0                          [stack]
7ffe8ab75000-7ffe8ab77000 r-xp 00000000 00:00 0                          [vdso]
ffffffffff600000-ffffffffff601000 r-xp 00000000 00:00 0                  [vsyscall]
