
                                 *****************
                                 * O   R   C   A *
                                 *****************

           --- An Ab Initio, DFT and Semiempirical electronic structure package ---

                  #######################################################
                  #                        -***-                        #
                  #          Department of theory and spectroscopy      #
                  #               Directorship: Frank Neese             #
                  #        Max Planck Institute fuer Kohlenforschung    #
                  #                Kaiser Wilhelm Platz 1               #
                  #                 D-45470 Muelheim/Ruhr               #
                  #                      Germany                        #
                  #                                                     #
                  #                  All rights reserved                #
                  #                        -***-                        #
                  #######################################################


                         Program Version 4.2.0 -  RELEASE  -


 With contributions from (in alphabetic order):
   Daniel Aravena         : Magnetic Suceptibility
   Michael Atanasov       : Ab Initio Ligand Field Theory (pilot matlab implementation)
   Alexander A. Auer      : GIAO ZORA, VPT2
   Ute Becker             : Parallelization
   Giovanni Bistoni       : ED, misc. LED, open-shell LED, HFLED
   Martin Brehm           : Molecular dynamics
   Dmytro Bykov           : SCF Hessian
   Vijay G. Chilkuri      : MRCI spin determinant printing, contributions to CSF-ICE
   Dipayan Datta          : RHF DLPNO-CCSD density
   Achintya Kumar Dutta   : EOM-CC, STEOM-CC
   Dmitry Ganyushin       : Spin-Orbit,Spin-Spin,Magnetic field MRCI
   Miquel Garcia          : C-PCM Hessian, Gaussian charge scheme
   Yang Guo               : DLPNO-NEVPT2, CIM, IAO-localization
   Andreas Hansen         : Spin unrestricted coupled pair/coupled cluster methods
   Benjamin Helmich-Paris : CASSCF linear response (MC-RPA)
   Lee Huntington         : MR-EOM, pCC
   Robert Izsak           : Overlap fitted RIJCOSX, COSX-SCS-MP3, EOM
   Christian Kollmar      : KDIIS, OOCD, Brueckner-CCSD(T), CCSD density
   Simone Kossmann        : Meta GGA functionals, TD-DFT gradient, OOMP2, MP2 Hessian
   Martin Krupicka        : AUTO-CI
   Lucas Lang             : DCDCAS
   Dagmar Lenk            : GEPOL surface, SMD
   Dimitrios Liakos       : Extrapolation schemes; Compound Job, initial MDCI parallelization
   Dimitrios Manganas     : Further ROCIS development; embedding schemes
   Dimitrios Pantazis     : SARC Basis sets
   Taras Petrenko         : DFT Hessian,TD-DFT gradient, ASA, ECA, R-Raman, ABS, FL, XAS/XES, NRVS
   Peter Pinski           : DLPNO-MP2, DLPNO-MP2 Gradient
   Christoph Reimann      : Effective Core Potentials
   Marius Retegan         : Local ZFS, SOC
   Christoph Riplinger    : Optimizer, TS searches, QM/MM, DLPNO-CCSD(T), (RO)-DLPNO pert. Triples
   Tobias Risthaus        : Range-separated hybrids, TD-DFT gradient, RPA, STAB
   Michael Roemelt        : Original ROCIS implementation
   Masaaki Saitow         : Open-shell DLPNO-CCSD energy and density
   Barbara Sandhoefer     : DKH picture change effects
   Avijit Sen             : IP-ROCIS
   Kantharuban Sivalingam : CASSCF convergence, NEVPT2, FIC-MRCI
   Bernardo de Souza      : ESD, SOC TD-DFT
   Georgi Stoychev        : AutoAux, RI-MP2 NMR
   Willem Van den Heuvel  : Paramagnetic NMR
   Boris Wezisla          : Elementary symmetry handling
   Frank Wennmohs         : Technical directorship


 We gratefully acknowledge several colleagues who have allowed us to
 interface, adapt or use parts of their codes:
   Stefan Grimme, W. Hujo, H. Kruse,             : VdW corrections, initial TS optimization,
                  C. Bannwarth                     DFT functionals, gCP, sTDA/sTD-DF
   Ed Valeev, F. Pavosevic, A. Kumar             : LibInt (2-el integral package), F12 methods
   Garnet Chan, S. Sharma, J. Yang, R. Olivares  : DMRG
   Ulf Ekstrom                                   : XCFun DFT Library
   Mihaly Kallay                                 : mrcc  (arbitrary order and MRCC methods)
   Andreas Klamt, Michael Diedenhofen            : otool_cosmo (COSMO solvation model)
   Jiri Pittner, Ondrej Demel                    : Mk-CCSD
   Frank Weinhold                                : gennbo (NPA and NBO analysis)
   Christopher J. Cramer and Donald G. Truhlar   : smd solvation model
   Lars Goerigk                                  : TD-DFT with DH, B97 family of functionals
   V. Asgeirsson, H. Jonsson                     : NEB implementation
   FAccTs GmbH                                   : IRC, NEB, NEB-TS, Multilevel, MM, QM/MM, CI optimization
   S Lehtola, MJT Oliveira, MAL Marques          : LibXC Library


 Your calculation uses the libint2 library for the computation of 2-el integrals
 For citations please refer to: http://libint.valeyev.net

 Your ORCA version has been built with support for libXC version: 4.2.3
 For citations please refer to: https://tddft.org/programs/libxc/

 This ORCA versions uses:
   CBLAS   interface :  Fast vector & matrix operations
   LAPACKE interface :  Fast linear algebra routines
   SCALAPACK package :  Parallel linear algebra routines


Your calculation utilizes the DFT-NL dispersion correction.
Cite in your paper:
Vydrov, O. A.; Van Voorhis, T. J. Chem. Phys. 2010, 133, 244103
Hujo, W.; Grimme, S. J. Chem. Theory Comput. 2011, 7, 3866 
   

----- Orbital basis set information -----
Your calculation utilizes the basis: def2-TZVPPD
   F. Weigend and R. Ahlrichs, Phys. Chem. Chem. Phys. 7, 3297 (2005).
   D. Rappoport and F. Furche, J. Chem. Phys. 133 134105 (2010).

----- AuxJK basis set information -----
Your calculation utilizes the auxiliary basis: def2/JK
   H-Ba, Hf-Rn: F. Weigend, J. Comput. Chem. 29, 167 (2008).

================================================================================
                                        WARNINGS
                       Please study these warnings very carefully!
================================================================================

INFO   : Found keyword 'NumGrad' for Energy calculation
  ===> : Setting RunTyp to EnGrad

WARNING: Numerical Gradient with sloppy Convergence Criteria    
         Your results may be not reliable!                      
         Please choose at least TightSCF!                       

WARNING: your system is open-shell and RHF/RKS was chosen
  ===> : WILL SWITCH to UHF/UKS


INFO   : the flag for use of LIBINT has been found!

================================================================================
                                       INPUT FILE
================================================================================
NAME = b2.in
|  1> #
|  2> # b2 wB97M-V/Def2-TZVPPD
|  3> #
|  4> ! wb97m-v def2-tzvppd def2/jk grid4 nofinalgrid numgrad
|  5> 
|  6> *xyz 0 3
|  7> B          0.00000        0.00000        0.80705
|  8> B          0.00000        0.00000       -0.80705
|  9> *
| 10> 
| 11> %maxcore 5000
| 12> 
| 13> %pal
| 14> nprocs = 28
| 15> end
| 16> 
| 17> 
| 18>                          ****END OF INPUT****
================================================================================

                     *******************************
                     * Energy+Gradient Calculation *
                     *******************************

---------------------------------
CARTESIAN COORDINATES (ANGSTROEM)
---------------------------------
  B      0.000000    0.000000    0.807050
  B      0.000000    0.000000   -0.807050

----------------------------
CARTESIAN COORDINATES (A.U.)
----------------------------
  NO LB      ZA    FRAG     MASS         X           Y           Z
   0 B     5.0000    0    10.810    0.000000    0.000000    1.525103
   1 B     5.0000    0    10.810    0.000000    0.000000   -1.525103

--------------------------------
INTERNAL COORDINATES (ANGSTROEM)
--------------------------------
 B      0   0   0     0.000000000000     0.00000000     0.00000000
 B      1   0   0     1.614100000000     0.00000000     0.00000000

---------------------------
INTERNAL COORDINATES (A.U.)
---------------------------
 B      0   0   0     0.000000000000     0.00000000     0.00000000
 B      1   0   0     3.050206952762     0.00000000     0.00000000

---------------------
BASIS SET INFORMATION
---------------------
There are 1 groups of distinct atoms

 Group   1 Type B   : 12s6p3d1f contracted to 6s3p3d1f pattern {621111/411/111/1}

Atom   0B    basis set group =>   1
Atom   1B    basis set group =>   1
----------------------------------
AUXILIARY/JK BASIS SET INFORMATION
----------------------------------
There are 1 groups of distinct atoms

 Group   1 Type B   : 14s10p6d2f1g contracted to 10s8p5d1f1g pattern {5111111111/31111111/21111/2/1}

Atom   0B    basis set group =>   1
Atom   1B    basis set group =>   1


           ************************************************************
           *        Program running with 28 parallel MPI-processes    *
           *              working on a common directory               *
           ************************************************************
------------------------------------------------------------------------------
                           ORCA GTO INTEGRAL CALCULATION
------------------------------------------------------------------------------

                         BASIS SET STATISTICS AND STARTUP INFO

 # of primitive gaussian shells          ...   44
 # of primitive gaussian functions       ...  104
 # of contracted shells                  ...   26
 # of contracted basis functions         ...   74
 Highest angular momentum                ...    3
 Maximum contraction depth               ...    6
 Integral package used                   ... LIBINT
 Integral threshhold            Thresh   ...  1.000e-10
 Primitive cut-off              TCut     ...  1.000e-11


------------------------------ INTEGRAL EVALUATION ----------------------------


 * One electron integrals 
 Pre-screening matrix                    ... done
 Shell pair data                         ... done (   0.000 sec)



           ************************************************************
           *        Program running with 28 parallel MPI-processes    *
           *              working on a common directory               *
           ************************************************************
-------------------------------------------------------------------------------
                                 ORCA SCF
-------------------------------------------------------------------------------

------------
SCF SETTINGS
------------
Hamiltonian:
 Density Functional     Method          .... DFT(GTOs)
 Exchange Functional    Exchange        .... WB97M-V
 Correlation Functional Correlation     .... WB97M-V
 Gradients option       PostSCFGGA      .... off
 Hybrid DFT is turned on
   Fraction HF Exchange ScalHFX         ....  0.150000
   Scaling of DF-GGA-X  ScalDFX         ....  0.000000
   Scaling of DF-GGA-C  ScalDFC         ....  1.000000
   Scaling of DF-LDA-C  ScalLDAC        ....  1.000000
   Perturbative correction              ....  0.000000
   Density functional embedding theory  .... OFF
 Long-range corrected/Screened/Range-Separated Hybrid DFT is turned on
   Amount of maximum screened exact exchange              ....  0.850000
   Range separation parameter mu (erf(mu*r12)/r12)        ....  0.300000
   NL short-range parameter             ....  6.000000
   NL long-range parameter              ....  0.010000


General Settings:
 Integral files         IntName         .... b2
 Hartree-Fock type      HFTyp           .... UHF
 Total Charge           Charge          ....    0
 Multiplicity           Mult            ....    3
 Number of Electrons    NEL             ....   10
 Basis Dimension        Dim             ....   74
 Nuclear Repulsion      ENuc            ....      8.1961651741 Eh

Convergence Acceleration:
 DIIS                   CNVDIIS         .... on
   Start iteration      DIISMaxIt       ....    12
   Startup error        DIISStart       ....  0.200000
   # of expansion vecs  DIISMaxEq       ....     5
   Bias factor          DIISBfac        ....   1.050
   Max. coefficient     DIISMaxC        ....  10.000
 Newton-Raphson         CNVNR           .... off
 SOSCF                  CNVSOSCF        .... off
 Level Shifting         CNVShift        .... on
   Level shift para.    LevelShift      ....    0.2500
   Turn off err/grad.   ShiftErr        ....    0.0010
 Zerner damping         CNVZerner       .... off
 Static damping         CNVDamp         .... on
   Fraction old density DampFac         ....    0.7000
   Max. Damping (<1)    DampMax         ....    0.9800
   Min. Damping (>=0)   DampMin         ....    0.0000
   Turn off err/grad.   DampErr         ....    0.1000
 Fernandez-Rico         CNVRico         .... off

SCF Procedure:
 Maximum # iterations   MaxIter         ....   125
 SCF integral mode      SCFMode         .... Direct
   Integral package                     .... LIBINT
 Reset frequency        DirectResetFreq ....    20
 Integral Threshold     Thresh          ....  1.000e-10 Eh
 Primitive CutOff       TCut            ....  1.000e-11 Eh

Convergence Tolerance:
 Convergence Check Mode ConvCheckMode   .... Total+1el-Energy
 Convergence forced     ConvForced      .... 0
 Energy Change          TolE            ....  1.000e-06 Eh
 1-El. energy change                    ....  1.000e-03 Eh
 DIIS Error             TolErr          ....  1.000e-06


Diagonalization of the overlap matrix:
Smallest eigenvalue                        ... 1.449e-05
Time for diagonalization                   ...    0.002 sec
Threshold for overlap eigenvalues          ... 1.000e-08
Number of eigenvalues below threshold      ... 0
Time for construction of square roots      ...    0.010 sec
Total time needed                          ...    0.011 sec

-------------------
DFT GRID GENERATION
-------------------

General Integration Accuracy     IntAcc      ...  4.670
Radial Grid Type                 RadialGrid  ... Gauss-Chebyshev
Angular Grid (max. acc.)         AngularGrid ... Lebedev-302
Angular grid pruning method      GridPruning ... 3 (G Style)
Weight generation scheme         WeightScheme... Becke
Basis function cutoff            BFCut       ...    1.0000e-10
Integration weight cutoff        WCut        ...    1.0000e-14
Grids for H and He will be reduced by one unit

# of grid points (after initial pruning)     ...  12256 (   0.0 sec)
# of grid points (after weights+screening)   ...  12226 (   0.0 sec)
nearest neighbour list constructed           ...    0.0 sec
Grid point re-assignment to atoms done       ...    0.0 sec
Grid point division into batches done        ...    0.1 sec
Reduced shell lists constructed in    0.1 sec

Total number of grid points                  ...    12226
Total number of batches                      ...      192
Average number of points per batch           ...       63
Average number of grid points per atom       ...     6113
Average number of shells per batch           ...     6.50 (25.00%)
Average number of basis functions per batch  ...    16.25 (21.96%)
Average number of large shells per batch     ...     5.25 (80.77%)
Average number of large basis fcns per batch ...    14.25 (87.69%)
Maximum spatial batch extension              ...  28.80, 28.80, 15.72 au
Average spatial batch extension              ...   0.81,  0.73,  0.49 au

Time for grid setup =    0.085 sec

------------------------------
INITIAL GUESS: MODEL POTENTIAL
------------------------------
Loading Hartree-Fock densities                     ... done
Calculating cut-offs                               ... done
Setting up the integral package                    ... done
Initializing the effective Hamiltonian             ... done
Starting the Coulomb interaction                   ... done (   0.0 sec)
Reading the grid                                   ... done
Mapping shells                                     ... done
Starting the XC term evaluation                    ... done (   0.0 sec)
  promolecular density results
     # of electrons  =      9.999996822
     EX              =     -7.401845084
     EC              =     -0.256699779
     EX+EC           =     -7.658544863
Transforming the Hamiltonian                       ... done (   0.0 sec)
Diagonalizing the Hamiltonian                      ... done (   0.0 sec)
Back transforming the eigenvectors                 ... done (   0.0 sec)
Now organizing SCF variables                       ... done
                      ------------------
                      INITIAL GUESS DONE (   0.2 sec)
                      ------------------
--------------
SCF ITERATIONS
--------------
ITER       Energy         Delta-E        Max-DP      RMS-DP      [F,P]     Damp
               ***  Starting incremental Fock matrix formation  ***
  0    -49.4115926414   0.000000000000 0.29647037  0.00617111  0.0771111 0.7000
  1    -49.4167739664  -0.005181325011 0.33947281  0.00660530  0.0605345 0.7000
                               ***Turning on DIIS***
  2    -49.4205849412  -0.003810974813 0.84982028  0.01641501  0.0444438 0.0000
  3    -49.4291831835  -0.008598242274 0.03321702  0.00097281  0.0099801 0.0000
  4    -49.4298108379  -0.000627654392 0.01394203  0.00040327  0.0055153 0.0000
  5    -49.4300056073  -0.000194769376 0.00322057  0.00008984  0.0023067 0.0000
  6    -49.4300583104  -0.000052703130 0.00080142  0.00003400  0.0007760 0.0000
  7    -49.4300845491  -0.000026238731 0.00139019  0.00002786  0.0000350 0.0000
  8    -49.4300858720  -0.000001322855 0.00125479  0.00002377  0.0000122 0.0000
                 **** Energy Check signals convergence ****

               *****************************************************
               *                     SUCCESS                       *
               *           SCF CONVERGED AFTER   9 CYCLES          *
               *****************************************************


Setting up the DFT-NL grid :

General Integration Accuracy     IntAcc      ...  4.340
Radial Grid Type                 RadialGrid  ... Gauss-Chebyshev
Angular Grid (max. acc.)         AngularGrid ... Lebedev-110
Angular grid pruning method      GridPruning ... 3 (G Style)
Weight generation scheme         WeightScheme... Becke
Basis function cutoff            BFCut       ...    1.0000e-10
Integration weight cutoff        WCut        ...    1.0000e-14
Grids for H and He will be reduced by one unit

# of grid points (after initial pruning)     ...   3356 (   0.0 sec)
# of grid points (after weights+screening)   ...   3330 (   0.0 sec)
nearest neighbour list constructed           ...    0.0 sec
Grid point re-assignment to atoms done       ...    0.0 sec
Grid point division into batches done        ...    0.0 sec
Reduced shell lists constructed in    0.0 sec

Total number of grid points                  ...     3330
Total number of batches                      ...       54
Average number of points per batch           ...       61
Average number of grid points per atom       ...     1665
Average number of shells per batch           ...    12.00 (46.15%)
Average number of basis functions per batch  ...    36.00 (48.65%)
Average number of large shells per batch     ...     9.33 (77.78%)
Average number of large basis fcns per batch ...    25.33 (70.37%)
Maximum spatial batch extension              ...  19.75, 37.06, 19.43 au
Average spatial batch extension              ...   0.73,  1.37,  0.72 au

Final grid set up in    0.2 sec

-------------------------------------------------------------------------------
                         DFT-NL dispersion correction                          
-------------------------------------------------------------------------------

SC Energy -49.430085752 
NL    Energy 0.041955782 
SC+NL Energy -49.388129970 
NL done in    0.4 sec
-------------------------------------------------------------------------------

----------------
TOTAL SCF ENERGY
----------------

Total Energy       :          -49.38812997 Eh           -1343.91934 eV

Components:
Nuclear Repulsion  :            8.19616517 Eh             223.02899 eV
Electronic Energy  :          -57.58429514 Eh           -1566.94833 eV
One Electron Energy:          -81.07902404 Eh           -2206.27241 eV
Two Electron Energy:           23.49472890 Eh             639.32408 eV

Virial components:
Potential Energy   :          -98.71179410 Eh           -2686.08448 eV
Kinetic Energy     :           49.32366413 Eh            1342.16514 eV
Virial Ratio       :            2.00130700


DFT components:
N(Alpha)           :        5.999998321625 electrons
N(Beta)            :        3.999998343855 electrons
N(Total)           :        9.999996665481 electrons
E(X)               :       -5.227513254003 Eh       
E(C)               :       -0.261057168065 Eh       
NL Energy, E(C,NL) :        0.041955782109 Eh       
E(XC)              :       -5.446614639959 Eh       
DFET-embed. en.    :        0.000000000000 Eh       

---------------
SCF CONVERGENCE
---------------

  Last Energy change         ...    1.2000e-07  Tolerance :   1.0000e-06
  Last MAX-Density change    ...    6.4119e-04  Tolerance :   1.0000e-05
  Last RMS-Density change    ...    1.1960e-05  Tolerance :   1.0000e-06
  Last DIIS Error            ...    3.3661e-06  Tolerance :   1.0000e-06

             **** THE GBW FILE WAS UPDATED (b2.gbw) ****
             **** DENSITY FILE WAS UPDATED (b2.scfp) ****
             **** ENERGY FILE WAS UPDATED (b2.en.tmp) ****
----------------------
UHF SPIN CONTAMINATION
----------------------

Warning: in a DFT calculation there is little theoretical justification to 
         calculate <S**2> as in Hartree-Fock theory. We will do it anyways
         but you should keep in mind that the values have only limited relevance

Expectation value of <S**2>     :     2.002828
Ideal value S*(S+1) for S=1.0   :     2.000000
Deviation                       :     0.002828

             **** THE GBW FILE WAS UPDATED (b2.gbw) ****
             **** DENSITY FILE WAS UPDATED (b2.scfp) ****
----------------
ORBITAL ENERGIES
----------------
                 SPIN UP ORBITALS
  NO   OCC          E(Eh)            E(eV) 
   0   1.0000      -7.004793      -190.6101 
   1   1.0000      -7.004136      -190.5922 
   2   1.0000      -0.669332       -18.2134 
   3   1.0000      -0.384890       -10.4734 
   4   1.0000      -0.335304        -9.1241 
   5   1.0000      -0.335304        -9.1241 
   6   0.0000      -0.102312        -2.7841 
   7   0.0000       0.037753         1.0273 
   8   0.0000       0.044065         1.1991 
   9   0.0000       0.044065         1.1991 
  10   0.0000       0.046381         1.2621 
  11   0.0000       0.119723         3.2578 
  12   0.0000       0.145818         3.9679 
  13   0.0000       0.145818         3.9679 
  14   0.0000       0.150104         4.0845 
  15   0.0000       0.150104         4.0845 
  16   0.0000       0.157305         4.2805 
  17   0.0000       0.159943         4.3523 
  18   0.0000       0.159943         4.3523 
  19   0.0000       0.212039         5.7699 
  20   0.0000       0.212039         5.7699 
  21   0.0000       0.234169         6.3721 
  22   0.0000       0.234169         6.3721 
  23   0.0000       0.251309         6.8385 
  24   0.0000       0.256736         6.9861 
  25   0.0000       0.337622         9.1872 
  26   0.0000       0.366274         9.9668 
  27   0.0000       0.373819        10.1721 
  28   0.0000       0.373819        10.1721 
  29   0.0000       0.503091        13.6898 
  30   0.0000       0.503091        13.6898 
  31   0.0000       0.524000        14.2588 
  32   0.0000       0.582168        15.8416 
  33   0.0000       0.582168        15.8416 
  34   0.0000       0.670536        18.2462 
  35   0.0000       0.670537        18.2462 
  36   0.0000       0.672236        18.2925 
  37   0.0000       0.753374        20.5003 
  38   0.0000       0.753374        20.5003 
  39   0.0000       0.849603        23.1189 
  40   0.0000       0.924729        25.1631 
  41   0.0000       0.924729        25.1631 
  42   0.0000       0.933414        25.3995 
  43   0.0000       1.026165        27.9234 
  44   0.0000       1.154814        31.4241 
  45   0.0000       1.154814        31.4241 
  46   0.0000       1.223167        33.2841 
  47   0.0000       1.322191        35.9786 
  48   0.0000       1.576052        42.8865 
  49   0.0000       1.576058        42.8867 
  50   0.0000       1.617111        44.0038 
  51   0.0000       1.617111        44.0038 
  52   0.0000       1.617234        44.0072 
  53   0.0000       1.617234        44.0072 
  54   0.0000       1.773560        48.2610 
  55   0.0000       1.833151        49.8826 
  56   0.0000       1.833151        49.8826 
  57   0.0000       1.876350        51.0581 
  58   0.0000       1.876356        51.0582 
  59   0.0000       1.932042        52.5735 
  60   0.0000       1.932045        52.5736 
  61   0.0000       1.932076        52.5745 
  62   0.0000       1.932076        52.5745 
  63   0.0000       2.171702        59.0950 
  64   0.0000       2.171702        59.0950 
  65   0.0000       2.204380        59.9842 
  66   0.0000       2.204385        59.9844 
  67   0.0000       2.205859        60.0245 
  68   0.0000       2.738987        74.5316 
  69   0.0000       2.781935        75.7003 
  70   0.0000       2.781935        75.7003 
  71   0.0000       2.822585        76.8064 
  72   0.0000      13.695736       372.6799 
  73   0.0000      14.145192       384.9102 

                 SPIN DOWN ORBITALS
  NO   OCC          E(Eh)            E(eV) 
   0   1.0000      -6.994551      -190.3314 
   1   1.0000      -6.994019      -190.3169 
   2   1.0000      -0.610009       -16.5992 
   3   1.0000      -0.353128        -9.6091 
   4   0.0000      -0.080752        -2.1974 
   5   0.0000      -0.069543        -1.8924 
   6   0.0000      -0.069543        -1.8924 
   7   0.0000      -0.007907        -0.2152 
   8   0.0000       0.039767         1.0821 
   9   0.0000       0.066316         1.8046 
  10   0.0000       0.066316         1.8046 
  11   0.0000       0.075754         2.0614 
  12   0.0000       0.075806         2.0628 
  13   0.0000       0.099810         2.7160 
  14   0.0000       0.138945         3.7809 
  15   0.0000       0.138945         3.7809 
  16   0.0000       0.142797         3.8857 
  17   0.0000       0.174693         4.7536 
  18   0.0000       0.174693         4.7536 
  19   0.0000       0.178165         4.8481 
  20   0.0000       0.178177         4.8484 
  21   0.0000       0.178304         4.8519 
  22   0.0000       0.178304         4.8519 
  23   0.0000       0.238210         6.4820 
  24   0.0000       0.255238         6.9454 
  25   0.0000       0.313390         8.5278 
  26   0.0000       0.352751         9.5988 
  27   0.0000       0.354166         9.6374 
  28   0.0000       0.354166         9.6374 
  29   0.0000       0.527493        14.3538 
  30   0.0000       0.527508        14.3542 
  31   0.0000       0.553163        15.0523 
  32   0.0000       0.605422        16.4744 
  33   0.0000       0.605422        16.4744 
  34   0.0000       0.665765        18.1164 
  35   0.0000       0.684426        18.6242 
  36   0.0000       0.684430        18.6243 
  37   0.0000       0.757526        20.6133 
  38   0.0000       0.757526        20.6133 
  39   0.0000       0.855252        23.2726 
  40   0.0000       0.938376        25.5345 
  41   0.0000       0.964983        26.2585 
  42   0.0000       0.964983        26.2585 
  43   0.0000       1.062837        28.9213 
  44   0.0000       1.192412        32.4472 
  45   0.0000       1.192412        32.4472 
  46   0.0000       1.285905        34.9912 
  47   0.0000       1.333259        36.2798 
  48   0.0000       1.652064        44.9549 
  49   0.0000       1.652088        44.9556 
  50   0.0000       1.696551        46.1655 
  51   0.0000       1.696551        46.1655 
  52   0.0000       1.720191        46.8088 
  53   0.0000       1.720191        46.8088 
  54   0.0000       1.811601        49.2962 
  55   0.0000       1.911711        52.0203 
  56   0.0000       1.911711        52.0203 
  57   0.0000       1.936720        52.7008 
  58   0.0000       1.936724        52.7009 
  59   0.0000       1.958603        53.2963 
  60   0.0000       1.958603        53.2963 
  61   0.0000       1.992596        54.2213 
  62   0.0000       1.992599        54.2214 
  63   0.0000       2.218728        60.3746 
  64   0.0000       2.218728        60.3746 
  65   0.0000       2.243694        61.0540 
  66   0.0000       2.277310        61.9688 
  67   0.0000       2.277327        61.9692 
  68   0.0000       2.816074        76.6293 
  69   0.0000       2.889235        78.6201 
  70   0.0000       2.889235        78.6201 
  71   0.0000       2.989201        81.3403 
  72   0.0000      13.706048       372.9605 
  73   0.0000      14.164846       385.4451 

                    ********************************
                    * MULLIKEN POPULATION ANALYSIS *
                    ********************************

--------------------------------------------
MULLIKEN ATOMIC CHARGES AND SPIN POPULATIONS
--------------------------------------------
   0 B :   -0.000011    1.000003
   1 B :    0.000011    0.999997
Sum of atomic charges         :    0.0000000
Sum of atomic spin populations:    2.0000000

-----------------------------------------------------
MULLIKEN REDUCED ORBITAL CHARGES AND SPIN POPULATIONS
-----------------------------------------------------
CHARGE
  0 B s       :     3.900834  s :     3.900834
      pz      :     0.105780  p :     1.075836
      px      :     0.485028
      py      :     0.485028
      dz2     :    -0.007287  d :     0.020584
      dxz     :     0.013935
      dyz     :     0.013935
      dx2y2   :     0.000000
      dxy     :    -0.000000
      f0      :     0.000684  f :     0.002757
      f+1     :     0.001036
      f-1     :     0.001036
      f+2     :     0.000000
      f-2     :    -0.000000
      f+3     :     0.000000
      f-3     :     0.000000
  1 B s       :     3.900816  s :     3.900816
      pz      :     0.105776  p :     1.075832
      px      :     0.485028
      py      :     0.485028
      dz2     :    -0.007287  d :     0.020584
      dxz     :     0.013935
      dyz     :     0.013935
      dx2y2   :     0.000000
      dxy     :     0.000000
      f0      :     0.000684  f :     0.002757
      f+1     :     0.001036
      f-1     :     0.001036
      f+2     :     0.000000
      f-2     :     0.000000
      f+3     :     0.000000
      f-3     :     0.000000

SPIN
  0 B s       :    -0.260979  s :    -0.260979
      pz      :     0.243849  p :     1.213906
      px      :     0.485028
      py      :     0.485028
      dz2     :     0.017275  d :     0.045146
      dxz     :     0.013935
      dyz     :     0.013935
      dx2y2   :     0.000000
      dxy     :    -0.000000
      f0      :    -0.000142  f :     0.001930
      f+1     :     0.001036
      f-1     :     0.001036
      f+2     :     0.000000
      f-2     :     0.000000
      f+3     :     0.000000
      f-3     :     0.000000
  1 B s       :    -0.260984  s :    -0.260984
      pz      :     0.243848  p :     1.213905
      px      :     0.485028
      py      :     0.485028
      dz2     :     0.017275  d :     0.045146
      dxz     :     0.013935
      dyz     :     0.013935
      dx2y2   :     0.000000
      dxy     :     0.000000
      f0      :    -0.000142  f :     0.001930
      f+1     :     0.001036
      f-1     :     0.001036
      f+2     :    -0.000000
      f-2     :     0.000000
      f+3     :     0.000000
      f-3     :     0.000000


                     *******************************
                     * LOEWDIN POPULATION ANALYSIS *
                     *******************************

-------------------------------------------
LOEWDIN ATOMIC CHARGES AND SPIN POPULATIONS
-------------------------------------------
   0 B :   -0.000000    1.000000
   1 B :    0.000000    1.000000

----------------------------------------------------
LOEWDIN REDUCED ORBITAL CHARGES AND SPIN POPULATIONS
----------------------------------------------------
CHARGE
  0 B s       :     3.155456  s :     3.155456
      pz      :     0.706229  p :     1.633556
      px      :     0.463664
      py      :     0.463664
      dz2     :     0.128296  d :     0.192612
      dxz     :     0.032158
      dyz     :     0.032158
      dx2y2   :     0.000000
      dxy     :     0.000000
      f0      :     0.010019  f :     0.018376
      f+1     :     0.004179
      f-1     :     0.004179
      f+2     :     0.000000
      f-2     :     0.000000
      f+3     :     0.000000
      f-3     :     0.000000
  1 B s       :     3.155456  s :     3.155456
      pz      :     0.706229  p :     1.633556
      px      :     0.463664
      py      :     0.463664
      dz2     :     0.128296  d :     0.192612
      dxz     :     0.032158
      dyz     :     0.032158
      dx2y2   :     0.000000
      dxy     :     0.000000
      f0      :     0.010019  f :     0.018376
      f+1     :     0.004179
      f-1     :     0.004179
      f+2     :     0.000000
      f-2     :     0.000000
      f+3     :     0.000000
      f-3     :     0.000000

SPIN
  0 B s       :     0.008776  s :     0.008776
      pz      :    -0.008824  p :     0.918503
      px      :     0.463664
      py      :     0.463664
      dz2     :    -0.000244  d :     0.064071
      dxz     :     0.032158
      dyz     :     0.032158
      dx2y2   :     0.000000
      dxy     :     0.000000
      f0      :     0.000292  f :     0.008649
      f+1     :     0.004179
      f-1     :     0.004179
      f+2     :     0.000000
      f-2     :     0.000000
      f+3     :     0.000000
      f-3     :     0.000000
  1 B s       :     0.008776  s :     0.008776
      pz      :    -0.008824  p :     0.918503
      px      :     0.463664
      py      :     0.463664
      dz2     :    -0.000244  d :     0.064071
      dxz     :     0.032158
      dyz     :     0.032158
      dx2y2   :     0.000000
      dxy     :     0.000000
      f0      :     0.000292  f :     0.008649
      f+1     :     0.004179
      f-1     :     0.004179
      f+2     :    -0.000000
      f-2     :     0.000000
      f+3     :     0.000000
      f-3     :     0.000000


                      *****************************
                      * MAYER POPULATION ANALYSIS *
                      *****************************

  NA   - Mulliken gross atomic population
  ZA   - Total nuclear charge
  QA   - Mulliken gross atomic charge
  VA   - Mayer's total valence
  BVA  - Mayer's bonded valence
  FA   - Mayer's free valence

  ATOM       NA         ZA         QA         VA         BVA        FA
  0 B      5.0000     5.0000    -0.0000     2.0691     1.6244     0.4447
  1 B      5.0000     5.0000     0.0000     2.0691     1.6244     0.4447

  Mayer bond orders larger than 0.100000
B(  0-B ,  1-B ) :   1.6244 

-------
TIMINGS
-------

Total SCF time: 0 days 0 hours 0 min 11 sec 

Total time                  ....      11.914 sec
Sum of individual times     ....      10.962 sec  ( 92.0%)

Fock matrix formation       ....      10.167 sec  ( 85.3%)
  XC integration            ....       8.315 sec  ( 81.8% of F)
    Basis function eval.    ....       0.009 sec  (  0.1% of XC)
    Density eval.           ....       0.023 sec  (  0.3% of XC)
    XC-Functional eval.     ....       0.015 sec  (  0.2% of XC)
    XC-Potential eval.      ....       0.042 sec  (  0.5% of XC)
Diagonalization             ....       0.144 sec  (  1.2%)
Density matrix formation    ....       0.007 sec  (  0.1%)
Population analysis         ....       0.128 sec  (  1.1%)
Initial guess               ....       0.149 sec  (  1.3%)
Orbital Transformation      ....       0.000 sec  (  0.0%)
Orbital Orthonormalization  ....       0.000 sec  (  0.0%)
DIIS solution               ....       0.073 sec  (  0.6%)
Grid generation             ....       0.294 sec  (  2.5%)

-------------------------   --------------------
FINAL SINGLE POINT ENERGY       -49.388129969882
-------------------------   --------------------


----------------------------------------------------------------------------
                           ORCA NUMERICAL GRADIENT
                              (28-process run)
----------------------------------------------------------------------------

I state                        ... 1
J state                        ... 0
Number of atoms                ... 2
Derivative's order of accuracy ... 2
Central differences            ... used
Number of displacements        ... 12
Numerical increment            ... 5.000e-03 bohr
Translation invariance         ... used

The output will be reduced. Please look at the following files:
SCF program output             ... >b2.lastscf
Integral program output        ... >b2.lastint
Gradient program output        ... >b2.lastgrad


     Note:   There are more processes than displacements to do
     ===>:   Reducing number of processes to   3

             <<<Displacing   2/coordinate 1 (+)>>>
             <<<Displacing   2/coordinate 3 (+)>>>
             <<<Displacing   2/coordinate 2 (+)>>>
             <<<Displacing   2/coordinate 1 (-)>>>
             <<<Displacing   2/coordinate 2 (-)>>>
             <<<Displacing   2/coordinate 3 (-)>>>

------------------------------
CARTESIAN GRADIENT (NUMERICAL)
-------------------------------
   1   B   :    0.000000412   -0.000000560   -0.003158580
   2   B   :   -0.000000412    0.000000560    0.003158580

Norm of the cartesian gradient     ...    0.004466906
RMS gradient                       ...    0.001823607
MAX gradient                       ...    0.003158580

-------
TIMINGS
-------

Total numerical gradient time      ...        9.556 sec


                            ***************************************
                            *     ORCA property calculations      *
                            ***************************************

                                    ---------------------
                                    Active property flags
                                    ---------------------
   (+) Dipole Moment


------------------------------------------------------------------------------
                       ORCA ELECTRIC PROPERTIES CALCULATION
------------------------------------------------------------------------------

Dipole Moment Calculation                       ... on
Quadrupole Moment Calculation                   ... off
Polarizability Calculation                      ... off
GBWName                                         ... b2.gbw
Electron density file                           ... b2.scfp
The origin for moment calculation is the CENTER OF MASS  = ( 0.000000,  0.000000  0.000000)

-------------
DIPOLE MOMENT
-------------
                                X             Y             Z
Electronic contribution:      0.00000       0.00000      -0.00000
Nuclear contribution   :      0.00000       0.00000       0.00000
                        -----------------------------------------
Total Dipole Moment    :      0.00000       0.00000      -0.00000
                        -----------------------------------------
Magnitude (a.u.)       :      0.00000
Magnitude (Debye)      :      0.00000



--------------------
Rotational spectrum 
--------------------
 
Rotational constants in cm-1:     0.000000     1.197127     1.197127 
Rotational constants in MHz :     0.000000 35888.972992 35888.972992 

 Dipole components along the rotational axes: 
x,y,z [a.u.] :    -0.000000     0.000000     0.000000 
x,y,z [Debye]:    -0.000000     0.000000     0.000000 

 

Timings for individual modules:

Sum of individual times         ...       22.965 sec (=   0.383 min)
GTO integral calculation        ...        0.890 sec (=   0.015 min)   3.9 %
SCF iterations                  ...       12.519 sec (=   0.209 min)  54.5 %
SCF Gradient evaluation         ...        9.556 sec (=   0.159 min)  41.6 %
                             ****ORCA TERMINATED NORMALLY****
TOTAL RUN TIME: 0 days 0 hours 0 minutes 24 seconds 103 msec
