
                                 *****************
                                 * O   R   C   A *
                                 *****************

           --- An Ab Initio, DFT and Semiempirical electronic structure package ---

                  #######################################################
                  #                        -***-                        #
                  #          Department of theory and spectroscopy      #
                  #               Directorship: Frank Neese             #
                  #        Max Planck Institute fuer Kohlenforschung    #
                  #                Kaiser Wilhelm Platz 1               #
                  #                 D-45470 Muelheim/Ruhr               #
                  #                      Germany                        #
                  #                                                     #
                  #                  All rights reserved                #
                  #                        -***-                        #
                  #######################################################


                         Program Version 4.2.0 -  RELEASE  -


 With contributions from (in alphabetic order):
   Daniel Aravena         : Magnetic Suceptibility
   Michael Atanasov       : Ab Initio Ligand Field Theory (pilot matlab implementation)
   Alexander A. Auer      : GIAO ZORA, VPT2
   Ute Becker             : Parallelization
   Giovanni Bistoni       : ED, misc. LED, open-shell LED, HFLED
   Martin Brehm           : Molecular dynamics
   Dmytro Bykov           : SCF Hessian
   Vijay G. Chilkuri      : MRCI spin determinant printing, contributions to CSF-ICE
   Dipayan Datta          : RHF DLPNO-CCSD density
   Achintya Kumar Dutta   : EOM-CC, STEOM-CC
   Dmitry Ganyushin       : Spin-Orbit,Spin-Spin,Magnetic field MRCI
   Miquel Garcia          : C-PCM Hessian, Gaussian charge scheme
   Yang Guo               : DLPNO-NEVPT2, CIM, IAO-localization
   Andreas Hansen         : Spin unrestricted coupled pair/coupled cluster methods
   Benjamin Helmich-Paris : CASSCF linear response (MC-RPA)
   Lee Huntington         : MR-EOM, pCC
   Robert Izsak           : Overlap fitted RIJCOSX, COSX-SCS-MP3, EOM
   Christian Kollmar      : KDIIS, OOCD, Brueckner-CCSD(T), CCSD density
   Simone Kossmann        : Meta GGA functionals, TD-DFT gradient, OOMP2, MP2 Hessian
   Martin Krupicka        : AUTO-CI
   Lucas Lang             : DCDCAS
   Dagmar Lenk            : GEPOL surface, SMD
   Dimitrios Liakos       : Extrapolation schemes; Compound Job, initial MDCI parallelization
   Dimitrios Manganas     : Further ROCIS development; embedding schemes
   Dimitrios Pantazis     : SARC Basis sets
   Taras Petrenko         : DFT Hessian,TD-DFT gradient, ASA, ECA, R-Raman, ABS, FL, XAS/XES, NRVS
   Peter Pinski           : DLPNO-MP2, DLPNO-MP2 Gradient
   Christoph Reimann      : Effective Core Potentials
   Marius Retegan         : Local ZFS, SOC
   Christoph Riplinger    : Optimizer, TS searches, QM/MM, DLPNO-CCSD(T), (RO)-DLPNO pert. Triples
   Tobias Risthaus        : Range-separated hybrids, TD-DFT gradient, RPA, STAB
   Michael Roemelt        : Original ROCIS implementation
   Masaaki Saitow         : Open-shell DLPNO-CCSD energy and density
   Barbara Sandhoefer     : DKH picture change effects
   Avijit Sen             : IP-ROCIS
   Kantharuban Sivalingam : CASSCF convergence, NEVPT2, FIC-MRCI
   Bernardo de Souza      : ESD, SOC TD-DFT
   Georgi Stoychev        : AutoAux, RI-MP2 NMR
   Willem Van den Heuvel  : Paramagnetic NMR
   Boris Wezisla          : Elementary symmetry handling
   Frank Wennmohs         : Technical directorship


 We gratefully acknowledge several colleagues who have allowed us to
 interface, adapt or use parts of their codes:
   Stefan Grimme, W. Hujo, H. Kruse,             : VdW corrections, initial TS optimization,
                  C. Bannwarth                     DFT functionals, gCP, sTDA/sTD-DF
   Ed Valeev, F. Pavosevic, A. Kumar             : LibInt (2-el integral package), F12 methods
   Garnet Chan, S. Sharma, J. Yang, R. Olivares  : DMRG
   Ulf Ekstrom                                   : XCFun DFT Library
   Mihaly Kallay                                 : mrcc  (arbitrary order and MRCC methods)
   Andreas Klamt, Michael Diedenhofen            : otool_cosmo (COSMO solvation model)
   Jiri Pittner, Ondrej Demel                    : Mk-CCSD
   Frank Weinhold                                : gennbo (NPA and NBO analysis)
   Christopher J. Cramer and Donald G. Truhlar   : smd solvation model
   Lars Goerigk                                  : TD-DFT with DH, B97 family of functionals
   V. Asgeirsson, H. Jonsson                     : NEB implementation
   FAccTs GmbH                                   : IRC, NEB, NEB-TS, Multilevel, MM, QM/MM, CI optimization
   S Lehtola, MJT Oliveira, MAL Marques          : LibXC Library


 Your calculation uses the libint2 library for the computation of 2-el integrals
 For citations please refer to: http://libint.valeyev.net

 Your ORCA version has been built with support for libXC version: 4.2.3
 For citations please refer to: https://tddft.org/programs/libxc/

 This ORCA versions uses:
   CBLAS   interface :  Fast vector & matrix operations
   LAPACKE interface :  Fast linear algebra routines
   SCALAPACK package :  Parallel linear algebra routines


Your calculation utilizes the DFT-NL dispersion correction.
Cite in your paper:
Vydrov, O. A.; Van Voorhis, T. J. Chem. Phys. 2010, 133, 244103
Hujo, W.; Grimme, S. J. Chem. Theory Comput. 2011, 7, 3866 
   

----- Orbital basis set information -----
Your calculation utilizes the basis: def2-TZVPPD
   F. Weigend and R. Ahlrichs, Phys. Chem. Chem. Phys. 7, 3297 (2005).
   D. Rappoport and F. Furche, J. Chem. Phys. 133 134105 (2010).

----- AuxJK basis set information -----
Your calculation utilizes the auxiliary basis: def2/JK
   H-Ba, Hf-Rn: F. Weigend, J. Comput. Chem. 29, 167 (2008).

================================================================================
                                        WARNINGS
                       Please study these warnings very carefully!
================================================================================

INFO   : Found keyword 'NumGrad' for Energy calculation
  ===> : Setting RunTyp to EnGrad

WARNING: Numerical Gradient with sloppy Convergence Criteria    
         Your results may be not reliable!                      
         Please choose at least TightSCF!                       

WARNING: your system is open-shell and RHF/RKS was chosen
  ===> : WILL SWITCH to UHF/UKS


INFO   : the flag for use of LIBINT has been found!

================================================================================
                                       INPUT FILE
================================================================================
NAME = c.in
|  1> #
|  2> # c wB97M-V/Def2-TZVPPD
|  3> #
|  4> ! wb97m-v def2-tzvppd def2/jk grid4 nofinalgrid numgrad
|  5> 
|  6> *xyz 0 3
|  7> C          0.00000        0.00000        0.00000
|  8> *
|  9> 
| 10> %maxcore 5000
| 11> 
| 12> %pal
| 13> nprocs = 28
| 14> end
| 15> 
| 16> 
| 17>                          ****END OF INPUT****
================================================================================

                     *******************************
                     * Energy+Gradient Calculation *
                     *******************************

---------------------------------
CARTESIAN COORDINATES (ANGSTROEM)
---------------------------------
  C      0.000000    0.000000    0.000000

----------------------------
CARTESIAN COORDINATES (A.U.)
----------------------------
  NO LB      ZA    FRAG     MASS         X           Y           Z
   0 C     6.0000    0    12.011    0.000000    0.000000    0.000000

--------------------------------
INTERNAL COORDINATES (ANGSTROEM)
--------------------------------
 C      0   0   0     0.000000000000     0.00000000     0.00000000

---------------------------
INTERNAL COORDINATES (A.U.)
---------------------------
 C      0   0   0     0.000000000000     0.00000000     0.00000000

---------------------
BASIS SET INFORMATION
---------------------
There are 1 groups of distinct atoms

 Group   1 Type C   : 12s6p3d1f contracted to 6s3p3d1f pattern {621111/411/111/1}

Atom   0C    basis set group =>   1
----------------------------------
AUXILIARY/JK BASIS SET INFORMATION
----------------------------------
There are 1 groups of distinct atoms

 Group   1 Type C   : 14s10p6d2f1g contracted to 10s8p5d1f1g pattern {5111111111/31111111/21111/2/1}

Atom   0C    basis set group =>   1


           ************************************************************
           *        Program running with 28 parallel MPI-processes    *
           *              working on a common directory               *
           ************************************************************
------------------------------------------------------------------------------
                           ORCA GTO INTEGRAL CALCULATION
------------------------------------------------------------------------------

                         BASIS SET STATISTICS AND STARTUP INFO

 # of primitive gaussian shells          ...   22
 # of primitive gaussian functions       ...   52
 # of contracted shells                  ...   13
 # of contracted basis functions         ...   37
 Highest angular momentum                ...    3
 Maximum contraction depth               ...    6
 Integral package used                   ... LIBINT
 Integral threshhold            Thresh   ...  1.000e-10
 Primitive cut-off              TCut     ...  1.000e-11


------------------------------ INTEGRAL EVALUATION ----------------------------


 * One electron integrals 
 Pre-screening matrix                    ... done
 Shell pair data                         ... done (   0.000 sec)



           ************************************************************
           *        Program running with 28 parallel MPI-processes    *
           *              working on a common directory               *
           ************************************************************
-------------------------------------------------------------------------------
                                 ORCA SCF
-------------------------------------------------------------------------------

------------
SCF SETTINGS
------------
Hamiltonian:
 Density Functional     Method          .... DFT(GTOs)
 Exchange Functional    Exchange        .... WB97M-V
 Correlation Functional Correlation     .... WB97M-V
 Gradients option       PostSCFGGA      .... off
 Hybrid DFT is turned on
   Fraction HF Exchange ScalHFX         ....  0.150000
   Scaling of DF-GGA-X  ScalDFX         ....  0.000000
   Scaling of DF-GGA-C  ScalDFC         ....  1.000000
   Scaling of DF-LDA-C  ScalLDAC        ....  1.000000
   Perturbative correction              ....  0.000000
   Density functional embedding theory  .... OFF
 Long-range corrected/Screened/Range-Separated Hybrid DFT is turned on
   Amount of maximum screened exact exchange              ....  0.850000
   Range separation parameter mu (erf(mu*r12)/r12)        ....  0.300000
   NL short-range parameter             ....  6.000000
   NL long-range parameter              ....  0.010000


General Settings:
 Integral files         IntName         .... c.in
 Hartree-Fock type      HFTyp           .... UHF
 Total Charge           Charge          ....    0
 Multiplicity           Mult            ....    3
 Number of Electrons    NEL             ....    6
 Basis Dimension        Dim             ....   37
 Nuclear Repulsion      ENuc            ....      0.0000000000 Eh

Convergence Acceleration:
 DIIS                   CNVDIIS         .... on
   Start iteration      DIISMaxIt       ....    12
   Startup error        DIISStart       ....  0.200000
   # of expansion vecs  DIISMaxEq       ....     5
   Bias factor          DIISBfac        ....   1.050
   Max. coefficient     DIISMaxC        ....  10.000
 Newton-Raphson         CNVNR           .... off
 SOSCF                  CNVSOSCF        .... off
 Level Shifting         CNVShift        .... on
   Level shift para.    LevelShift      ....    0.2500
   Turn off err/grad.   ShiftErr        ....    0.0010
 Zerner damping         CNVZerner       .... off
 Static damping         CNVDamp         .... on
   Fraction old density DampFac         ....    0.7000
   Max. Damping (<1)    DampMax         ....    0.9800
   Min. Damping (>=0)   DampMin         ....    0.0000
   Turn off err/grad.   DampErr         ....    0.1000
 Fernandez-Rico         CNVRico         .... off

SCF Procedure:
 Maximum # iterations   MaxIter         ....   125
 SCF integral mode      SCFMode         .... Direct
   Integral package                     .... LIBINT
 Reset frequency        DirectResetFreq ....    20
 Integral Threshold     Thresh          ....  1.000e-10 Eh
 Primitive CutOff       TCut            ....  1.000e-11 Eh

Convergence Tolerance:
 Convergence Check Mode ConvCheckMode   .... Total+1el-Energy
 Convergence forced     ConvForced      .... 0
 Energy Change          TolE            ....  1.000e-06 Eh
 1-El. energy change                    ....  1.000e-03 Eh
 DIIS Error             TolErr          ....  1.000e-06


Diagonalization of the overlap matrix:
Smallest eigenvalue                        ... 8.753e-03
Time for diagonalization                   ...    0.001 sec
Threshold for overlap eigenvalues          ... 1.000e-08
Number of eigenvalues below threshold      ... 0
Time for construction of square roots      ...    0.054 sec
Total time needed                          ...    0.055 sec

-------------------
DFT GRID GENERATION
-------------------

General Integration Accuracy     IntAcc      ...  4.670
Radial Grid Type                 RadialGrid  ... Gauss-Chebyshev
Angular Grid (max. acc.)         AngularGrid ... Lebedev-302
Angular grid pruning method      GridPruning ... 3 (G Style)
Weight generation scheme         WeightScheme... Becke
Basis function cutoff            BFCut       ...    1.0000e-10
Integration weight cutoff        WCut        ...    1.0000e-14
Grids for H and He will be reduced by one unit

# of grid points (after initial pruning)     ...   6212 (   0.0 sec)
# of grid points (after weights+screening)   ...   6212 (   0.0 sec)
Grid point division into batches done        ...    0.0 sec
Reduced shell lists constructed in    0.0 sec

Total number of grid points                  ...     6212
Total number of batches                      ...       98
Average number of points per batch           ...       63
Average number of grid points per atom       ...     6212
Average number of shells per batch           ...     3.20 (24.62%)
Average number of basis functions per batch  ...     8.00 (21.62%)
Average number of large shells per batch     ...     2.40 (75.00%)
Average number of large basis fcns per batch ...     7.20 (90.00%)
Maximum spatial batch extension              ...  18.61, 18.61, 18.61 au
Average spatial batch extension              ...   0.64,  0.64,  0.76 au

Time for grid setup =    2.080 sec

------------------------------
INITIAL GUESS: MODEL POTENTIAL
------------------------------
Loading Hartree-Fock densities                     ... done
Calculating cut-offs                               ... done
Setting up the integral package                    ... done
Initializing the effective Hamiltonian             ... done
Starting the Coulomb interaction                   ... done (   0.0 sec)
Reading the grid                                   ... done
Mapping shells                                     ... done
Starting the XC term evaluation                    ... done (   0.0 sec)
  promolecular density results
     # of electrons  =      5.999999591
     EX              =     -4.928567370
     EC              =     -0.156736544
     EX+EC           =     -5.085303914
Transforming the Hamiltonian                       ... done (   0.1 sec)
Diagonalizing the Hamiltonian                      ... done (   0.0 sec)
Back transforming the eigenvectors                 ... done (   0.0 sec)
Now organizing SCF variables                       ... done
                      ------------------
                      INITIAL GUESS DONE (   2.6 sec)
                      ------------------
--------------
SCF ITERATIONS
--------------
ITER       Energy         Delta-E        Max-DP      RMS-DP      [F,P]     Damp
               ***  Starting incremental Fock matrix formation  ***
  0    -37.8633542509   0.000000000000 0.01979538  0.00065890  0.0480382 0.7000
  1    -37.8652826846  -0.001928433714 0.01570697  0.00053765  0.0312220 0.7000
                               ***Turning on DIIS***
  2    -37.8667912038  -0.001508519202 0.03674276  0.00130047  0.0209576 0.0000
  3    -37.8705889700  -0.003797766212 0.00979906  0.00030119  0.0088922 0.0000
  4    -37.8707893258  -0.000200355764 0.00359238  0.00013510  0.0023875 0.0000
  5    -37.8708628462  -0.000073520417 0.00132968  0.00006669  0.0007802 0.0000
  6    -37.8708953656  -0.000032519329 0.00013715  0.00000543  0.0001083 0.0000
  7    -37.8708968659  -0.000001500298 0.00001783  0.00000058  0.0000037 0.0000
                 **** Energy Check signals convergence ****

               *****************************************************
               *                     SUCCESS                       *
               *           SCF CONVERGED AFTER   8 CYCLES          *
               *****************************************************


Setting up the DFT-NL grid :

General Integration Accuracy     IntAcc      ...  4.340
Radial Grid Type                 RadialGrid  ... Gauss-Chebyshev
Angular Grid (max. acc.)         AngularGrid ... Lebedev-110
Angular grid pruning method      GridPruning ... 3 (G Style)
Weight generation scheme         WeightScheme... Becke
Basis function cutoff            BFCut       ...    1.0000e-10
Integration weight cutoff        WCut        ...    1.0000e-14
Grids for H and He will be reduced by one unit

# of grid points (after initial pruning)     ...   1656 (   0.0 sec)
# of grid points (after weights+screening)   ...   1656 (   0.0 sec)
Grid point division into batches done        ...    0.0 sec
Reduced shell lists constructed in    0.0 sec

Total number of grid points                  ...     1656
Total number of batches                      ...       26
Average number of points per batch           ...       63
Average number of grid points per atom       ...     1656
Average number of shells per batch           ...     5.00 (38.46%)
Average number of basis functions per batch  ...    15.00 (40.54%)
Average number of large shells per batch     ...     3.50 (70.00%)
Average number of large basis fcns per batch ...     9.50 (63.33%)
Maximum spatial batch extension              ...  16.97, 31.36, 31.36 au
Average spatial batch extension              ...   0.65,  1.21,  1.21 au

Final grid set up in    1.1 sec

-------------------------------------------------------------------------------
                         DFT-NL dispersion correction                          
-------------------------------------------------------------------------------

SC Energy -37.870896880 
NL    Energy 0.026203144 
SC+NL Energy -37.844693736 
NL done in    1.4 sec
-------------------------------------------------------------------------------

----------------
TOTAL SCF ENERGY
----------------

Total Energy       :          -37.84469374 Eh           -1029.80647 eV

Components:
Nuclear Repulsion  :            0.00000000 Eh               0.00000 eV
Electronic Energy  :          -37.84469374 Eh           -1029.80647 eV
One Electron Energy:          -50.44018841 Eh           -1372.54731 eV
Two Electron Energy:           12.59549468 Eh             342.74083 eV

Virial components:
Potential Energy   :          -75.62273157 Eh           -2057.79914 eV
Kinetic Energy     :           37.77803783 Eh            1027.99267 eV
Virial Ratio       :            2.00176441


DFT components:
N(Alpha)           :        4.000000200888 electrons
N(Beta)            :        2.000000179345 electrons
N(Total)           :        6.000000380233 electrons
E(X)               :       -3.549236216634 Eh       
E(C)               :       -0.142646723810 Eh       
NL Energy, E(C,NL) :        0.026203143578 Eh       
E(XC)              :       -3.665679796866 Eh       
DFET-embed. en.    :        0.000000000000 Eh       

---------------
SCF CONVERGENCE
---------------

  Last Energy change         ...   -1.3817e-08  Tolerance :   1.0000e-06
  Last MAX-Density change    ...    3.4908e-06  Tolerance :   1.0000e-05
  Last RMS-Density change    ...    1.3786e-07  Tolerance :   1.0000e-06
  Last DIIS Error            ...    1.4630e-06  Tolerance :   1.0000e-06

             **** THE GBW FILE WAS UPDATED (c.in.gbw) ****
             **** DENSITY FILE WAS UPDATED (c.in.scfp) ****
             **** ENERGY FILE WAS UPDATED (c.in.en.tmp) ****
----------------------
UHF SPIN CONTAMINATION
----------------------

Warning: in a DFT calculation there is little theoretical justification to 
         calculate <S**2> as in Hartree-Fock theory. We will do it anyways
         but you should keep in mind that the values have only limited relevance

Expectation value of <S**2>     :     2.003895
Ideal value S*(S+1) for S=1.0   :     2.000000
Deviation                       :     0.003895

             **** THE GBW FILE WAS UPDATED (c.in.gbw) ****
             **** DENSITY FILE WAS UPDATED (c.in.scfp) ****
----------------
ORBITAL ENERGIES
----------------
                 SPIN UP ORBITALS
  NO   OCC          E(Eh)            E(eV) 
   0   1.0000     -10.482092      -285.2322 
   1   1.0000      -0.699198       -19.0261 
   2   1.0000      -0.365905        -9.9568 
   3   1.0000      -0.365905        -9.9568 
   4   0.0000      -0.064950        -1.7674 
   5   0.0000       0.057971         1.5775 
   6   0.0000       0.242913         6.6100 
   7   0.0000       0.248055         6.7499 
   8   0.0000       0.248055         6.7499 
   9   0.0000       0.252651         6.8750 
  10   0.0000       0.252651         6.8750 
  11   0.0000       0.289521         7.8783 
  12   0.0000       0.289521         7.8783 
  13   0.0000       0.290090         7.8937 
  14   0.0000       0.396340        10.7850 
  15   0.0000       0.893745        24.3200 
  16   0.0000       0.893745        24.3200 
  17   0.0000       0.894930        24.3523 
  18   0.0000       0.894930        24.3523 
  19   0.0000       0.902748        24.5650 
  20   0.0000       1.422230        38.7009 
  21   0.0000       1.422231        38.7009 
  22   0.0000       1.461191        39.7610 
  23   0.0000       1.469039        39.9746 
  24   0.0000       2.686634        73.1070 
  25   0.0000       2.686634        73.1070 
  26   0.0000       2.691575        73.2415 
  27   0.0000       2.691576        73.2415 
  28   0.0000       2.697245        73.3958 
  29   0.0000       2.697246        73.3958 
  30   0.0000       2.709152        73.7198 
  31   0.0000       3.045520        82.8728 
  32   0.0000       3.045520        82.8728 
  33   0.0000       3.064628        83.3928 
  34   0.0000       3.064631        83.3929 
  35   0.0000       3.084708        83.9392 
  36   0.0000      21.692352       590.2789 

                 SPIN DOWN ORBITALS
  NO   OCC          E(Eh)            E(eV) 
   0   1.0000     -10.451505      -284.3999 
   1   1.0000      -0.593864       -16.1599 
   2   0.0000      -0.030449        -0.8286 
   3   0.0000      -0.013634        -0.3710 
   4   0.0000      -0.013634        -0.3710 
   5   0.0000       0.001291         0.0351 
   6   0.0000       0.179714         4.8903 
   7   0.0000       0.179714         4.8903 
   8   0.0000       0.192052         5.2260 
   9   0.0000       0.192052         5.2260 
  10   0.0000       0.206958         5.6316 
  11   0.0000       0.283475         7.7137 
  12   0.0000       0.286050         7.7838 
  13   0.0000       0.286050         7.7838 
  14   0.0000       0.377805        10.2806 
  15   0.0000       0.926056        25.1993 
  16   0.0000       0.929807        25.3013 
  17   0.0000       0.929807        25.3013 
  18   0.0000       0.956894        26.0384 
  19   0.0000       0.956895        26.0384 
  20   0.0000       1.477899        40.2157 
  21   0.0000       1.529727        41.6260 
  22   0.0000       1.529727        41.6260 
  23   0.0000       1.533061        41.7167 
  24   0.0000       2.765070        75.2414 
  25   0.0000       2.774129        75.4879 
  26   0.0000       2.774129        75.4879 
  27   0.0000       2.800777        76.2130 
  28   0.0000       2.800777        76.2130 
  29   0.0000       2.840040        77.2814 
  30   0.0000       2.840040        77.2814 
  31   0.0000       3.157121        85.9096 
  32   0.0000       3.166678        86.1697 
  33   0.0000       3.166678        86.1697 
  34   0.0000       3.217496        87.5525 
  35   0.0000       3.217496        87.5525 
  36   0.0000      21.721412       591.0697 

                    ********************************
                    * MULLIKEN POPULATION ANALYSIS *
                    ********************************

--------------------------------------------
MULLIKEN ATOMIC CHARGES AND SPIN POPULATIONS
--------------------------------------------
   0 C :   -0.000000    2.000000
Sum of atomic charges         :   -0.0000000
Sum of atomic spin populations:    2.0000000

-----------------------------------------------------
MULLIKEN REDUCED ORBITAL CHARGES AND SPIN POPULATIONS
-----------------------------------------------------
CHARGE
  0 C s       :     3.999583  s :     3.999583
      pz      :     0.990747  p :     1.999995
      px      :     0.044421
      py      :     0.964827
      dz2     :     0.000098  d :     0.000417
      dxz     :     0.000011
      dyz     :     0.000000
      dx2y2   :     0.000265
      dxy     :     0.000042
      f0      :     0.000001  f :     0.000005
      f+1     :     0.000000
      f-1     :     0.000000
      f+2     :     0.000001
      f-2     :     0.000000
      f+3     :     0.000001
      f-3     :     0.000002

SPIN
  0 C s       :     0.000296  s :     0.000296
      pz      :     0.990747  p :     1.999995
      px      :     0.044421
      py      :     0.964827
      dz2     :    -0.000070  d :    -0.000296
      dxz     :    -0.000008
      dyz     :    -0.000000
      dx2y2   :    -0.000188
      dxy     :    -0.000030
      f0      :     0.000001  f :     0.000005
      f+1     :     0.000000
      f-1     :     0.000000
      f+2     :     0.000001
      f-2     :     0.000000
      f+3     :     0.000001
      f-3     :     0.000002


                     *******************************
                     * LOEWDIN POPULATION ANALYSIS *
                     *******************************

-------------------------------------------
LOEWDIN ATOMIC CHARGES AND SPIN POPULATIONS
-------------------------------------------
   0 C :   -0.000000    2.000000

----------------------------------------------------
LOEWDIN REDUCED ORBITAL CHARGES AND SPIN POPULATIONS
----------------------------------------------------
CHARGE
  0 C s       :     3.999583  s :     3.999583
      pz      :     0.990747  p :     1.999995
      px      :     0.044421
      py      :     0.964827
      dz2     :     0.000098  d :     0.000417
      dxz     :     0.000011
      dyz     :     0.000000
      dx2y2   :     0.000265
      dxy     :     0.000042
      f0      :     0.000001  f :     0.000005
      f+1     :     0.000000
      f-1     :     0.000000
      f+2     :     0.000001
      f-2     :     0.000000
      f+3     :     0.000001
      f-3     :     0.000002

SPIN
  0 C s       :     0.000296  s :     0.000296
      pz      :     0.990747  p :     1.999995
      px      :     0.044421
      py      :     0.964827
      dz2     :    -0.000070  d :    -0.000296
      dxz     :    -0.000008
      dyz     :    -0.000000
      dx2y2   :    -0.000188
      dxy     :    -0.000030
      f0      :     0.000001  f :     0.000005
      f+1     :     0.000000
      f-1     :     0.000000
      f+2     :     0.000001
      f-2     :     0.000000
      f+3     :     0.000001
      f-3     :     0.000002


                      *****************************
                      * MAYER POPULATION ANALYSIS *
                      *****************************

  NA   - Mulliken gross atomic population
  ZA   - Total nuclear charge
  QA   - Mulliken gross atomic charge
  VA   - Mayer's total valence
  BVA  - Mayer's bonded valence
  FA   - Mayer's free valence

  ATOM       NA         ZA         QA         VA         BVA        FA
  0 C      6.0000     6.0000    -0.0000     2.0078     0.0000     2.0078

  Mayer bond orders larger than 0.100000


-------
TIMINGS
-------

Total SCF time: 0 days 0 hours 1 min 6 sec 

Total time                  ....      66.527 sec
Sum of individual times     ....      64.318 sec  ( 96.7%)

Fock matrix formation       ....      59.612 sec  ( 89.6%)
  XC integration            ....      58.010 sec  ( 97.3% of F)
    Basis function eval.    ....       0.002 sec  (  0.0% of XC)
    Density eval.           ....       0.008 sec  (  0.0% of XC)
    XC-Functional eval.     ....       0.011 sec  (  0.0% of XC)
    XC-Potential eval.      ....       0.006 sec  (  0.0% of XC)
Diagonalization             ....       0.446 sec  (  0.7%)
Density matrix formation    ....       0.002 sec  (  0.0%)
Population analysis         ....       0.426 sec  (  0.6%)
Initial guess               ....       0.555 sec  (  0.8%)
Orbital Transformation      ....       0.000 sec  (  0.0%)
Orbital Orthonormalization  ....       0.000 sec  (  0.0%)
DIIS solution               ....       0.054 sec  (  0.1%)
Grid generation             ....       3.224 sec  (  4.8%)

-------------------------   --------------------
FINAL SINGLE POINT ENERGY       -37.844693736094
-------------------------   --------------------


----------------------------------------------------------------------------
                           ORCA NUMERICAL GRADIENT
                              (28-process run)
----------------------------------------------------------------------------

I state                        ... 1
J state                        ... 0
Number of atoms                ... 1
Derivative's order of accuracy ... 2
Central differences            ... used
Number of displacements        ... 6
Numerical increment            ... 5.000e-03 bohr
Translation invariance         ... used

The output will be reduced. Please look at the following files:
SCF program output             ... >c.in.lastscf
Integral program output        ... >c.in.lastint
Gradient program output        ... >c.in.lastgrad


     Note:   There are more processes than displacements to do
     ===>:   Reducing number of processes to   0


------------------------------
CARTESIAN GRADIENT (NUMERICAL)
-------------------------------
   1   C   :    0.000000000    0.000000000    0.000000000

Norm of the cartesian gradient     ...    0.000000000
RMS gradient                       ...    0.000000000
MAX gradient                       ...    0.000000000
*** glibc detected *** /mnt/storage/software/apps/orca-4.2.0/orca_4_2_0_linux_x86-64_openmpi314/orca: free(): invalid next size (fast): 0x000000000d58c900 ***
======= Backtrace: =========
[0xb0928aa]
[0xb09567c]
[0x76d903]
[0x76fb95]
[0x915b4f]
[0x918f24]
[0x487649]
[0xb05c99e]
[0x4870d9]
======= Memory map: ========
00400000-0bf42000 r-xp 00000000 00:2b 4876154                            /mnt/storage/software/apps/orca-4.2.0/orca_4_2_0_linux_x86-64_openmpi314/orca
0c141000-0c203000 rw-p 0bb41000 00:2b 4876154                            /mnt/storage/software/apps/orca-4.2.0/orca_4_2_0_linux_x86-64_openmpi314/orca
0c203000-0c77a000 rw-p 00000000 00:00 0 
0d349000-0d5b1000 rw-p 00000000 00:00 0                                  [heap]
2b85784e6000-2b8578ce7000 rw-p 00000000 00:00 0 
2b85794e6000-2b857bba9000 rw-p 00000000 00:00 0 
2b857c000000-2b857c0b3000 rw-p 00000000 00:00 0 
2b857c0b3000-2b8580000000 ---p 00000000 00:00 0 
7ffc22a77000-7ffc22b79000 rw-p 00000000 00:00 0                          [stack]
7ffc22ba3000-7ffc22ba5000 r-xp 00000000 00:00 0                          [vdso]
ffffffffff600000-ffffffffff601000 r-xp 00000000 00:00 0                  [vsyscall]
