
                                 *****************
                                 * O   R   C   A *
                                 *****************

           --- An Ab Initio, DFT and Semiempirical electronic structure package ---

                  #######################################################
                  #                        -***-                        #
                  #          Department of theory and spectroscopy      #
                  #               Directorship: Frank Neese             #
                  #        Max Planck Institute fuer Kohlenforschung    #
                  #                Kaiser Wilhelm Platz 1               #
                  #                 D-45470 Muelheim/Ruhr               #
                  #                      Germany                        #
                  #                                                     #
                  #                  All rights reserved                #
                  #                        -***-                        #
                  #######################################################


                         Program Version 4.2.0 -  RELEASE  -


 With contributions from (in alphabetic order):
   Daniel Aravena         : Magnetic Suceptibility
   Michael Atanasov       : Ab Initio Ligand Field Theory (pilot matlab implementation)
   Alexander A. Auer      : GIAO ZORA, VPT2
   Ute Becker             : Parallelization
   Giovanni Bistoni       : ED, misc. LED, open-shell LED, HFLED
   Martin Brehm           : Molecular dynamics
   Dmytro Bykov           : SCF Hessian
   Vijay G. Chilkuri      : MRCI spin determinant printing, contributions to CSF-ICE
   Dipayan Datta          : RHF DLPNO-CCSD density
   Achintya Kumar Dutta   : EOM-CC, STEOM-CC
   Dmitry Ganyushin       : Spin-Orbit,Spin-Spin,Magnetic field MRCI
   Miquel Garcia          : C-PCM Hessian, Gaussian charge scheme
   Yang Guo               : DLPNO-NEVPT2, CIM, IAO-localization
   Andreas Hansen         : Spin unrestricted coupled pair/coupled cluster methods
   Benjamin Helmich-Paris : CASSCF linear response (MC-RPA)
   Lee Huntington         : MR-EOM, pCC
   Robert Izsak           : Overlap fitted RIJCOSX, COSX-SCS-MP3, EOM
   Christian Kollmar      : KDIIS, OOCD, Brueckner-CCSD(T), CCSD density
   Simone Kossmann        : Meta GGA functionals, TD-DFT gradient, OOMP2, MP2 Hessian
   Martin Krupicka        : AUTO-CI
   Lucas Lang             : DCDCAS
   Dagmar Lenk            : GEPOL surface, SMD
   Dimitrios Liakos       : Extrapolation schemes; Compound Job, initial MDCI parallelization
   Dimitrios Manganas     : Further ROCIS development; embedding schemes
   Dimitrios Pantazis     : SARC Basis sets
   Taras Petrenko         : DFT Hessian,TD-DFT gradient, ASA, ECA, R-Raman, ABS, FL, XAS/XES, NRVS
   Peter Pinski           : DLPNO-MP2, DLPNO-MP2 Gradient
   Christoph Reimann      : Effective Core Potentials
   Marius Retegan         : Local ZFS, SOC
   Christoph Riplinger    : Optimizer, TS searches, QM/MM, DLPNO-CCSD(T), (RO)-DLPNO pert. Triples
   Tobias Risthaus        : Range-separated hybrids, TD-DFT gradient, RPA, STAB
   Michael Roemelt        : Original ROCIS implementation
   Masaaki Saitow         : Open-shell DLPNO-CCSD energy and density
   Barbara Sandhoefer     : DKH picture change effects
   Avijit Sen             : IP-ROCIS
   Kantharuban Sivalingam : CASSCF convergence, NEVPT2, FIC-MRCI
   Bernardo de Souza      : ESD, SOC TD-DFT
   Georgi Stoychev        : AutoAux, RI-MP2 NMR
   Willem Van den Heuvel  : Paramagnetic NMR
   Boris Wezisla          : Elementary symmetry handling
   Frank Wennmohs         : Technical directorship


 We gratefully acknowledge several colleagues who have allowed us to
 interface, adapt or use parts of their codes:
   Stefan Grimme, W. Hujo, H. Kruse,             : VdW corrections, initial TS optimization,
                  C. Bannwarth                     DFT functionals, gCP, sTDA/sTD-DF
   Ed Valeev, F. Pavosevic, A. Kumar             : LibInt (2-el integral package), F12 methods
   Garnet Chan, S. Sharma, J. Yang, R. Olivares  : DMRG
   Ulf Ekstrom                                   : XCFun DFT Library
   Mihaly Kallay                                 : mrcc  (arbitrary order and MRCC methods)
   Andreas Klamt, Michael Diedenhofen            : otool_cosmo (COSMO solvation model)
   Jiri Pittner, Ondrej Demel                    : Mk-CCSD
   Frank Weinhold                                : gennbo (NPA and NBO analysis)
   Christopher J. Cramer and Donald G. Truhlar   : smd solvation model
   Lars Goerigk                                  : TD-DFT with DH, B97 family of functionals
   V. Asgeirsson, H. Jonsson                     : NEB implementation
   FAccTs GmbH                                   : IRC, NEB, NEB-TS, Multilevel, MM, QM/MM, CI optimization
   S Lehtola, MJT Oliveira, MAL Marques          : LibXC Library


 Your calculation uses the libint2 library for the computation of 2-el integrals
 For citations please refer to: http://libint.valeyev.net

 Your ORCA version has been built with support for libXC version: 4.2.3
 For citations please refer to: https://tddft.org/programs/libxc/

 This ORCA versions uses:
   CBLAS   interface :  Fast vector & matrix operations
   LAPACKE interface :  Fast linear algebra routines
   SCALAPACK package :  Parallel linear algebra routines


Your calculation utilizes the DFT-NL dispersion correction.
Cite in your paper:
Vydrov, O. A.; Van Voorhis, T. J. Chem. Phys. 2010, 133, 244103
Hujo, W.; Grimme, S. J. Chem. Theory Comput. 2011, 7, 3866 
   

----- Orbital basis set information -----
Your calculation utilizes the basis: def2-TZVPPD
   F. Weigend and R. Ahlrichs, Phys. Chem. Chem. Phys. 7, 3297 (2005).
   D. Rappoport and F. Furche, J. Chem. Phys. 133 134105 (2010).

----- AuxJK basis set information -----
Your calculation utilizes the auxiliary basis: def2/JK
   H-Ba, Hf-Rn: F. Weigend, J. Comput. Chem. 29, 167 (2008).

================================================================================
                                        WARNINGS
                       Please study these warnings very carefully!
================================================================================

INFO   : Found keyword 'NumGrad' for Energy calculation
  ===> : Setting RunTyp to EnGrad

WARNING: Numerical Gradient with sloppy Convergence Criteria    
         Your results may be not reliable!                      
         Please choose at least TightSCF!                       

INFO   : the flag for use of LIBINT has been found!

================================================================================
                                       INPUT FILE
================================================================================
NAME = CO.in
|  1> #
|  2> # CO wB97M-V/Def2-TZVPPD
|  3> #
|  4> ! wb97m-v def2-tzvppd def2/jk grid4 nofinalgrid numgrad
|  5> 
|  6> *xyz 0 1
|  7> O          0.00000        0.00000        0.00000
|  8> C          0.00000        0.00000        1.12961
|  9> *
| 10> 
| 11> %maxcore 5000
| 12> 
| 13> %pal
| 14> nprocs = 28
| 15> end
| 16> 
| 17> 
| 18>                          ****END OF INPUT****
================================================================================

                     *******************************
                     * Energy+Gradient Calculation *
                     *******************************

---------------------------------
CARTESIAN COORDINATES (ANGSTROEM)
---------------------------------
  O      0.000000    0.000000    0.000000
  C      0.000000    0.000000    1.129610

----------------------------
CARTESIAN COORDINATES (A.U.)
----------------------------
  NO LB      ZA    FRAG     MASS         X           Y           Z
   0 O     8.0000    0    15.999    0.000000    0.000000    0.000000
   1 C     6.0000    0    12.011    0.000000    0.000000    2.134654

--------------------------------
INTERNAL COORDINATES (ANGSTROEM)
--------------------------------
 O      0   0   0     0.000000000000     0.00000000     0.00000000
 C      1   0   0     1.129610000000     0.00000000     0.00000000

---------------------------
INTERNAL COORDINATES (A.U.)
---------------------------
 O      0   0   0     0.000000000000     0.00000000     0.00000000
 C      1   0   0     2.134653538139     0.00000000     0.00000000

---------------------
BASIS SET INFORMATION
---------------------
There are 2 groups of distinct atoms

 Group   1 Type O   : 12s7p3d1f contracted to 6s4p3d1f pattern {621111/4111/111/1}
 Group   2 Type C   : 12s6p3d1f contracted to 6s3p3d1f pattern {621111/411/111/1}

Atom   0O    basis set group =>   1
Atom   1C    basis set group =>   2
----------------------------------
AUXILIARY/JK BASIS SET INFORMATION
----------------------------------
There are 2 groups of distinct atoms

 Group   1 Type O   : 14s10p6d2f1g contracted to 10s8p4d2f1g pattern {5111111111/31111111/3111/11/1}
 Group   2 Type C   : 14s10p6d2f1g contracted to 10s8p5d1f1g pattern {5111111111/31111111/21111/2/1}

Atom   0O    basis set group =>   1
Atom   1C    basis set group =>   2


           ************************************************************
           *        Program running with 28 parallel MPI-processes    *
           *              working on a common directory               *
           ************************************************************
------------------------------------------------------------------------------
                           ORCA GTO INTEGRAL CALCULATION
------------------------------------------------------------------------------

                         BASIS SET STATISTICS AND STARTUP INFO

 # of primitive gaussian shells          ...   45
 # of primitive gaussian functions       ...  107
 # of contracted shells                  ...   27
 # of contracted basis functions         ...   77
 Highest angular momentum                ...    3
 Maximum contraction depth               ...    6
 Integral package used                   ... LIBINT
 Integral threshhold            Thresh   ...  1.000e-10
 Primitive cut-off              TCut     ...  1.000e-11


------------------------------ INTEGRAL EVALUATION ----------------------------


 * One electron integrals 
 Pre-screening matrix                    ... done
 Shell pair data                         ... done (   0.000 sec)



           ************************************************************
           *        Program running with 28 parallel MPI-processes    *
           *              working on a common directory               *
           ************************************************************
-------------------------------------------------------------------------------
                                 ORCA SCF
-------------------------------------------------------------------------------

------------
SCF SETTINGS
------------
Hamiltonian:
 Density Functional     Method          .... DFT(GTOs)
 Exchange Functional    Exchange        .... WB97M-V
 Correlation Functional Correlation     .... WB97M-V
 Gradients option       PostSCFGGA      .... off
 Hybrid DFT is turned on
   Fraction HF Exchange ScalHFX         ....  0.150000
   Scaling of DF-GGA-X  ScalDFX         ....  0.000000
   Scaling of DF-GGA-C  ScalDFC         ....  1.000000
   Scaling of DF-LDA-C  ScalLDAC        ....  1.000000
   Perturbative correction              ....  0.000000
   Density functional embedding theory  .... OFF
 Long-range corrected/Screened/Range-Separated Hybrid DFT is turned on
   Amount of maximum screened exact exchange              ....  0.850000
   Range separation parameter mu (erf(mu*r12)/r12)        ....  0.300000
   NL short-range parameter             ....  6.000000
   NL long-range parameter              ....  0.010000


General Settings:
 Integral files         IntName         .... CO
 Hartree-Fock type      HFTyp           .... RHF
 Total Charge           Charge          ....    0
 Multiplicity           Mult            ....    1
 Number of Electrons    NEL             ....   14
 Basis Dimension        Dim             ....   77
 Nuclear Repulsion      ENuc            ....     22.4860845764 Eh

Convergence Acceleration:
 DIIS                   CNVDIIS         .... on
   Start iteration      DIISMaxIt       ....    12
   Startup error        DIISStart       ....  0.200000
   # of expansion vecs  DIISMaxEq       ....     5
   Bias factor          DIISBfac        ....   1.050
   Max. coefficient     DIISMaxC        ....  10.000
 Newton-Raphson         CNVNR           .... off
 SOSCF                  CNVSOSCF        .... on
   Start iteration      SOSCFMaxIt      ....   150
   Startup grad/error   SOSCFStart      ....  0.003300
 Level Shifting         CNVShift        .... on
   Level shift para.    LevelShift      ....    0.2500
   Turn off err/grad.   ShiftErr        ....    0.0010
 Zerner damping         CNVZerner       .... off
 Static damping         CNVDamp         .... on
   Fraction old density DampFac         ....    0.7000
   Max. Damping (<1)    DampMax         ....    0.9800
   Min. Damping (>=0)   DampMin         ....    0.0000
   Turn off err/grad.   DampErr         ....    0.1000
 Fernandez-Rico         CNVRico         .... off

SCF Procedure:
 Maximum # iterations   MaxIter         ....   125
 SCF integral mode      SCFMode         .... Direct
   Integral package                     .... LIBINT
 Reset frequency        DirectResetFreq ....    20
 Integral Threshold     Thresh          ....  1.000e-10 Eh
 Primitive CutOff       TCut            ....  1.000e-11 Eh

Convergence Tolerance:
 Convergence Check Mode ConvCheckMode   .... Total+1el-Energy
 Convergence forced     ConvForced      .... 0
 Energy Change          TolE            ....  1.000e-06 Eh
 1-El. energy change                    ....  1.000e-03 Eh
 Orbital Gradient       TolG            ....  5.000e-05
 Orbital Rotation angle TolX            ....  5.000e-05
 DIIS Error             TolErr          ....  1.000e-06


Diagonalization of the overlap matrix:
Smallest eigenvalue                        ... 2.171e-04
Time for diagonalization                   ...    0.002 sec
Threshold for overlap eigenvalues          ... 1.000e-08
Number of eigenvalues below threshold      ... 0
Time for construction of square roots      ...    0.084 sec
Total time needed                          ...    0.086 sec

-------------------
DFT GRID GENERATION
-------------------

General Integration Accuracy     IntAcc      ...  4.670
Radial Grid Type                 RadialGrid  ... Gauss-Chebyshev
Angular Grid (max. acc.)         AngularGrid ... Lebedev-302
Angular grid pruning method      GridPruning ... 3 (G Style)
Weight generation scheme         WeightScheme... Becke
Basis function cutoff            BFCut       ...    1.0000e-10
Integration weight cutoff        WCut        ...    1.0000e-14
Grids for H and He will be reduced by one unit

# of grid points (after initial pruning)     ...  12424 (   0.0 sec)
# of grid points (after weights+screening)   ...  12393 (   0.0 sec)
nearest neighbour list constructed           ...    0.0 sec
Grid point re-assignment to atoms done       ...    0.0 sec
Grid point division into batches done        ...    0.1 sec
Reduced shell lists constructed in    0.1 sec

Total number of grid points                  ...    12393
Total number of batches                      ...      195
Average number of points per batch           ...       63
Average number of grid points per atom       ...     6196
Average number of shells per batch           ...     7.75 (28.70%)
Average number of basis functions per batch  ...    20.00 (25.97%)
Average number of large shells per batch     ...     5.62 (72.58%)
Average number of large basis fcns per batch ...    15.38 (76.88%)
Maximum spatial batch extension              ...  16.88, 16.05, 11.99 au
Average spatial batch extension              ...   0.53,  0.52,  0.34 au

Time for grid setup =    1.566 sec

------------------------------
INITIAL GUESS: MODEL POTENTIAL
------------------------------
Loading Hartree-Fock densities                     ... done
Calculating cut-offs                               ... done
Setting up the integral package                    ... done
Initializing the effective Hamiltonian             ... done
Starting the Coulomb interaction                   ... done (   0.0 sec)
Reading the grid                                   ... done
Mapping shells                                     ... done
Starting the XC term evaluation                    ... done (   0.0 sec)
  promolecular density results
     # of electrons  =     13.999992337
     EX              =    -13.173551571
     EC              =     -0.445333524
     EX+EC           =    -13.618885095
Transforming the Hamiltonian                       ... done (   0.0 sec)
Diagonalizing the Hamiltonian                      ... done (   0.0 sec)
Back transforming the eigenvectors                 ... done (   0.0 sec)
Now organizing SCF variables                       ... done
                      ------------------
                      INITIAL GUESS DONE (   2.0 sec)
                      ------------------
--------------
SCF ITERATIONS
--------------
ITER       Energy         Delta-E        Max-DP      RMS-DP      [F,P]     Damp
               ***  Starting incremental Fock matrix formation  ***
  0   -113.3618419376   0.000000000000 0.03162390  0.00112664  0.1991691 0.7000
  1   -113.3786560275  -0.016814089834 0.01826197  0.00068227  0.0938111 0.7000
                               ***Turning on DIIS***
  2   -113.3848568311  -0.006200803590 0.02379346  0.00110026  0.0387868 0.0000
  3   -113.3963963665  -0.011539535487 0.01254722  0.00049445  0.0423868 0.0000
  4   -113.3979623204  -0.001565953904 0.00698338  0.00015541  0.0089065 0.0000
                      *** Initiating the SOSCF procedure ***
                           *** Shutting down DIIS ***
                      *** Re-Reading the Fockian *** 
                      *** Removing any level shift *** 
ITER      Energy       Delta-E        Grad      Rot      Max-DP    RMS-DP
  5   -113.39804454  -0.0000822240  0.000297  0.000297  0.000802  0.000025
               *** Restarting incremental Fock matrix formation ***
  6   -113.39804615  -0.0000016027  0.000096  0.000082  0.000238  0.000010
  7   -113.39804623  -0.0000000850  0.000078  0.000053  0.000119  0.000006
                 **** Energy Check signals convergence ****
              ***Rediagonalizing the Fockian in SOSCF/NRSCF***

               *****************************************************
               *                     SUCCESS                       *
               *           SCF CONVERGED AFTER   8 CYCLES          *
               *****************************************************


Setting up the DFT-NL grid :

General Integration Accuracy     IntAcc      ...  4.340
Radial Grid Type                 RadialGrid  ... Gauss-Chebyshev
Angular Grid (max. acc.)         AngularGrid ... Lebedev-110
Angular grid pruning method      GridPruning ... 3 (G Style)
Weight generation scheme         WeightScheme... Becke
Basis function cutoff            BFCut       ...    1.0000e-10
Integration weight cutoff        WCut        ...    1.0000e-14
Grids for H and He will be reduced by one unit

# of grid points (after initial pruning)     ...   3372 (   0.0 sec)
# of grid points (after weights+screening)   ...   3345 (   0.0 sec)
nearest neighbour list constructed           ...    0.0 sec
Grid point re-assignment to atoms done       ...    0.0 sec
Grid point division into batches done        ...    0.0 sec
Reduced shell lists constructed in    0.0 sec

Total number of grid points                  ...     3345
Total number of batches                      ...       54
Average number of points per batch           ...       61
Average number of grid points per atom       ...     1672
Average number of shells per batch           ...    12.00 (44.44%)
Average number of basis functions per batch  ...    34.67 (45.02%)
Average number of large shells per batch     ...    10.00 (83.33%)
Average number of large basis fcns per batch ...    27.33 (78.85%)
Maximum spatial batch extension              ...  15.59, 22.48, 14.11 au
Average spatial batch extension              ...   0.58,  0.77,  0.52 au

Final grid set up in    1.4 sec

-------------------------------------------------------------------------------
                         DFT-NL dispersion correction                          
-------------------------------------------------------------------------------

SC Energy -113.398046270 
NL    Energy 0.059121734 
SC+NL Energy -113.338924536 
NL done in    2.4 sec
-------------------------------------------------------------------------------

----------------
TOTAL SCF ENERGY
----------------

Total Energy       :         -113.33892454 Eh           -3084.10893 eV

Components:
Nuclear Repulsion  :           22.48608458 Eh             611.87747 eV
Electronic Energy  :         -135.82500911 Eh           -3695.98640 eV
One Electron Energy:         -198.24630532 Eh           -5394.55622 eV
Two Electron Energy:           62.42129621 Eh            1698.56982 eV

Virial components:
Potential Energy   :         -226.38436467 Eh           -6160.23174 eV
Kinetic Energy     :          113.04544014 Eh            3076.12281 eV
Virial Ratio       :            2.00259616


DFT components:
N(Alpha)           :        6.999997652694 electrons
N(Beta)            :        6.999997652694 electrons
N(Total)           :       13.999995305387 electrons
E(X)               :       -9.570184787555 Eh       
E(C)               :       -0.481422222603 Eh       
NL Energy, E(C,NL) :        0.059121734420 Eh       
E(XC)              :       -9.992485275738 Eh       
DFET-embed. en.    :        0.000000000000 Eh       

---------------
SCF CONVERGENCE
---------------

  Last Energy change         ...   -3.7944e-08  Tolerance :   1.0000e-06
  Last MAX-Density change    ...    5.0419e-05  Tolerance :   1.0000e-05
  Last RMS-Density change    ...    2.4638e-06  Tolerance :   1.0000e-06
  Last Orbital Gradient      ...    2.2371e-05  Tolerance :   5.0000e-05
  Last Orbital Rotation      ...    1.8070e-05  Tolerance :   5.0000e-05

             **** THE GBW FILE WAS UPDATED (CO.gbw) ****
             **** DENSITY FILE WAS UPDATED (CO.scfp) ****
             **** ENERGY FILE WAS UPDATED (CO.en.tmp) ****
             **** THE GBW FILE WAS UPDATED (CO.gbw) ****
             **** DENSITY FILE WAS UPDATED (CO.scfp) ****
----------------
ORBITAL ENERGIES
----------------

  NO   OCC          E(Eh)            E(eV) 
   0   2.0000     -19.443244      -529.0776 
   1   2.0000     -10.466911      -284.8191 
   2   2.0000      -1.298145       -35.3243 
   3   2.0000      -0.697545       -18.9812 
   4   2.0000      -0.589163       -16.0319 
   5   2.0000      -0.589163       -16.0319 
   6   2.0000      -0.491288       -13.3686 
   7   0.0000       0.049427         1.3450 
   8   0.0000       0.054326         1.4783 
   9   0.0000       0.054326         1.4783 
  10   0.0000       0.088698         2.4136 
  11   0.0000       0.090434         2.4608 
  12   0.0000       0.090434         2.4608 
  13   0.0000       0.154445         4.2027 
  14   0.0000       0.237796         6.4707 
  15   0.0000       0.237796         6.4708 
  16   0.0000       0.289467         7.8768 
  17   0.0000       0.289467         7.8768 
  18   0.0000       0.308312         8.3896 
  19   0.0000       0.375492        10.2177 
  20   0.0000       0.375492        10.2177 
  21   0.0000       0.404586        11.0094 
  22   0.0000       0.422188        11.4883 
  23   0.0000       0.499453        13.5908 
  24   0.0000       0.502429        13.6718 
  25   0.0000       0.502429        13.6718 
  26   0.0000       0.534791        14.5524 
  27   0.0000       0.534791        14.5524 
  28   0.0000       0.803480        21.8638 
  29   0.0000       0.846649        23.0385 
  30   0.0000       0.880090        23.9485 
  31   0.0000       0.880090        23.9485 
  32   0.0000       0.901860        24.5409 
  33   0.0000       0.901861        24.5409 
  34   0.0000       1.048431        28.5292 
  35   0.0000       1.084965        29.5234 
  36   0.0000       1.084965        29.5234 
  37   0.0000       1.342163        36.5221 
  38   0.0000       1.550794        42.1993 
  39   0.0000       1.644798        44.7572 
  40   0.0000       1.644798        44.7572 
  41   0.0000       1.780856        48.4596 
  42   0.0000       1.780857        48.4596 
  43   0.0000       1.915284        52.1175 
  44   0.0000       2.010618        54.7117 
  45   0.0000       2.010618        54.7117 
  46   0.0000       2.389827        65.0305 
  47   0.0000       2.711658        73.7880 
  48   0.0000       2.711658        73.7880 
  49   0.0000       2.874005        78.2057 
  50   0.0000       2.874005        78.2057 
  51   0.0000       2.914104        79.2968 
  52   0.0000       2.914105        79.2968 
  53   0.0000       3.116001        84.7907 
  54   0.0000       3.116003        84.7908 
  55   0.0000       3.138786        85.4107 
  56   0.0000       3.235547        88.0437 
  57   0.0000       3.235547        88.0437 
  58   0.0000       3.249049        88.4111 
  59   0.0000       3.734390       101.6179 
  60   0.0000       3.734390       101.6179 
  61   0.0000       4.207389       114.4889 
  62   0.0000       4.364206       118.7561 
  63   0.0000       5.182043       141.0105 
  64   0.0000       5.182043       141.0105 
  65   0.0000       5.598701       152.3484 
  66   0.0000       5.598703       152.3484 
  67   0.0000       6.314297       171.8208 
  68   0.0000       6.314297       171.8208 
  69   0.0000       6.463518       175.8813 
  70   0.0000       6.463523       175.8814 
  71   0.0000       6.625608       180.2920 
  72   0.0000       6.805850       185.1966 
  73   0.0000       6.805850       185.1966 
  74   0.0000       7.235951       196.9002 
  75   0.0000      22.370379       608.7290 
  76   0.0000      44.180994      1202.2260 

                    ********************************
                    * MULLIKEN POPULATION ANALYSIS *
                    ********************************

-----------------------
MULLIKEN ATOMIC CHARGES
-----------------------
   0 O :   -0.117969
   1 C :    0.117969
Sum of atomic charges:   -0.0000000

--------------------------------
MULLIKEN REDUCED ORBITAL CHARGES
--------------------------------
  0 O s       :     3.871931  s :     3.871931
      pz      :     1.322204  p :     4.207207
      px      :     1.442501
      py      :     1.442501
      dz2     :     0.006255  d :     0.036812
      dxz     :     0.015279
      dyz     :     0.015279
      dx2y2   :     0.000000
      dxy     :    -0.000000
      f0      :     0.000485  f :     0.002020
      f+1     :     0.000767
      f-1     :     0.000767
      f+2     :    -0.000000
      f-2     :    -0.000000
      f+3     :     0.000000
      f-3     :     0.000000
  1 C s       :     3.807056  s :     3.807056
      pz      :     0.965233  p :     1.960476
      px      :     0.497622
      py      :     0.497622
      dz2     :     0.023247  d :     0.101656
      dxz     :     0.039204
      dyz     :     0.039204
      dx2y2   :     0.000000
      dxy     :     0.000000
      f0      :     0.003589  f :     0.012842
      f+1     :     0.004626
      f-1     :     0.004626
      f+2     :     0.000000
      f-2     :     0.000000
      f+3     :     0.000000
      f-3     :     0.000000


                     *******************************
                     * LOEWDIN POPULATION ANALYSIS *
                     *******************************

----------------------
LOEWDIN ATOMIC CHARGES
----------------------
   0 O :    0.013714
   1 C :   -0.013714

-------------------------------
LOEWDIN REDUCED ORBITAL CHARGES
-------------------------------
  0 O s       :     3.475764  s :     3.475764
      pz      :     1.687299  p :     4.323764
      px      :     1.318232
      py      :     1.318232
      dz2     :     0.136383  d :     0.180856
      dxz     :     0.022236
      dyz     :     0.022236
      dx2y2   :     0.000000
      dxy     :     0.000000
      f0      :     0.003650  f :     0.005903
      f+1     :     0.001126
      f-1     :     0.001126
      f+2     :     0.000000
      f-2     :     0.000000
      f+3     :     0.000000
      f-3     :     0.000000
  1 C s       :     3.304890  s :     3.304890
      pz      :     1.181684  p :     2.231756
      px      :     0.525036
      py      :     0.525036
      dz2     :     0.183854  d :     0.390262
      dxz     :     0.103204
      dyz     :     0.103204
      dx2y2   :     0.000000
      dxy     :     0.000000
      f0      :     0.026476  f :     0.086806
      f+1     :     0.030165
      f-1     :     0.030165
      f+2     :     0.000000
      f-2     :     0.000000
      f+3     :     0.000000
      f-3     :     0.000000


                      *****************************
                      * MAYER POPULATION ANALYSIS *
                      *****************************

  NA   - Mulliken gross atomic population
  ZA   - Total nuclear charge
  QA   - Mulliken gross atomic charge
  VA   - Mayer's total valence
  BVA  - Mayer's bonded valence
  FA   - Mayer's free valence

  ATOM       NA         ZA         QA         VA         BVA        FA
  0 O      8.1180     8.0000    -0.1180     2.3234     2.3234    -0.0000
  1 C      5.8820     6.0000     0.1180     2.3234     2.3234    -0.0000

  Mayer bond orders larger than 0.100000
B(  0-O ,  1-C ) :   2.3234 

-------
TIMINGS
-------

Total SCF time: 0 days 0 hours 1 min 10 sec 

Total time                  ....      70.142 sec
Sum of individual times     ....      66.940 sec  ( 95.4%)

Fock matrix formation       ....      62.822 sec  ( 89.6%)
  XC integration            ....      62.981 sec  (100.3% of F)
    Basis function eval.    ....       0.009 sec  (  0.0% of XC)
    Density eval.           ....       0.013 sec  (  0.0% of XC)
    XC-Functional eval.     ....       0.014 sec  (  0.0% of XC)
    XC-Potential eval.      ....       0.020 sec  (  0.0% of XC)
Diagonalization             ....       0.313 sec  (  0.4%)
Density matrix formation    ....       0.004 sec  (  0.0%)
Population analysis         ....       0.278 sec  (  0.4%)
Initial guess               ....       0.451 sec  (  0.6%)
Orbital Transformation      ....       0.000 sec  (  0.0%)
Orbital Orthonormalization  ....       0.000 sec  (  0.0%)
DIIS solution               ....       0.018 sec  (  0.0%)
SOSCF solution              ....       0.074 sec  (  0.1%)
Grid generation             ....       2.978 sec  (  4.2%)

-------------------------   --------------------
FINAL SINGLE POINT ENERGY      -113.338924535690
-------------------------   --------------------


----------------------------------------------------------------------------
                           ORCA NUMERICAL GRADIENT
                              (28-process run)
----------------------------------------------------------------------------

I state                        ... 1
J state                        ... 0
Number of atoms                ... 2
Derivative's order of accuracy ... 2
Central differences            ... used
Number of displacements        ... 12
Numerical increment            ... 5.000e-03 bohr
Translation invariance         ... used

The output will be reduced. Please look at the following files:
SCF program output             ... >CO.lastscf
Integral program output        ... >CO.lastint
Gradient program output        ... >CO.lastgrad


     Note:   There are more processes than displacements to do
     ===>:   Reducing number of processes to   3

             <<<Displacing   2/coordinate 2 (+)>>>
             <<<Displacing   2/coordinate 1 (+)>>>
             <<<Displacing   2/coordinate 3 (+)>>>
             <<<Displacing   2/coordinate 2 (-)>>>
             <<<Displacing   2/coordinate 1 (-)>>>
             <<<Displacing   2/coordinate 3 (-)>>>

------------------------------
CARTESIAN GRADIENT (NUMERICAL)
-------------------------------
   1   O   :    0.000000404   -0.000000182   -0.012763307
   2   C   :   -0.000000404    0.000000182    0.012763307

Norm of the cartesian gradient     ...    0.018050042
RMS gradient                       ...    0.007368899
MAX gradient                       ...    0.012763307

-------
TIMINGS
-------

Total numerical gradient time      ...       19.946 sec


                            ***************************************
                            *     ORCA property calculations      *
                            ***************************************

                                    ---------------------
                                    Active property flags
                                    ---------------------
   (+) Dipole Moment


------------------------------------------------------------------------------
                       ORCA ELECTRIC PROPERTIES CALCULATION
------------------------------------------------------------------------------

Dipole Moment Calculation                       ... on
Quadrupole Moment Calculation                   ... off
Polarizability Calculation                      ... off
GBWName                                         ... CO.gbw
Electron density file                           ... CO.scfp
The origin for moment calculation is the CENTER OF MASS  = ( 0.000000,  0.000000  0.915363)

-------------
DIPOLE MOMENT
-------------
                                X             Y             Z
Electronic contribution:      0.00000      -0.00000      -0.01408
Nuclear contribution   :      0.00000       0.00000      -0.00716
                        -----------------------------------------
Total Dipole Moment    :      0.00000      -0.00000      -0.02124
                        -----------------------------------------
Magnitude (a.u.)       :      0.02124
Magnitude (Debye)      :      0.05400



--------------------
Rotational spectrum 
--------------------
 
Rotational constants in cm-1:     0.000000     1.925666     1.925666 
Rotational constants in MHz :     0.000000 57730.012385 57730.012385 

 Dipole components along the rotational axes: 
x,y,z [a.u.] :    -0.021245    -0.000000     0.000000 
x,y,z [Debye]:    -0.054000    -0.000000     0.000000 

 

Timings for individual modules:

Sum of individual times         ...       94.560 sec (=   1.576 min)
GTO integral calculation        ...        3.741 sec (=   0.062 min)   4.0 %
SCF iterations                  ...       70.874 sec (=   1.181 min)  75.0 %
SCF Gradient evaluation         ...       19.946 sec (=   0.332 min)  21.1 %
                             ****ORCA TERMINATED NORMALLY****
TOTAL RUN TIME: 0 days 0 hours 3 minutes 23 seconds 930 msec
