
                                 *****************
                                 * O   R   C   A *
                                 *****************

           --- An Ab Initio, DFT and Semiempirical electronic structure package ---

                  #######################################################
                  #                        -***-                        #
                  #          Department of theory and spectroscopy      #
                  #               Directorship: Frank Neese             #
                  #        Max Planck Institute fuer Kohlenforschung    #
                  #                Kaiser Wilhelm Platz 1               #
                  #                 D-45470 Muelheim/Ruhr               #
                  #                      Germany                        #
                  #                                                     #
                  #                  All rights reserved                #
                  #                        -***-                        #
                  #######################################################


                         Program Version 4.2.0 -  RELEASE  -


 With contributions from (in alphabetic order):
   Daniel Aravena         : Magnetic Suceptibility
   Michael Atanasov       : Ab Initio Ligand Field Theory (pilot matlab implementation)
   Alexander A. Auer      : GIAO ZORA, VPT2
   Ute Becker             : Parallelization
   Giovanni Bistoni       : ED, misc. LED, open-shell LED, HFLED
   Martin Brehm           : Molecular dynamics
   Dmytro Bykov           : SCF Hessian
   Vijay G. Chilkuri      : MRCI spin determinant printing, contributions to CSF-ICE
   Dipayan Datta          : RHF DLPNO-CCSD density
   Achintya Kumar Dutta   : EOM-CC, STEOM-CC
   Dmitry Ganyushin       : Spin-Orbit,Spin-Spin,Magnetic field MRCI
   Miquel Garcia          : C-PCM Hessian, Gaussian charge scheme
   Yang Guo               : DLPNO-NEVPT2, CIM, IAO-localization
   Andreas Hansen         : Spin unrestricted coupled pair/coupled cluster methods
   Benjamin Helmich-Paris : CASSCF linear response (MC-RPA)
   Lee Huntington         : MR-EOM, pCC
   Robert Izsak           : Overlap fitted RIJCOSX, COSX-SCS-MP3, EOM
   Christian Kollmar      : KDIIS, OOCD, Brueckner-CCSD(T), CCSD density
   Simone Kossmann        : Meta GGA functionals, TD-DFT gradient, OOMP2, MP2 Hessian
   Martin Krupicka        : AUTO-CI
   Lucas Lang             : DCDCAS
   Dagmar Lenk            : GEPOL surface, SMD
   Dimitrios Liakos       : Extrapolation schemes; Compound Job, initial MDCI parallelization
   Dimitrios Manganas     : Further ROCIS development; embedding schemes
   Dimitrios Pantazis     : SARC Basis sets
   Taras Petrenko         : DFT Hessian,TD-DFT gradient, ASA, ECA, R-Raman, ABS, FL, XAS/XES, NRVS
   Peter Pinski           : DLPNO-MP2, DLPNO-MP2 Gradient
   Christoph Reimann      : Effective Core Potentials
   Marius Retegan         : Local ZFS, SOC
   Christoph Riplinger    : Optimizer, TS searches, QM/MM, DLPNO-CCSD(T), (RO)-DLPNO pert. Triples
   Tobias Risthaus        : Range-separated hybrids, TD-DFT gradient, RPA, STAB
   Michael Roemelt        : Original ROCIS implementation
   Masaaki Saitow         : Open-shell DLPNO-CCSD energy and density
   Barbara Sandhoefer     : DKH picture change effects
   Avijit Sen             : IP-ROCIS
   Kantharuban Sivalingam : CASSCF convergence, NEVPT2, FIC-MRCI
   Bernardo de Souza      : ESD, SOC TD-DFT
   Georgi Stoychev        : AutoAux, RI-MP2 NMR
   Willem Van den Heuvel  : Paramagnetic NMR
   Boris Wezisla          : Elementary symmetry handling
   Frank Wennmohs         : Technical directorship


 We gratefully acknowledge several colleagues who have allowed us to
 interface, adapt or use parts of their codes:
   Stefan Grimme, W. Hujo, H. Kruse,             : VdW corrections, initial TS optimization,
                  C. Bannwarth                     DFT functionals, gCP, sTDA/sTD-DF
   Ed Valeev, F. Pavosevic, A. Kumar             : LibInt (2-el integral package), F12 methods
   Garnet Chan, S. Sharma, J. Yang, R. Olivares  : DMRG
   Ulf Ekstrom                                   : XCFun DFT Library
   Mihaly Kallay                                 : mrcc  (arbitrary order and MRCC methods)
   Andreas Klamt, Michael Diedenhofen            : otool_cosmo (COSMO solvation model)
   Jiri Pittner, Ondrej Demel                    : Mk-CCSD
   Frank Weinhold                                : gennbo (NPA and NBO analysis)
   Christopher J. Cramer and Donald G. Truhlar   : smd solvation model
   Lars Goerigk                                  : TD-DFT with DH, B97 family of functionals
   V. Asgeirsson, H. Jonsson                     : NEB implementation
   FAccTs GmbH                                   : IRC, NEB, NEB-TS, Multilevel, MM, QM/MM, CI optimization
   S Lehtola, MJT Oliveira, MAL Marques          : LibXC Library


 Your calculation uses the libint2 library for the computation of 2-el integrals
 For citations please refer to: http://libint.valeyev.net

 Your ORCA version has been built with support for libXC version: 4.2.3
 For citations please refer to: https://tddft.org/programs/libxc/

 This ORCA versions uses:
   CBLAS   interface :  Fast vector & matrix operations
   LAPACKE interface :  Fast linear algebra routines
   SCALAPACK package :  Parallel linear algebra routines


Your calculation utilizes the DFT-NL dispersion correction.
Cite in your paper:
Vydrov, O. A.; Van Voorhis, T. J. Chem. Phys. 2010, 133, 244103
Hujo, W.; Grimme, S. J. Chem. Theory Comput. 2011, 7, 3866 
   

----- Orbital basis set information -----
Your calculation utilizes the basis: def2-TZVPPD
   F. Weigend and R. Ahlrichs, Phys. Chem. Chem. Phys. 7, 3297 (2005).
   D. Rappoport and F. Furche, J. Chem. Phys. 133 134105 (2010).

----- AuxJK basis set information -----
Your calculation utilizes the auxiliary basis: def2/JK
   H-Ba, Hf-Rn: F. Weigend, J. Comput. Chem. 29, 167 (2008).

================================================================================
                                        WARNINGS
                       Please study these warnings very carefully!
================================================================================

INFO   : Found keyword 'NumGrad' for Energy calculation
  ===> : Setting RunTyp to EnGrad

WARNING: Numerical Gradient with sloppy Convergence Criteria    
         Your results may be not reliable!                      
         Please choose at least TightSCF!                       

INFO   : the flag for use of LIBINT has been found!

================================================================================
                                       INPUT FILE
================================================================================
NAME = Cr2.in
|  1> #
|  2> # Cr2 wB97M-V/Def2-TZVPPD
|  3> #
|  4> ! wb97m-v def2-tzvppd def2/jk grid4 nofinalgrid numgrad
|  5> 
|  6> *xyz 0 1
|  7> Cr         0.00000        0.00000        0.00000
|  8> Cr         0.00000        0.00000        1.68000
|  9> *
| 10> 
| 11> %maxcore 5000
| 12> 
| 13> %pal
| 14> nprocs = 28
| 15> end
| 16> 
| 17> 
| 18>                          ****END OF INPUT****
================================================================================

                     *******************************
                     * Energy+Gradient Calculation *
                     *******************************

---------------------------------
CARTESIAN COORDINATES (ANGSTROEM)
---------------------------------
  Cr     0.000000    0.000000    0.000000
  Cr     0.000000    0.000000    1.680000

----------------------------
CARTESIAN COORDINATES (A.U.)
----------------------------
  NO LB      ZA    FRAG     MASS         X           Y           Z
   0 Cr   24.0000    0    52.000    0.000000    0.000000    0.000000
   1 Cr   24.0000    0    52.000    0.000000    0.000000    3.174740

--------------------------------
INTERNAL COORDINATES (ANGSTROEM)
--------------------------------
 Cr     0   0   0     0.000000000000     0.00000000     0.00000000
 Cr     1   0   0     1.680000000000     0.00000000     0.00000000

---------------------------
INTERNAL COORDINATES (A.U.)
---------------------------
 Cr     0   0   0     0.000000000000     0.00000000     0.00000000
 Cr     1   0   0     3.174739904988     0.00000000     0.00000000

---------------------
BASIS SET INFORMATION
---------------------
There are 1 groups of distinct atoms

 Group   1 Type Cr  : 17s13p7d2f1g contracted to 6s6p4d2f1g pattern {842111/631111/4111/11/1}

Atom   0Cr   basis set group =>   1
Atom   1Cr   basis set group =>   1
----------------------------------
AUXILIARY/JK BASIS SET INFORMATION
----------------------------------
There are 1 groups of distinct atoms

 Group   1 Type Cr  : 19s14p12d10f7g3h1i contracted to 16s13p11d9f5g3h1i pattern {4111111111111111/2111111111111/21111111111/211111111/31111/111/1}

Atom   0Cr   basis set group =>   1
Atom   1Cr   basis set group =>   1


           ************************************************************
           *        Program running with 28 parallel MPI-processes    *
           *              working on a common directory               *
           ************************************************************
------------------------------------------------------------------------------
                           ORCA GTO INTEGRAL CALCULATION
------------------------------------------------------------------------------

                         BASIS SET STATISTICS AND STARTUP INFO

 # of primitive gaussian shells          ...   80
 # of primitive gaussian functions       ...  228
 # of contracted shells                  ...   38
 # of contracted basis functions         ...  134
 Highest angular momentum                ...    4
 Maximum contraction depth               ...    8
 Integral package used                   ... LIBINT
 Integral threshhold            Thresh   ...  1.000e-10
 Primitive cut-off              TCut     ...  1.000e-11


------------------------------ INTEGRAL EVALUATION ----------------------------


 * One electron integrals 
 Pre-screening matrix                    ... done
 Shell pair data                         ... done (   0.000 sec)



           ************************************************************
           *        Program running with 28 parallel MPI-processes    *
           *              working on a common directory               *
           ************************************************************
-------------------------------------------------------------------------------
                                 ORCA SCF
-------------------------------------------------------------------------------

------------
SCF SETTINGS
------------
Hamiltonian:
 Density Functional     Method          .... DFT(GTOs)
 Exchange Functional    Exchange        .... WB97M-V
 Correlation Functional Correlation     .... WB97M-V
 Gradients option       PostSCFGGA      .... off
 Hybrid DFT is turned on
   Fraction HF Exchange ScalHFX         ....  0.150000
   Scaling of DF-GGA-X  ScalDFX         ....  0.000000
   Scaling of DF-GGA-C  ScalDFC         ....  1.000000
   Scaling of DF-LDA-C  ScalLDAC        ....  1.000000
   Perturbative correction              ....  0.000000
   Density functional embedding theory  .... OFF
 Long-range corrected/Screened/Range-Separated Hybrid DFT is turned on
   Amount of maximum screened exact exchange              ....  0.850000
   Range separation parameter mu (erf(mu*r12)/r12)        ....  0.300000
   NL short-range parameter             ....  6.000000
   NL long-range parameter              ....  0.010000


General Settings:
 Integral files         IntName         .... Cr2
 Hartree-Fock type      HFTyp           .... RHF
 Total Charge           Charge          ....    0
 Multiplicity           Mult            ....    1
 Number of Electrons    NEL             ....   48
 Basis Dimension        Dim             ....  134
 Nuclear Repulsion      ENuc            ....    181.4321857029 Eh

Convergence Acceleration:
 DIIS                   CNVDIIS         .... on
   Start iteration      DIISMaxIt       ....    12
   Startup error        DIISStart       ....  0.200000
   # of expansion vecs  DIISMaxEq       ....     5
   Bias factor          DIISBfac        ....   1.050
   Max. coefficient     DIISMaxC        ....  10.000
 Newton-Raphson         CNVNR           .... off
 SOSCF                  CNVSOSCF        .... off
 Level Shifting         CNVShift        .... on
   Level shift para.    LevelShift      ....    0.2500
   Turn off err/grad.   ShiftErr        ....    0.0010
 Zerner damping         CNVZerner       .... off
 Static damping         CNVDamp         .... on
   Fraction old density DampFac         ....    0.7000
   Max. Damping (<1)    DampMax         ....    0.9800
   Min. Damping (>=0)   DampMin         ....    0.0000
   Turn off err/grad.   DampErr         ....    0.1000
 Fernandez-Rico         CNVRico         .... off

SCF Procedure:
 Maximum # iterations   MaxIter         ....   125
 SCF integral mode      SCFMode         .... Direct
   Integral package                     .... LIBINT
 Reset frequency        DirectResetFreq ....    20
 Integral Threshold     Thresh          ....  1.000e-10 Eh
 Primitive CutOff       TCut            ....  1.000e-11 Eh

Convergence Tolerance:
 Convergence Check Mode ConvCheckMode   .... Total+1el-Energy
 Convergence forced     ConvForced      .... 0
 Energy Change          TolE            ....  1.000e-06 Eh
 1-El. energy change                    ....  1.000e-03 Eh
 DIIS Error             TolErr          ....  1.000e-06


Diagonalization of the overlap matrix:
Smallest eigenvalue                        ... 6.049e-05
Time for diagonalization                   ...    0.003 sec
Threshold for overlap eigenvalues          ... 1.000e-08
Number of eigenvalues below threshold      ... 0
Time for construction of square roots      ...    0.146 sec
Total time needed                          ...    0.149 sec

-------------------
DFT GRID GENERATION
-------------------

General Integration Accuracy     IntAcc      ...  4.670
Radial Grid Type                 RadialGrid  ... Gauss-Chebyshev
Angular Grid (max. acc.)         AngularGrid ... Lebedev-302
Angular grid pruning method      GridPruning ... 3 (G Style)
Weight generation scheme         WeightScheme... Becke
Basis function cutoff            BFCut       ...    1.0000e-10
Integration weight cutoff        WCut        ...    1.0000e-14
Grids for H and He will be reduced by one unit

# of grid points (after initial pruning)     ...  19328 (   0.0 sec)
# of grid points (after weights+screening)   ...  19284 (   0.0 sec)
nearest neighbour list constructed           ...    0.0 sec
Grid point re-assignment to atoms done       ...    0.0 sec
Grid point division into batches done        ...    0.2 sec
Reduced shell lists constructed in    0.2 sec

Total number of grid points                  ...    19284
Total number of batches                      ...      302
Average number of points per batch           ...       63
Average number of grid points per atom       ...     9642
Average number of shells per batch           ...     7.83 (20.61%)
Average number of basis functions per batch  ...    22.67 (16.92%)
Average number of large shells per batch     ...     6.67 (85.11%)
Average number of large basis fcns per batch ...    20.00 (88.24%)
Maximum spatial batch extension              ...  24.19, 24.19, 15.73 au
Average spatial batch extension              ...   0.70,  0.70,  0.51 au

Time for grid setup =    2.406 sec

------------------------------
INITIAL GUESS: MODEL POTENTIAL
------------------------------
Loading Hartree-Fock densities                     ... done
Calculating cut-offs                               ... done
Setting up the integral package                    ... done
Initializing the effective Hamiltonian             ... done
Starting the Coulomb interaction                   ... done (   0.0 sec)
Reading the grid                                   ... done
Mapping shells                                     ... done
Starting the XC term evaluation                    ... done (   0.0 sec)
  promolecular density results
     # of electrons  =     48.000013008
     EX              =    -94.562620149
     EC              =     -2.057928848
     EX+EC           =    -96.620548997
Transforming the Hamiltonian                       ... done (   0.0 sec)
Diagonalizing the Hamiltonian                      ... done (   0.0 sec)
Back transforming the eigenvectors                 ... done (   0.0 sec)
Now organizing SCF variables                       ... done
                      ------------------
                      INITIAL GUESS DONE (   2.9 sec)
                      ------------------
--------------
SCF ITERATIONS
--------------
ITER       Energy         Delta-E        Max-DP      RMS-DP      [F,P]     Damp
               ***  Starting incremental Fock matrix formation  ***
  0  -2088.5926786410   0.000000000000 0.10624349  0.00236355  0.1312788 0.7000
  1  -2088.6652600178  -0.072581376808 0.08997143  0.00183625  0.0764911 0.7000
                               ***Turning on DIIS***
  2  -2088.6985808102  -0.033320792441 0.20156404  0.00388443  0.0489035 0.0000
  3  -2088.7567772393  -0.058196429073 0.02032974  0.00083388  0.0365134 0.0000
  4  -2088.7657707541  -0.008993514843 0.00869643  0.00037637  0.0074210 0.0000
  5  -2088.7662386674  -0.000467913258 0.00355830  0.00018038  0.0038124 0.0000
  6  -2088.7664260961  -0.000187428708 0.00296046  0.00012204  0.0020911 0.0000
  7  -2088.7664868663  -0.000060770199 0.00207867  0.00006945  0.0010602 0.0000
  8  -2088.7665056627  -0.000018796416 0.00189582  0.00006744  0.0005334 0.0000
  9  -2088.7665120893  -0.000006426530 0.00039537  0.00001048  0.0000658 0.0000
 10  -2088.7665122174  -0.000000128185 0.00008161  0.00000249  0.0000434 0.0000
                 **** Energy Check signals convergence ****

               *****************************************************
               *                     SUCCESS                       *
               *           SCF CONVERGED AFTER  11 CYCLES          *
               *****************************************************


Setting up the DFT-NL grid :

General Integration Accuracy     IntAcc      ...  4.340
Radial Grid Type                 RadialGrid  ... Gauss-Chebyshev
Angular Grid (max. acc.)         AngularGrid ... Lebedev-110
Angular grid pruning method      GridPruning ... 3 (G Style)
Weight generation scheme         WeightScheme... Becke
Basis function cutoff            BFCut       ...    1.0000e-10
Integration weight cutoff        WCut        ...    1.0000e-14
Grids for H and He will be reduced by one unit

# of grid points (after initial pruning)     ...   5944 (   0.0 sec)
# of grid points (after weights+screening)   ...   5912 (   0.0 sec)
nearest neighbour list constructed           ...    0.0 sec
Grid point re-assignment to atoms done       ...    0.0 sec
Grid point division into batches done        ...    0.0 sec
Reduced shell lists constructed in    0.0 sec

Total number of grid points                  ...     5912
Total number of batches                      ...       94
Average number of points per batch           ...       62
Average number of grid points per atom       ...     2956
Average number of shells per batch           ...    11.20 (29.47%)
Average number of basis functions per batch  ...    33.60 (25.07%)
Average number of large shells per batch     ...    11.20 (100.00%)
Average number of large basis fcns per batch ...    33.60 (100.00%)
Maximum spatial batch extension              ...  23.80, 28.73, 17.01 au
Average spatial batch extension              ...   0.81,  1.01,  0.72 au

Final grid set up in    1.7 sec

-------------------------------------------------------------------------------
                         DFT-NL dispersion correction                          
-------------------------------------------------------------------------------

SC Energy -2088.766512182 
NL    Energy 0.197514007 
SC+NL Energy -2088.568998175 
NL done in    1.0 sec
-------------------------------------------------------------------------------

----------------
TOTAL SCF ENERGY
----------------

Total Energy       :        -2088.56899817 Eh          -56832.85177 eV

Components:
Nuclear Repulsion  :          181.43218570 Eh            4937.02077 eV
Electronic Energy  :        -2270.00118388 Eh          -61769.87253 eV
One Electron Energy:        -3235.47348827 Eh          -88041.70957 eV
Two Electron Energy:          965.47230439 Eh           26271.83704 eV

Virial components:
Potential Energy   :        -4173.60311931 Eh         -113569.51464 eV
Kinetic Energy     :         2085.03412113 Eh           56736.66287 eV
Virial Ratio       :            2.00169536


DFT components:
N(Alpha)           :       24.000008308267 electrons
N(Beta)            :       24.000008308267 electrons
N(Total)           :       48.000016616535 electrons
E(X)               :      -73.998834001872 Eh       
E(C)               :       -2.471219808008 Eh       
NL Energy, E(C,NL) :        0.197514006652 Eh       
E(XC)              :      -76.272539803228 Eh       
DFET-embed. en.    :        0.000000000000 Eh       

---------------
SCF CONVERGENCE
---------------

  Last Energy change         ...    3.5800e-08  Tolerance :   1.0000e-06
  Last MAX-Density change    ...    4.1572e-05  Tolerance :   1.0000e-05
  Last RMS-Density change    ...    1.1669e-06  Tolerance :   1.0000e-06
  Last DIIS Error            ...    2.5576e-04  Tolerance :   1.0000e-06

             **** THE GBW FILE WAS UPDATED (Cr2.gbw) ****
             **** DENSITY FILE WAS UPDATED (Cr2.scfp) ****
             **** ENERGY FILE WAS UPDATED (Cr2.en.tmp) ****
             **** THE GBW FILE WAS UPDATED (Cr2.gbw) ****
             **** DENSITY FILE WAS UPDATED (Cr2.scfp) ****
----------------
ORBITAL ENERGIES
----------------

  NO   OCC          E(Eh)            E(eV) 
   0   2.0000    -216.208150     -5883.3229 
   1   2.0000    -216.208093     -5883.3213 
   2   2.0000     -24.930070      -678.3817 
   3   2.0000     -24.929986      -678.3794 
   4   2.0000     -21.141721      -575.2955 
   5   2.0000     -21.141601      -575.2922 
   6   2.0000     -21.139855      -575.2447 
   7   2.0000     -21.139855      -575.2447 
   8   2.0000     -21.139732      -575.2414 
   9   2.0000     -21.139732      -575.2414 
  10   2.0000      -3.039056       -82.6969 
  11   2.0000      -2.975949       -80.9797 
  12   2.0000      -2.039275       -55.4915 
  13   2.0000      -1.945988       -52.9530 
  14   2.0000      -1.945988       -52.9530 
  15   2.0000      -1.906358       -51.8746 
  16   2.0000      -1.906358       -51.8746 
  17   2.0000      -1.843152       -50.1547 
  18   2.0000      -0.359655        -9.7867 
  19   2.0000      -0.359655        -9.7867 
  20   2.0000      -0.348564        -9.4849 
  21   2.0000      -0.276486        -7.5236 
  22   2.0000      -0.276480        -7.5234 
  23   2.0000      -0.243967        -6.6387 
  24   0.0000      -0.023835        -0.6486 
  25   0.0000       0.005360         0.1458 
  26   0.0000       0.005360         0.1458 
  27   0.0000       0.034272         0.9326 
  28   0.0000       0.034285         0.9329 
  29   0.0000       0.034292         0.9331 
  30   0.0000       0.038530         1.0484 
  31   0.0000       0.038530         1.0484 
  32   0.0000       0.043951         1.1960 
  33   0.0000       0.080380         2.1873 
  34   0.0000       0.080380         2.1873 
  35   0.0000       0.090234         2.4554 
  36   0.0000       0.097922         2.6646 
  37   0.0000       0.097922         2.6646 
  38   0.0000       0.112634         3.0649 
  39   0.0000       0.135954         3.6995 
  40   0.0000       0.135955         3.6995 
  41   0.0000       0.151110         4.1119 
  42   0.0000       0.171833         4.6758 
  43   0.0000       0.172298         4.6885 
  44   0.0000       0.172298         4.6885 
  45   0.0000       0.177832         4.8390 
  46   0.0000       0.177832         4.8391 
  47   0.0000       0.179095         4.8734 
  48   0.0000       0.179095         4.8734 
  49   0.0000       0.188544         5.1306 
  50   0.0000       0.275023         7.4838 
  51   0.0000       0.275023         7.4838 
  52   0.0000       0.285694         7.7741 
  53   0.0000       0.424155        11.5419 
  54   0.0000       0.440508        11.9868 
  55   0.0000       0.440508        11.9868 
  56   0.0000       0.519637        14.1400 
  57   0.0000       0.554642        15.0926 
  58   0.0000       0.554643        15.0926 
  59   0.0000       0.568142        15.4599 
  60   0.0000       0.568142        15.4599 
  61   0.0000       0.627883        17.0856 
  62   0.0000       0.627883        17.0856 
  63   0.0000       0.633783        17.2461 
  64   0.0000       0.640815        17.4375 
  65   0.0000       0.640817        17.4375 
  66   0.0000       0.658859        17.9285 
  67   0.0000       0.734417        19.9845 
  68   0.0000       0.734417        19.9845 
  69   0.0000       0.839987        22.8572 
  70   0.0000       1.449002        39.4293 
  71   0.0000       1.449009        39.4296 
  72   0.0000       1.559835        42.4453 
  73   0.0000       1.559835        42.4453 
  74   0.0000       1.598734        43.5038 
  75   0.0000       1.598734        43.5038 
  76   0.0000       1.734744        47.2048 
  77   0.0000       1.734744        47.2048 
  78   0.0000       1.744635        47.4739 
  79   0.0000       1.756663        47.8012 
  80   0.0000       1.793770        48.8110 
  81   0.0000       1.956109        53.2284 
  82   0.0000       1.956109        53.2284 
  83   0.0000       2.017220        54.8914 
  84   0.0000       2.017224        54.8915 
  85   0.0000       2.020912        54.9918 
  86   0.0000       2.020912        54.9918 
  87   0.0000       2.058121        56.0043 
  88   0.0000       2.058121        56.0043 
  89   0.0000       2.104556        57.2679 
  90   0.0000       2.159228        58.7556 
  91   0.0000       2.159228        58.7556 
  92   0.0000       2.162951        58.8569 
  93   0.0000       2.162959        58.8571 
  94   0.0000       2.273732        61.8714 
  95   0.0000       2.284382        62.1612 
  96   0.0000       2.284393        62.1615 
  97   0.0000       2.548564        69.3500 
  98   0.0000       2.928025        79.6756 
  99   0.0000       3.005602        81.7866 
 100   0.0000       3.005602        81.7866 
 101   0.0000       4.239941       115.3746 
 102   0.0000       5.354829       145.7123 
 103   0.0000       5.354829       145.7123 
 104   0.0000       5.418337       147.4405 
 105   0.0000       5.445490       148.1793 
 106   0.0000       5.445492       148.1794 
 107   0.0000       5.643120       153.5571 
 108   0.0000       5.643120       153.5571 
 109   0.0000       5.732678       155.9941 
 110   0.0000       5.732845       155.9987 
 111   0.0000       5.749438       156.4502 
 112   0.0000       5.749606       156.4547 
 113   0.0000       5.820147       158.3743 
 114   0.0000       5.820147       158.3743 
 115   0.0000       6.068270       165.1260 
 116   0.0000       6.068270       165.1260 
 117   0.0000       6.340385       172.5306 
 118   0.0000       6.340385       172.5306 
 119   0.0000       6.348210       172.7436 
 120   0.0000       6.348227       172.7440 
 121   0.0000       6.349650       172.7828 
 122   0.0000       6.355697       172.9473 
 123   0.0000       6.355697       172.9473 
 124   0.0000       6.404958       174.2878 
 125   0.0000       6.404958       174.2878 
 126   0.0000       6.606152       179.7625 
 127   0.0000       6.606152       179.7625 
 128   0.0000       6.633348       180.5026 
 129   0.0000       6.633363       180.5030 
 130   0.0000       6.952866       189.1971 
 131   0.0000       6.994950       190.3423 
 132   0.0000       7.178458       195.3358 
 133   0.0000       7.178458       195.3358 

                    ********************************
                    * MULLIKEN POPULATION ANALYSIS *
                    ********************************

-----------------------
MULLIKEN ATOMIC CHARGES
-----------------------
   0 Cr:    0.000437
   1 Cr:   -0.000437
Sum of atomic charges:   -0.0000000

--------------------------------
MULLIKEN REDUCED ORBITAL CHARGES
--------------------------------
  0 Crs       :     7.023676  s :     7.023676
      pz      :     3.984794  p :    12.024517
      px      :     4.019862
      py      :     4.019862
      dz2     :     0.982948  d :     4.921716
      dxz     :     0.972843
      dyz     :     0.972843
      dx2y2   :     0.996541
      dxy     :     0.996541
      f0      :     0.007718  f :     0.028103
      f+1     :     0.006910
      f-1     :     0.006910
      f+2     :     0.003282
      f-2     :     0.003282
      f+3     :     0.000000
      f-3     :     0.000000
      g0      :     0.000693  g :     0.001551
      g+1     :     0.000331
      g-1     :     0.000331
      g+2     :     0.000098
      g-2     :     0.000098
      g+3     :     0.000000
      g-3     :     0.000000
      g+4     :     0.000000
      g-4     :     0.000000
  1 Crs       :     7.023889  s :     7.023889
      pz      :     3.984811  p :    12.024536
      px      :     4.019863
      py      :     4.019863
      dz2     :     0.983060  d :     4.922361
      dxz     :     0.972951
      dyz     :     0.972951
      dx2y2   :     0.996699
      dxy     :     0.996699
      f0      :     0.007718  f :     0.028100
      f+1     :     0.006910
      f-1     :     0.006910
      f+2     :     0.003282
      f-2     :     0.003281
      f+3     :     0.000000
      f-3     :     0.000000
      g0      :     0.000693  g :     0.001551
      g+1     :     0.000331
      g-1     :     0.000331
      g+2     :     0.000098
      g-2     :     0.000098
      g+3     :     0.000000
      g-3     :     0.000000
      g+4     :     0.000000
      g-4     :     0.000000


                     *******************************
                     * LOEWDIN POPULATION ANALYSIS *
                     *******************************

----------------------
LOEWDIN ATOMIC CHARGES
----------------------
   0 Cr:    0.000318
   1 Cr:   -0.000318

-------------------------------
LOEWDIN REDUCED ORBITAL CHARGES
-------------------------------
  0 Crs       :     6.767273  s :     6.767273
      pz      :     4.092048  p :    12.103664
      px      :     4.005808
      py      :     4.005808
      dz2     :     1.085501  d :     5.028626
      dxz     :     0.976501
      dyz     :     0.976501
      dx2y2   :     0.995061
      dxy     :     0.995061
      f0      :     0.052544  f :     0.095827
      f+1     :     0.016927
      f-1     :     0.016927
      f+2     :     0.004715
      f-2     :     0.004714
      f+3     :     0.000000
      f-3     :     0.000000
      g0      :     0.002570  g :     0.004292
      g+1     :     0.000715
      g-1     :     0.000715
      g+2     :     0.000147
      g-2     :     0.000147
      g+3     :     0.000000
      g-3     :     0.000000
      g+4     :     0.000000
      g-4     :     0.000000
  1 Crs       :     6.767301  s :     6.767301
      pz      :     4.092043  p :    12.103656
      px      :     4.005807
      py      :     4.005807
      dz2     :     1.085607  d :     5.029248
      dxz     :     0.976603
      dyz     :     0.976603
      dx2y2   :     0.995217
      dxy     :     0.995217
      f0      :     0.052544  f :     0.095821
      f+1     :     0.016925
      f-1     :     0.016925
      f+2     :     0.004714
      f-2     :     0.004714
      f+3     :     0.000000
      f-3     :     0.000000
      g0      :     0.002570  g :     0.004292
      g+1     :     0.000715
      g-1     :     0.000715
      g+2     :     0.000147
      g-2     :     0.000147
      g+3     :     0.000000
      g-3     :     0.000000
      g+4     :     0.000000
      g-4     :     0.000000


                      *****************************
                      * MAYER POPULATION ANALYSIS *
                      *****************************

  NA   - Mulliken gross atomic population
  ZA   - Total nuclear charge
  QA   - Mulliken gross atomic charge
  VA   - Mayer's total valence
  BVA  - Mayer's bonded valence
  FA   - Mayer's free valence

  ATOM       NA         ZA         QA         VA         BVA        FA
  0 Cr    23.9996    24.0000     0.0004     6.0405     6.0405    -0.0000
  1 Cr    24.0004    24.0000    -0.0004     6.0405     6.0405     0.0000

  Mayer bond orders larger than 0.100000
B(  0-Cr,  1-Cr) :   6.0405 

-------
TIMINGS
-------

Total SCF time: 0 days 0 hours 1 min 22 sec 

Total time                  ....      82.422 sec
Sum of individual times     ....      80.693 sec  ( 97.9%)

Fock matrix formation       ....      75.061 sec  ( 91.1%)
  XC integration            ....      68.699 sec  ( 91.5% of F)
    Basis function eval.    ....       0.031 sec  (  0.0% of XC)
    Density eval.           ....       0.049 sec  (  0.1% of XC)
    XC-Functional eval.     ....       0.024 sec  (  0.0% of XC)
    XC-Potential eval.      ....       0.103 sec  (  0.1% of XC)
Diagonalization             ....       0.790 sec  (  1.0%)
Density matrix formation    ....       0.006 sec  (  0.0%)
Population analysis         ....       0.145 sec  (  0.2%)
Initial guess               ....       0.492 sec  (  0.6%)
Orbital Transformation      ....       0.000 sec  (  0.0%)
Orbital Orthonormalization  ....       0.000 sec  (  0.0%)
DIIS solution               ....       0.115 sec  (  0.1%)
Grid generation             ....       4.084 sec  (  5.0%)

-------------------------   --------------------
FINAL SINGLE POINT ENERGY     -2088.568998174987
-------------------------   --------------------


----------------------------------------------------------------------------
                           ORCA NUMERICAL GRADIENT
                              (28-process run)
----------------------------------------------------------------------------

I state                        ... 1
J state                        ... 0
Number of atoms                ... 2
Derivative's order of accuracy ... 2
Central differences            ... used
Number of displacements        ... 12
Numerical increment            ... 5.000e-03 bohr
Translation invariance         ... used

The output will be reduced. Please look at the following files:
SCF program output             ... >Cr2.lastscf
Integral program output        ... >Cr2.lastint
Gradient program output        ... >Cr2.lastgrad


     Note:   There are more processes than displacements to do
     ===>:   Reducing number of processes to   3

             <<<Displacing   2/coordinate 2 (+)>>>
             <<<Displacing   2/coordinate 3 (+)>>>
             <<<Displacing   2/coordinate 1 (+)>>>
             <<<Displacing   2/coordinate 1 (-)>>>
             <<<Displacing   2/coordinate 2 (-)>>>
             <<<Displacing   2/coordinate 3 (-)>>>

------------------------------
CARTESIAN GRADIENT (NUMERICAL)
-------------------------------
   1   Cr  :   -0.000000210    0.000001845   -0.170938198
   2   Cr  :    0.000000210   -0.000001845    0.170938198

Norm of the cartesian gradient     ...    0.241743118
RMS gradient                       ...    0.098691215
MAX gradient                       ...    0.170938198

-------
TIMINGS
-------

Total numerical gradient time      ...      184.746 sec


                            ***************************************
                            *     ORCA property calculations      *
                            ***************************************

                                    ---------------------
                                    Active property flags
                                    ---------------------
   (+) Dipole Moment


------------------------------------------------------------------------------
                       ORCA ELECTRIC PROPERTIES CALCULATION
------------------------------------------------------------------------------

Dipole Moment Calculation                       ... on
Quadrupole Moment Calculation                   ... off
Polarizability Calculation                      ... off
GBWName                                         ... Cr2.gbw
Electron density file                           ... Cr2.scfp
The origin for moment calculation is the CENTER OF MASS  = ( 0.000000,  0.000000  1.587370)

-------------
DIPOLE MOMENT
-------------
                                X             Y             Z
Electronic contribution:      0.00000       0.00000      -0.00120
Nuclear contribution   :      0.00000       0.00000       0.00000
                        -----------------------------------------
Total Dipole Moment    :      0.00000       0.00000      -0.00120
                        -----------------------------------------
Magnitude (a.u.)       :      0.00120
Magnitude (Debye)      :      0.00306



--------------------
Rotational spectrum 
--------------------
 
Rotational constants in cm-1:     0.000000     0.229723     0.229723 
Rotational constants in MHz :     0.000000  6886.930377  6886.930377 

 Dipole components along the rotational axes: 
x,y,z [a.u.] :    -0.001205     0.000000     0.000000 
x,y,z [Debye]:    -0.003062     0.000001     0.000001 

 

Timings for individual modules:

Sum of individual times         ...      271.645 sec (=   4.527 min)
GTO integral calculation        ...        3.747 sec (=   0.062 min)   1.4 %
SCF iterations                  ...       83.152 sec (=   1.386 min)  30.6 %
SCF Gradient evaluation         ...      184.746 sec (=   3.079 min)  68.0 %
                             ****ORCA TERMINATED NORMALLY****
TOTAL RUN TIME: 0 days 0 hours 4 minutes 32 seconds 527 msec
