
                                 *****************
                                 * O   R   C   A *
                                 *****************

           --- An Ab Initio, DFT and Semiempirical electronic structure package ---

                  #######################################################
                  #                        -***-                        #
                  #          Department of theory and spectroscopy      #
                  #               Directorship: Frank Neese             #
                  #        Max Planck Institute fuer Kohlenforschung    #
                  #                Kaiser Wilhelm Platz 1               #
                  #                 D-45470 Muelheim/Ruhr               #
                  #                      Germany                        #
                  #                                                     #
                  #                  All rights reserved                #
                  #                        -***-                        #
                  #######################################################


                         Program Version 4.2.0 -  RELEASE  -


 With contributions from (in alphabetic order):
   Daniel Aravena         : Magnetic Suceptibility
   Michael Atanasov       : Ab Initio Ligand Field Theory (pilot matlab implementation)
   Alexander A. Auer      : GIAO ZORA, VPT2
   Ute Becker             : Parallelization
   Giovanni Bistoni       : ED, misc. LED, open-shell LED, HFLED
   Martin Brehm           : Molecular dynamics
   Dmytro Bykov           : SCF Hessian
   Vijay G. Chilkuri      : MRCI spin determinant printing, contributions to CSF-ICE
   Dipayan Datta          : RHF DLPNO-CCSD density
   Achintya Kumar Dutta   : EOM-CC, STEOM-CC
   Dmitry Ganyushin       : Spin-Orbit,Spin-Spin,Magnetic field MRCI
   Miquel Garcia          : C-PCM Hessian, Gaussian charge scheme
   Yang Guo               : DLPNO-NEVPT2, CIM, IAO-localization
   Andreas Hansen         : Spin unrestricted coupled pair/coupled cluster methods
   Benjamin Helmich-Paris : CASSCF linear response (MC-RPA)
   Lee Huntington         : MR-EOM, pCC
   Robert Izsak           : Overlap fitted RIJCOSX, COSX-SCS-MP3, EOM
   Christian Kollmar      : KDIIS, OOCD, Brueckner-CCSD(T), CCSD density
   Simone Kossmann        : Meta GGA functionals, TD-DFT gradient, OOMP2, MP2 Hessian
   Martin Krupicka        : AUTO-CI
   Lucas Lang             : DCDCAS
   Dagmar Lenk            : GEPOL surface, SMD
   Dimitrios Liakos       : Extrapolation schemes; Compound Job, initial MDCI parallelization
   Dimitrios Manganas     : Further ROCIS development; embedding schemes
   Dimitrios Pantazis     : SARC Basis sets
   Taras Petrenko         : DFT Hessian,TD-DFT gradient, ASA, ECA, R-Raman, ABS, FL, XAS/XES, NRVS
   Peter Pinski           : DLPNO-MP2, DLPNO-MP2 Gradient
   Christoph Reimann      : Effective Core Potentials
   Marius Retegan         : Local ZFS, SOC
   Christoph Riplinger    : Optimizer, TS searches, QM/MM, DLPNO-CCSD(T), (RO)-DLPNO pert. Triples
   Tobias Risthaus        : Range-separated hybrids, TD-DFT gradient, RPA, STAB
   Michael Roemelt        : Original ROCIS implementation
   Masaaki Saitow         : Open-shell DLPNO-CCSD energy and density
   Barbara Sandhoefer     : DKH picture change effects
   Avijit Sen             : IP-ROCIS
   Kantharuban Sivalingam : CASSCF convergence, NEVPT2, FIC-MRCI
   Bernardo de Souza      : ESD, SOC TD-DFT
   Georgi Stoychev        : AutoAux, RI-MP2 NMR
   Willem Van den Heuvel  : Paramagnetic NMR
   Boris Wezisla          : Elementary symmetry handling
   Frank Wennmohs         : Technical directorship


 We gratefully acknowledge several colleagues who have allowed us to
 interface, adapt or use parts of their codes:
   Stefan Grimme, W. Hujo, H. Kruse,             : VdW corrections, initial TS optimization,
                  C. Bannwarth                     DFT functionals, gCP, sTDA/sTD-DF
   Ed Valeev, F. Pavosevic, A. Kumar             : LibInt (2-el integral package), F12 methods
   Garnet Chan, S. Sharma, J. Yang, R. Olivares  : DMRG
   Ulf Ekstrom                                   : XCFun DFT Library
   Mihaly Kallay                                 : mrcc  (arbitrary order and MRCC methods)
   Andreas Klamt, Michael Diedenhofen            : otool_cosmo (COSMO solvation model)
   Jiri Pittner, Ondrej Demel                    : Mk-CCSD
   Frank Weinhold                                : gennbo (NPA and NBO analysis)
   Christopher J. Cramer and Donald G. Truhlar   : smd solvation model
   Lars Goerigk                                  : TD-DFT with DH, B97 family of functionals
   V. Asgeirsson, H. Jonsson                     : NEB implementation
   FAccTs GmbH                                   : IRC, NEB, NEB-TS, Multilevel, MM, QM/MM, CI optimization
   S Lehtola, MJT Oliveira, MAL Marques          : LibXC Library


 Your calculation uses the libint2 library for the computation of 2-el integrals
 For citations please refer to: http://libint.valeyev.net

 Your ORCA version has been built with support for libXC version: 4.2.3
 For citations please refer to: https://tddft.org/programs/libxc/

 This ORCA versions uses:
   CBLAS   interface :  Fast vector & matrix operations
   LAPACKE interface :  Fast linear algebra routines
   SCALAPACK package :  Parallel linear algebra routines


Your calculation utilizes the DFT-NL dispersion correction.
Cite in your paper:
Vydrov, O. A.; Van Voorhis, T. J. Chem. Phys. 2010, 133, 244103
Hujo, W.; Grimme, S. J. Chem. Theory Comput. 2011, 7, 3866 
   

----- Orbital basis set information -----
Your calculation utilizes the basis: def2-TZVPPD
   F. Weigend and R. Ahlrichs, Phys. Chem. Chem. Phys. 7, 3297 (2005).
   D. Rappoport and F. Furche, J. Chem. Phys. 133 134105 (2010).

----- AuxJK basis set information -----
Your calculation utilizes the auxiliary basis: def2/JK
   H-Ba, Hf-Rn: F. Weigend, J. Comput. Chem. 29, 167 (2008).

================================================================================
                                        WARNINGS
                       Please study these warnings very carefully!
================================================================================

INFO   : Found keyword 'NumGrad' for Energy calculation
  ===> : Setting RunTyp to EnGrad

WARNING: Numerical Gradient with sloppy Convergence Criteria    
         Your results may be not reliable!                      
         Please choose at least TightSCF!                       

WARNING: your system is open-shell and RHF/RKS was chosen
  ===> : WILL SWITCH to UHF/UKS


INFO   : the flag for use of LIBINT has been found!

================================================================================
                                       INPUT FILE
================================================================================
NAME = Fe.in
|  1> #
|  2> # Fe wB97M-V/Def2-TZVPPD
|  3> #
|  4> ! wb97m-v def2-tzvppd def2/jk grid4 nofinalgrid numgrad
|  5> 
|  6> *xyz 0 5
|  7> Fe         0.00000        0.00000        0.00000
|  8> *
|  9> 
| 10> %maxcore 5000
| 11> 
| 12> %pal
| 13> nprocs = 28
| 14> end
| 15> 
| 16> 
| 17>                          ****END OF INPUT****
================================================================================

                     *******************************
                     * Energy+Gradient Calculation *
                     *******************************

---------------------------------
CARTESIAN COORDINATES (ANGSTROEM)
---------------------------------
  Fe     0.000000    0.000000    0.000000

----------------------------
CARTESIAN COORDINATES (A.U.)
----------------------------
  NO LB      ZA    FRAG     MASS         X           Y           Z
   0 Fe   26.0000    0    55.850    0.000000    0.000000    0.000000

--------------------------------
INTERNAL COORDINATES (ANGSTROEM)
--------------------------------
 Fe     0   0   0     0.000000000000     0.00000000     0.00000000

---------------------------
INTERNAL COORDINATES (A.U.)
---------------------------
 Fe     0   0   0     0.000000000000     0.00000000     0.00000000

---------------------
BASIS SET INFORMATION
---------------------
There are 1 groups of distinct atoms

 Group   1 Type Fe  : 17s13p7d2f1g contracted to 6s6p4d2f1g pattern {842111/631111/4111/11/1}

Atom   0Fe   basis set group =>   1
----------------------------------
AUXILIARY/JK BASIS SET INFORMATION
----------------------------------
There are 1 groups of distinct atoms

 Group   1 Type Fe  : 19s14p12d10f7g3h1i contracted to 16s13p11d9f5g3h1i pattern {4111111111111111/2111111111111/21111111111/211111111/31111/111/1}

Atom   0Fe   basis set group =>   1


           ************************************************************
           *        Program running with 28 parallel MPI-processes    *
           *              working on a common directory               *
           ************************************************************
------------------------------------------------------------------------------
                           ORCA GTO INTEGRAL CALCULATION
------------------------------------------------------------------------------

                         BASIS SET STATISTICS AND STARTUP INFO

 # of primitive gaussian shells          ...   40
 # of primitive gaussian functions       ...  114
 # of contracted shells                  ...   19
 # of contracted basis functions         ...   67
 Highest angular momentum                ...    4
 Maximum contraction depth               ...    8
 Integral package used                   ... LIBINT
 Integral threshhold            Thresh   ...  1.000e-10
 Primitive cut-off              TCut     ...  1.000e-11


------------------------------ INTEGRAL EVALUATION ----------------------------


 * One electron integrals 
 Pre-screening matrix                    ... done
 Shell pair data                         ... done (   0.000 sec)



           ************************************************************
           *        Program running with 28 parallel MPI-processes    *
           *              working on a common directory               *
           ************************************************************
-------------------------------------------------------------------------------
                                 ORCA SCF
-------------------------------------------------------------------------------

------------
SCF SETTINGS
------------
Hamiltonian:
 Density Functional     Method          .... DFT(GTOs)
 Exchange Functional    Exchange        .... WB97M-V
 Correlation Functional Correlation     .... WB97M-V
 Gradients option       PostSCFGGA      .... off
 Hybrid DFT is turned on
   Fraction HF Exchange ScalHFX         ....  0.150000
   Scaling of DF-GGA-X  ScalDFX         ....  0.000000
   Scaling of DF-GGA-C  ScalDFC         ....  1.000000
   Scaling of DF-LDA-C  ScalLDAC        ....  1.000000
   Perturbative correction              ....  0.000000
   Density functional embedding theory  .... OFF
 Long-range corrected/Screened/Range-Separated Hybrid DFT is turned on
   Amount of maximum screened exact exchange              ....  0.850000
   Range separation parameter mu (erf(mu*r12)/r12)        ....  0.300000
   NL short-range parameter             ....  6.000000
   NL long-range parameter              ....  0.010000


General Settings:
 Integral files         IntName         .... Fe
 Hartree-Fock type      HFTyp           .... UHF
 Total Charge           Charge          ....    0
 Multiplicity           Mult            ....    5
 Number of Electrons    NEL             ....   26
 Basis Dimension        Dim             ....   67
 Nuclear Repulsion      ENuc            ....      0.0000000000 Eh

Convergence Acceleration:
 DIIS                   CNVDIIS         .... on
   Start iteration      DIISMaxIt       ....    12
   Startup error        DIISStart       ....  0.200000
   # of expansion vecs  DIISMaxEq       ....     5
   Bias factor          DIISBfac        ....   1.050
   Max. coefficient     DIISMaxC        ....  10.000
 Newton-Raphson         CNVNR           .... off
 SOSCF                  CNVSOSCF        .... off
 Level Shifting         CNVShift        .... on
   Level shift para.    LevelShift      ....    0.2500
   Turn off err/grad.   ShiftErr        ....    0.0010
 Zerner damping         CNVZerner       .... off
 Static damping         CNVDamp         .... on
   Fraction old density DampFac         ....    0.7000
   Max. Damping (<1)    DampMax         ....    0.9800
   Min. Damping (>=0)   DampMin         ....    0.0000
   Turn off err/grad.   DampErr         ....    0.1000
 Fernandez-Rico         CNVRico         .... off

SCF Procedure:
 Maximum # iterations   MaxIter         ....   125
 SCF integral mode      SCFMode         .... Direct
   Integral package                     .... LIBINT
 Reset frequency        DirectResetFreq ....    20
 Integral Threshold     Thresh          ....  1.000e-10 Eh
 Primitive CutOff       TCut            ....  1.000e-11 Eh

Convergence Tolerance:
 Convergence Check Mode ConvCheckMode   .... Total+1el-Energy
 Convergence forced     ConvForced      .... 0
 Energy Change          TolE            ....  1.000e-06 Eh
 1-El. energy change                    ....  1.000e-03 Eh
 DIIS Error             TolErr          ....  1.000e-06


Diagonalization of the overlap matrix:
Smallest eigenvalue                        ... 4.159e-02
Time for diagonalization                   ...    0.002 sec
Threshold for overlap eigenvalues          ... 1.000e-08
Number of eigenvalues below threshold      ... 0
Time for construction of square roots      ...    0.035 sec
Total time needed                          ...    0.037 sec

-------------------
DFT GRID GENERATION
-------------------

General Integration Accuracy     IntAcc      ...  4.670
Radial Grid Type                 RadialGrid  ... Gauss-Chebyshev
Angular Grid (max. acc.)         AngularGrid ... Lebedev-302
Angular grid pruning method      GridPruning ... 3 (G Style)
Weight generation scheme         WeightScheme... Becke
Basis function cutoff            BFCut       ...    1.0000e-10
Integration weight cutoff        WCut        ...    1.0000e-14
Grids for H and He will be reduced by one unit

# of grid points (after initial pruning)     ...   9640 (   0.0 sec)
# of grid points (after weights+screening)   ...   9640 (   0.0 sec)
Grid point division into batches done        ...    0.1 sec
Reduced shell lists constructed in    0.1 sec

Total number of grid points                  ...     9640
Total number of batches                      ...      151
Average number of points per batch           ...       63
Average number of grid points per atom       ...     9640
Average number of shells per batch           ...     3.43 (18.05%)
Average number of basis functions per batch  ...    10.29 (15.35%)
Average number of large shells per batch     ...     1.71 (50.00%)
Average number of large basis fcns per batch ...     3.43 (33.33%)
Maximum spatial batch extension              ...  22.27, 22.27, 22.27 au
Average spatial batch extension              ...   0.78,  0.77,  0.74 au

Time for grid setup =    1.569 sec

------------------------------
INITIAL GUESS: MODEL POTENTIAL
------------------------------
Loading Hartree-Fock densities                     ... done
Calculating cut-offs                               ... done
Setting up the integral package                    ... done
Initializing the effective Hamiltonian             ... done
Starting the Coulomb interaction                   ... done (   0.0 sec)
Reading the grid                                   ... done
Mapping shells                                     ... done
Starting the XC term evaluation                    ... done (   0.0 sec)
  promolecular density results
     # of electrons  =     25.999994076
     EX              =    -54.062020226
     EC              =     -1.134426117
     EX+EC           =    -55.196446344
Transforming the Hamiltonian                       ... done (   0.0 sec)
Diagonalizing the Hamiltonian                      ... done (   0.0 sec)
Back transforming the eigenvectors                 ... done (   0.0 sec)
Now organizing SCF variables                       ... done
                      ------------------
                      INITIAL GUESS DONE (   2.1 sec)
                      ------------------
--------------
SCF ITERATIONS
--------------
ITER       Energy         Delta-E        Max-DP      RMS-DP      [F,P]     Damp
               ***  Starting incremental Fock matrix formation  ***
  0  -1263.6180967384   0.000000000000 0.03577136  0.00094625  0.2261097 0.7000
  1  -1263.6378526798  -0.019755941455 0.03061728  0.00059147  0.0831537 0.7000
                               ***Turning on DIIS***
  2  -1263.6448114028  -0.006958722952 0.06373231  0.00111731  0.0219384 0.0000
  3  -1263.6623126166  -0.017501213856 0.00654942  0.00031232  0.0304337 0.0000
  4  -1263.6640460181  -0.001733401488 0.00438629  0.00018206  0.0190509 0.0000
  5  -1263.6649456164  -0.000899598306 0.00610304  0.00023145  0.0097211 0.0000
  6  -1263.6659121722  -0.000966555797 0.00746821  0.00025018  0.0078105 0.0000
  7  -1263.6669703721  -0.001058199884 0.00874512  0.00026708  0.0069466 0.0000
  8  -1263.6681068864  -0.001136514329 0.01027349  0.00029786  0.0061121 0.0000
  9  -1263.6693755813  -0.001268694866 0.01132415  0.00030297  0.0064607 0.0000
 10  -1263.6706631410  -0.001287559724 0.01082204  0.00025274  0.0070818 0.0000
 11  -1263.6717497636  -0.001086622608 0.00797335  0.00014998  0.0076880 0.0000
 12  -1263.6723374372  -0.000587673617 0.00425617  0.00009914  0.0078340 0.0000
 13  -1263.6722118078   0.000125629405 0.00158503  0.00003239  0.0073986 0.0000
 14  -1263.6722469028  -0.000035094999 0.00266256  0.00008031  0.0072959 0.0000
 15  -1263.6726012347  -0.000354331881 0.00370941  0.00011022  0.0074696 0.0000
 16  -1263.6730935664  -0.000492331652 0.00393001  0.00009814  0.0077367 0.0000
 17  -1263.6735431704  -0.000449603982 0.00936374  0.00027470  0.0080651 0.0000
 18  -1263.6748003844  -0.001257214058 0.00703100  0.00015705  0.0095432 0.0000
 19  -1263.6754730911  -0.000672706680 0.01847364  0.00040438  0.0092688 0.0000
               *** Restarting incremental Fock matrix formation ***
                                   *** Resetting DIIS ***
 20  -1263.6737339853   0.001739105836 0.01029452  0.00027342  0.0123939 0.0000
 21  -1263.6747276502  -0.000993664968 0.00645095  0.00019982  0.0113718 0.0000
 22  -1263.6756375959  -0.000909945673 0.00745589  0.00021902  0.0094195 0.0000
 23  -1263.6766527677  -0.001015171758 0.00535400  0.00009674  0.0096123 0.0000
 24  -1263.6770060448  -0.000353277194 0.00369235  0.00007905  0.0092856 0.0000
 25  -1263.6768067786   0.000199266206 0.00459754  0.00011965  0.0120347 0.0000
 26  -1263.6773829303  -0.000576151687 0.00171648  0.00003057  0.0109385 0.0000
 27  -1263.6774518000  -0.000068869700 0.00494542  0.00012345  0.0124234 0.0000
 28  -1263.6780424668  -0.000590666747 0.01327470  0.00034241  0.0103594 0.0000
 29  -1263.6796100554  -0.001567588673 0.00849598  0.00025754  0.0111332 0.0000
 30  -1263.6807935018  -0.001183446391 0.00654617  0.00013388  0.0105332 0.0000
 31  -1263.6813886534  -0.000595151581 0.00480400  0.00011694  0.0109591 0.0000
 32  -1263.6810766117   0.000312041747 0.00222206  0.00006531  0.0157186 0.0000
 33  -1263.6813965452  -0.000319933556 0.00478061  0.00013401  0.0149541 0.0000
 34  -1263.6819932164  -0.000596671129 0.00434368  0.00011902  0.0141881 0.0000
 35  -1263.6825332906  -0.000540074198 0.02193100  0.00051711  0.0127967 0.0000
 36  -1263.6845890015  -0.002055710980 0.01263096  0.00029900  0.0117163 0.0000
 37  -1263.6857878727  -0.001198871188 0.03774794  0.00072288  0.0105410 0.0000
 38  -1263.6883210200  -0.002533147293 0.03782291  0.00067465  0.0116316 0.0000
 39  -1263.6905534572  -0.002232437177 0.09098957  0.00142410  0.0114101 0.0000
               *** Restarting incremental Fock matrix formation ***
                                   *** Resetting DIIS ***
 40  -1263.6938245965  -0.003271139263 0.01886622  0.00037644  0.0153713 0.0000
 41  -1263.6946028171  -0.000778220649 0.00631460  0.00017832  0.0249504 0.0000
 42  -1263.6953922053  -0.000789388193 0.00845685  0.00018022  0.0123849 0.0000
 43  -1263.6959119612  -0.000519755946 0.01526899  0.00027165  0.0090318 0.0000
 44  -1263.6965548864  -0.000642925194 0.03492660  0.00057499  0.0068860 0.0000
 45  -1263.6976170877  -0.001062201271 0.00405285  0.00009264  0.0079938 0.0000
 46  -1263.6977816593  -0.000164571585 0.05847768  0.00093416  0.0063499 0.0000
 47  -1263.6989131172  -0.001131457932 0.00553432  0.00013648  0.0119308 0.0000
 48  -1263.6992703216  -0.000357204327 0.04712517  0.00078567  0.0049974 0.0000
 49  -1263.6998642386  -0.000593917086 0.00864218  0.00021781  0.0126773 0.0000
 50  -1263.7002324395  -0.000368200883 0.00858116  0.00022337  0.0057158 0.0000
 51  -1263.7004973699  -0.000264930375 0.02519859  0.00050302  0.0032281 0.0000
 52  -1263.7007082983  -0.000210928378 0.00318478  0.00007851  0.0096217 0.0000
 53  -1263.7008477248  -0.000139426566 0.01014809  0.00023986  0.0030981 0.0000
 54  -1263.7009659551  -0.000118230268 0.00937941  0.00021133  0.0039249 0.0000
 55  -1263.7010490902  -0.000083135140 0.00528775  0.00010709  0.0040661 0.0000
 56  -1263.7011097025  -0.000060612294 0.00559594  0.00011603  0.0013750 0.0000
 57  -1263.7011416146  -0.000031912107 0.00781083  0.00016320  0.0017691 0.0000
 58  -1263.7011652121  -0.000023597441 0.00302725  0.00005967  0.0024451 0.0000
 59  -1263.7011800177  -0.000014805615 0.00504683  0.00009986  0.0013298 0.0000
               *** Restarting incremental Fock matrix formation ***
                                   *** Resetting DIIS ***
 60  -1263.7011874287  -0.000007410989 0.00099791  0.00002215  0.0012721 0.0000
 61  -1263.7011930715  -0.000005642802 0.00029158  0.00000944  0.0010758 0.0000
 62  -1263.7011956670  -0.000002595508 0.00019719  0.00000675  0.0001371 0.0000
 63  -1263.7011977499  -0.000002082914 0.00027127  0.00000762  0.0000932 0.0000
 64  -1263.7011987112  -0.000000961282 0.00043832  0.00001167  0.0000911 0.0000
 65  -1263.7011992952  -0.000000583991 0.00057149  0.00001457  0.0000768 0.0000
                 **** Energy Check signals convergence ****

               *****************************************************
               *                     SUCCESS                       *
               *           SCF CONVERGED AFTER  66 CYCLES          *
               *****************************************************


Setting up the DFT-NL grid :

General Integration Accuracy     IntAcc      ...  4.340
Radial Grid Type                 RadialGrid  ... Gauss-Chebyshev
Angular Grid (max. acc.)         AngularGrid ... Lebedev-110
Angular grid pruning method      GridPruning ... 3 (G Style)
Weight generation scheme         WeightScheme... Becke
Basis function cutoff            BFCut       ...    1.0000e-10
Integration weight cutoff        WCut        ...    1.0000e-14
Grids for H and He will be reduced by one unit

# of grid points (after initial pruning)     ...   2912 (   0.0 sec)
# of grid points (after weights+screening)   ...   2912 (   0.0 sec)
Grid point division into batches done        ...    0.0 sec
Reduced shell lists constructed in    0.0 sec

Total number of grid points                  ...     2912
Total number of batches                      ...       46
Average number of points per batch           ...       63
Average number of grid points per atom       ...     2912
Average number of shells per batch           ...     4.67 (24.56%)
Average number of basis functions per batch  ...    14.00 (20.90%)
Average number of large shells per batch     ...     4.00 (85.71%)
Average number of large basis fcns per batch ...    10.67 (76.19%)
Maximum spatial batch extension              ...  18.98, 28.73, 28.73 au
Average spatial batch extension              ...   0.83,  1.25,  1.25 au

Final grid set up in    0.2 sec

-------------------------------------------------------------------------------
                         DFT-NL dispersion correction                          
-------------------------------------------------------------------------------

SC Energy -1263.701199580 
NL    Energy 0.110424391 
SC+NL Energy -1263.590775189 
NL done in    0.1 sec
-------------------------------------------------------------------------------

----------------
TOTAL SCF ENERGY
----------------

Total Energy       :        -1263.59077519 Eh          -34384.05304 eV

Components:
Nuclear Repulsion  :            0.00000000 Eh               0.00000 eV
Electronic Energy  :        -1263.59077519 Eh          -34384.05304 eV
One Electron Energy:        -1744.18493984 Eh          -47461.68512 eV
Two Electron Energy:          480.59416465 Eh           13077.63207 eV

Virial components:
Potential Energy   :        -2525.53990894 Eh          -68723.43475 eV
Kinetic Energy     :         1261.94913375 Eh           34339.38171 eV
Virial Ratio       :            2.00130088


DFT components:
N(Alpha)           :       15.000000478688 electrons
N(Beta)            :       11.000000531822 electrons
N(Total)           :       26.000001010509 electrons
E(X)               :      -42.592320876381 Eh       
E(C)               :       -1.310401279298 Eh       
NL Energy, E(C,NL) :        0.110424391203 Eh       
E(XC)              :      -43.792297764476 Eh       
DFET-embed. en.    :        0.000000000000 Eh       

---------------
SCF CONVERGENCE
---------------

  Last Energy change         ...   -2.8518e-07  Tolerance :   1.0000e-06
  Last MAX-Density change    ...    3.4975e-04  Tolerance :   1.0000e-05
  Last RMS-Density change    ...    8.4858e-06  Tolerance :   1.0000e-06
  Last DIIS Error            ...    6.1331e-05  Tolerance :   1.0000e-06

             **** THE GBW FILE WAS UPDATED (Fe.gbw) ****
             **** DENSITY FILE WAS UPDATED (Fe.scfp) ****
             **** ENERGY FILE WAS UPDATED (Fe.en.tmp) ****
----------------------
UHF SPIN CONTAMINATION
----------------------

Warning: in a DFT calculation there is little theoretical justification to 
         calculate <S**2> as in Hartree-Fock theory. We will do it anyways
         but you should keep in mind that the values have only limited relevance

Expectation value of <S**2>     :     6.005551
Ideal value S*(S+1) for S=2.0   :     6.000000
Deviation                       :     0.005551

             **** THE GBW FILE WAS UPDATED (Fe.gbw) ****
             **** DENSITY FILE WAS UPDATED (Fe.scfp) ****
----------------
ORBITAL ENERGIES
----------------
                 SPIN UP ORBITALS
  NO   OCC          E(Eh)            E(eV) 
   0   1.0000    -256.646369     -6983.7028 
   1   1.0000     -30.376556      -826.5881 
   2   1.0000     -26.159454      -711.8349 
   3   1.0000     -26.128203      -710.9845 
   4   1.0000     -26.127238      -710.9583 
   5   1.0000      -3.758391      -102.2710 
   6   1.0000      -2.551568       -69.4317 
   7   1.0000      -2.491977       -67.8101 
   8   1.0000      -2.490069       -67.7582 
   9   1.0000      -0.536691       -14.6041 
  10   1.0000      -0.528765       -14.3884 
  11   1.0000      -0.527854       -14.3636 
  12   1.0000      -0.500488       -13.6190 
  13   1.0000      -0.473715       -12.8904 
  14   1.0000      -0.295970        -8.0538 
  15   0.0000       0.010457         0.2845 
  16   0.0000       0.012951         0.3524 
  17   0.0000       0.013119         0.3570 
  18   0.0000       0.129966         3.5366 
  19   0.0000       0.133745         3.6394 
  20   0.0000       0.133980         3.6458 
  21   0.0000       0.143962         3.9174 
  22   0.0000       0.226517         6.1638 
  23   0.0000       0.226783         6.1711 
  24   0.0000       0.226897         6.1742 
  25   0.0000       0.228507         6.2180 
  26   0.0000       0.230817         6.2808 
  27   0.0000       0.577594        15.7171 
  28   0.0000       0.588207        16.0059 
  29   0.0000       0.588707        16.0195 
  30   0.0000       0.921190        25.0669 
  31   0.0000       0.923649        25.1338 
  32   0.0000       0.924061        25.1450 
  33   0.0000       0.933656        25.4061 
  34   0.0000       0.941032        25.6068 
  35   0.0000       2.348978        63.9189 
  36   0.0000       2.351739        63.9941 
  37   0.0000       2.352187        64.0063 
  38   0.0000       2.356758        64.1306 
  39   0.0000       2.368503        64.4502 
  40   0.0000       2.381795        64.8119 
  41   0.0000       2.381812        64.8124 
  42   0.0000       2.394904        65.1686 
  43   0.0000       2.426343        66.0241 
  44   0.0000       2.427844        66.0650 
  45   0.0000       2.522437        68.6390 
  46   0.0000       3.458196        94.1023 
  47   0.0000       3.462980        94.2325 
  48   0.0000       3.463684        94.2516 
  49   0.0000       3.482686        94.7687 
  50   0.0000       3.508164        95.4620 
  51   0.0000       8.499734       231.2895 
  52   0.0000       8.500580       231.3125 
  53   0.0000       8.500832       231.3194 
  54   0.0000       8.502129       231.3547 
  55   0.0000       8.521975       231.8947 
  56   0.0000       8.531252       232.1472 
  57   0.0000       8.531940       232.1659 
  58   0.0000       8.557597       232.8641 
  59   0.0000       8.558199       232.8804 
  60   0.0000       9.162786       249.3321 
  61   0.0000       9.167198       249.4521 
  62   0.0000       9.167948       249.4725 
  63   0.0000       9.177630       249.7360 
  64   0.0000       9.199475       250.3304 
  65   0.0000       9.231070       251.1902 
  66   0.0000       9.231490       251.2016 

                 SPIN DOWN ORBITALS
  NO   OCC          E(Eh)            E(eV) 
   0   1.0000    -256.644532     -6983.6527 
   1   1.0000     -30.286117      -824.1272 
   2   1.0000     -26.076166      -709.5686 
   3   1.0000     -26.062334      -709.1922 
   4   1.0000     -26.061931      -709.1812 
   5   1.0000      -3.571840       -97.1947 
   6   1.0000      -2.308069       -62.8057 
   7   1.0000      -2.305112       -62.7253 
   8   1.0000      -2.304744       -62.7153 
   9   1.0000      -0.379240       -10.3196 
  10   1.0000      -0.275843        -7.5061 
  11   0.0000      -0.004192        -0.1141 
  12   0.0000       0.008422         0.2292 
  13   0.0000       0.009569         0.2604 
  14   0.0000       0.021245         0.5781 
  15   0.0000       0.022529         0.6130 
  16   0.0000       0.022641         0.6161 
  17   0.0000       0.040039         1.0895 
  18   0.0000       0.140875         3.8334 
  19   0.0000       0.142506         3.8778 
  20   0.0000       0.142646         3.8816 
  21   0.0000       0.164075         4.4647 
  22   0.0000       0.239179         6.5084 
  23   0.0000       0.246681         6.7125 
  24   0.0000       0.248247         6.7551 
  25   0.0000       0.248517         6.7625 
  26   0.0000       0.253470         6.8973 
  27   0.0000       0.603222        16.4145 
  28   0.0000       0.609939        16.5973 
  29   0.0000       0.610240        16.6055 
  30   0.0000       0.967751        26.3338 
  31   0.0000       0.973384        26.4871 
  32   0.0000       0.977924        26.6107 
  33   0.0000       0.978450        26.6250 
  34   0.0000       0.991342        26.9758 
  35   0.0000       2.446862        66.5825 
  36   0.0000       2.446994        66.5861 
  37   0.0000       2.447264        66.5935 
  38   0.0000       2.448297        66.6216 
  39   0.0000       2.460296        66.9481 
  40   0.0000       2.460609        66.9566 
  41   0.0000       2.465336        67.0852 
  42   0.0000       2.507184        68.2240 
  43   0.0000       2.516381        68.4742 
  44   0.0000       2.516805        68.4858 
  45   0.0000       2.649349        72.0925 
  46   0.0000       3.588784        97.6558 
  47   0.0000       3.603531        98.0571 
  48   0.0000       3.612417        98.2989 
  49   0.0000       3.613369        98.3248 
  50   0.0000       3.640445        99.0615 
  51   0.0000       8.660234       235.6569 
  52   0.0000       8.660367       235.6606 
  53   0.0000       8.661020       235.6783 
  54   0.0000       8.661734       235.6978 
  55   0.0000       8.680263       236.2020 
  56   0.0000       8.680774       236.2159 
  57   0.0000       8.681270       236.2294 
  58   0.0000       8.681310       236.2305 
  59   0.0000       8.689023       236.4403 
  60   0.0000       9.378128       255.1918 
  61   0.0000       9.378770       255.2093 
  62   0.0000       9.379344       255.2249 
  63   0.0000       9.381456       255.2824 
  64   0.0000       9.407258       255.9845 
  65   0.0000       9.407750       255.9979 
  66   0.0000       9.412151       256.1177 

                    ********************************
                    * MULLIKEN POPULATION ANALYSIS *
                    ********************************

--------------------------------------------
MULLIKEN ATOMIC CHARGES AND SPIN POPULATIONS
--------------------------------------------
   0 Fe:   -0.000000    4.000000
Sum of atomic charges         :   -0.0000000
Sum of atomic spin populations:    4.0000000

-----------------------------------------------------
MULLIKEN REDUCED ORBITAL CHARGES AND SPIN POPULATIONS
-----------------------------------------------------
CHARGE
  0 Fes       :     7.982069  s :     7.982069
      pz      :     3.999968  p :    11.999830
      px      :     3.999930
      py      :     3.999932
      dz2     :     1.017702  d :     6.017879
      dxz     :     1.004914
      dyz     :     1.003167
      dx2y2   :     1.985863
      dxy     :     1.006232
      f0      :     0.000031  f :     0.000170
      f+1     :     0.000022
      f-1     :     0.000021
      f+2     :     0.000001
      f-2     :     0.000001
      f+3     :     0.000047
      f-3     :     0.000046
      g0      :     0.000010  g :     0.000053
      g+1     :     0.000009
      g-1     :     0.000009
      g+2     :     0.000008
      g-2     :     0.000004
      g+3     :     0.000001
      g-3     :     0.000001
      g+4     :     0.000010
      g-4     :     0.000000

SPIN
  0 Fes       :     0.017652  s :     0.017652
      pz      :    -0.000017  p :     0.000016
      px      :     0.000015
      py      :     0.000018
      dz2     :     0.982542  d :     3.982309
      dxz     :     0.995068
      dyz     :     0.996817
      dx2y2   :     0.014120
      dxy     :     0.993761
      f0      :     0.000018  f :    -0.000016
      f+1     :     0.000022
      f-1     :     0.000021
      f+2     :     0.000000
      f-2     :    -0.000000
      f+3     :    -0.000037
      f-3     :    -0.000039
      g0      :     0.000010  g :     0.000040
      g+1     :     0.000009
      g-1     :     0.000009
      g+2     :     0.000008
      g-2     :     0.000004
      g+3     :     0.000001
      g-3     :     0.000001
      g+4     :    -0.000002
      g-4     :    -0.000000


                     *******************************
                     * LOEWDIN POPULATION ANALYSIS *
                     *******************************

-------------------------------------------
LOEWDIN ATOMIC CHARGES AND SPIN POPULATIONS
-------------------------------------------
   0 Fe:   -0.000000    4.000000

----------------------------------------------------
LOEWDIN REDUCED ORBITAL CHARGES AND SPIN POPULATIONS
----------------------------------------------------
CHARGE
  0 Fes       :     7.982069  s :     7.982069
      pz      :     3.999968  p :    11.999830
      px      :     3.999930
      py      :     3.999932
      dz2     :     1.017702  d :     6.017879
      dxz     :     1.004914
      dyz     :     1.003167
      dx2y2   :     1.985863
      dxy     :     1.006232
      f0      :     0.000031  f :     0.000170
      f+1     :     0.000022
      f-1     :     0.000021
      f+2     :     0.000001
      f-2     :     0.000001
      f+3     :     0.000047
      f-3     :     0.000046
      g0      :     0.000010  g :     0.000053
      g+1     :     0.000009
      g-1     :     0.000009
      g+2     :     0.000008
      g-2     :     0.000004
      g+3     :     0.000001
      g-3     :     0.000001
      g+4     :     0.000010
      g-4     :     0.000000

SPIN
  0 Fes       :     0.017652  s :     0.017652
      pz      :    -0.000017  p :     0.000016
      px      :     0.000015
      py      :     0.000018
      dz2     :     0.982542  d :     3.982309
      dxz     :     0.995068
      dyz     :     0.996817
      dx2y2   :     0.014120
      dxy     :     0.993761
      f0      :     0.000018  f :    -0.000016
      f+1     :     0.000022
      f-1     :     0.000021
      f+2     :     0.000000
      f-2     :    -0.000000
      f+3     :    -0.000037
      f-3     :    -0.000039
      g0      :     0.000010  g :     0.000040
      g+1     :     0.000009
      g-1     :     0.000009
      g+2     :     0.000008
      g-2     :     0.000004
      g+3     :     0.000001
      g-3     :     0.000001
      g+4     :    -0.000002
      g-4     :    -0.000000


                      *****************************
                      * MAYER POPULATION ANALYSIS *
                      *****************************

  NA   - Mulliken gross atomic population
  ZA   - Total nuclear charge
  QA   - Mulliken gross atomic charge
  VA   - Mayer's total valence
  BVA  - Mayer's bonded valence
  FA   - Mayer's free valence

  ATOM       NA         ZA         QA         VA         BVA        FA
  0 Fe    26.0000    26.0000    -0.0000     4.0111     0.0000     4.0111

  Mayer bond orders larger than 0.100000


-------
TIMINGS
-------

Total SCF time: 0 days 0 hours 4 min 22 sec 

Total time                  ....     262.537 sec
Sum of individual times     ....     260.832 sec  ( 99.4%)

Fock matrix formation       ....     254.038 sec  ( 96.8%)
  XC integration            ....     235.167 sec  ( 92.6% of F)
    Basis function eval.    ....       0.046 sec  (  0.0% of XC)
    Density eval.           ....       0.119 sec  (  0.1% of XC)
    XC-Functional eval.     ....       0.098 sec  (  0.0% of XC)
    XC-Potential eval.      ....       0.182 sec  (  0.1% of XC)
Diagonalization             ....       3.717 sec  (  1.4%)
Density matrix formation    ....       0.021 sec  (  0.0%)
Population analysis         ....       0.157 sec  (  0.1%)
Initial guess               ....       0.504 sec  (  0.2%)
Orbital Transformation      ....       0.000 sec  (  0.0%)
Orbital Orthonormalization  ....       0.000 sec  (  0.0%)
DIIS solution               ....       0.620 sec  (  0.2%)
Grid generation             ....       1.775 sec  (  0.7%)

-------------------------   --------------------
FINAL SINGLE POINT ENERGY     -1263.590775189170
-------------------------   --------------------


----------------------------------------------------------------------------
                           ORCA NUMERICAL GRADIENT
                              (28-process run)
----------------------------------------------------------------------------

I state                        ... 1
J state                        ... 0
Number of atoms                ... 1
Derivative's order of accuracy ... 2
Central differences            ... used
Number of displacements        ... 6
Numerical increment            ... 5.000e-03 bohr
Translation invariance         ... used

The output will be reduced. Please look at the following files:
SCF program output             ... >Fe.lastscf
Integral program output        ... >Fe.lastint
Gradient program output        ... >Fe.lastgrad


     Note:   There are more processes than displacements to do
     ===>:   Reducing number of processes to   0


------------------------------
CARTESIAN GRADIENT (NUMERICAL)
-------------------------------
   1   Fe  :    0.000000000    0.000000000    0.000000000

Norm of the cartesian gradient     ...    0.000000000
RMS gradient                       ...    0.000000000
MAX gradient                       ...    0.000000000
*** glibc detected *** /mnt/storage/software/apps/orca-4.2.0/orca_4_2_0_linux_x86-64_openmpi314/orca: free(): invalid next size (fast): 0x000000000dabde60 ***
======= Backtrace: =========
[0xb0928aa]
[0xb09567c]
[0x76d903]
[0x76fb95]
[0x915b4f]
[0x918f24]
[0x487649]
[0xb05c99e]
[0x4870d9]
======= Memory map: ========
00400000-0bf42000 r-xp 00000000 00:2b 4876154                            /mnt/storage/software/apps/orca-4.2.0/orca_4_2_0_linux_x86-64_openmpi314/orca
0c141000-0c203000 rw-p 0bb41000 00:2b 4876154                            /mnt/storage/software/apps/orca-4.2.0/orca_4_2_0_linux_x86-64_openmpi314/orca
0c203000-0c77a000 rw-p 00000000 00:00 0 
0d87a000-0dae9000 rw-p 00000000 00:00 0                                  [heap]
2b6dc474b000-2b6dc4f4c000 rw-p 00000000 00:00 0 
2b6dc574b000-2b6dc7e0e000 rw-p 00000000 00:00 0 
2b6dc8000000-2b6dc80b3000 rw-p 00000000 00:00 0 
2b6dc80b3000-2b6dcc000000 ---p 00000000 00:00 0 
7fff68988000-7fff68a8a000 rw-p 00000000 00:00 0                          [stack]
7fff68b9d000-7fff68b9f000 r-xp 00000000 00:00 0                          [vdso]
ffffffffff600000-ffffffffff601000 r-xp 00000000 00:00 0                  [vsyscall]
