
                                 *****************
                                 * O   R   C   A *
                                 *****************

           --- An Ab Initio, DFT and Semiempirical electronic structure package ---

                  #######################################################
                  #                        -***-                        #
                  #          Department of theory and spectroscopy      #
                  #               Directorship: Frank Neese             #
                  #        Max Planck Institute fuer Kohlenforschung    #
                  #                Kaiser Wilhelm Platz 1               #
                  #                 D-45470 Muelheim/Ruhr               #
                  #                      Germany                        #
                  #                                                     #
                  #                  All rights reserved                #
                  #                        -***-                        #
                  #######################################################


                         Program Version 4.2.0 -  RELEASE  -


 With contributions from (in alphabetic order):
   Daniel Aravena         : Magnetic Suceptibility
   Michael Atanasov       : Ab Initio Ligand Field Theory (pilot matlab implementation)
   Alexander A. Auer      : GIAO ZORA, VPT2
   Ute Becker             : Parallelization
   Giovanni Bistoni       : ED, misc. LED, open-shell LED, HFLED
   Martin Brehm           : Molecular dynamics
   Dmytro Bykov           : SCF Hessian
   Vijay G. Chilkuri      : MRCI spin determinant printing, contributions to CSF-ICE
   Dipayan Datta          : RHF DLPNO-CCSD density
   Achintya Kumar Dutta   : EOM-CC, STEOM-CC
   Dmitry Ganyushin       : Spin-Orbit,Spin-Spin,Magnetic field MRCI
   Miquel Garcia          : C-PCM Hessian, Gaussian charge scheme
   Yang Guo               : DLPNO-NEVPT2, CIM, IAO-localization
   Andreas Hansen         : Spin unrestricted coupled pair/coupled cluster methods
   Benjamin Helmich-Paris : CASSCF linear response (MC-RPA)
   Lee Huntington         : MR-EOM, pCC
   Robert Izsak           : Overlap fitted RIJCOSX, COSX-SCS-MP3, EOM
   Christian Kollmar      : KDIIS, OOCD, Brueckner-CCSD(T), CCSD density
   Simone Kossmann        : Meta GGA functionals, TD-DFT gradient, OOMP2, MP2 Hessian
   Martin Krupicka        : AUTO-CI
   Lucas Lang             : DCDCAS
   Dagmar Lenk            : GEPOL surface, SMD
   Dimitrios Liakos       : Extrapolation schemes; Compound Job, initial MDCI parallelization
   Dimitrios Manganas     : Further ROCIS development; embedding schemes
   Dimitrios Pantazis     : SARC Basis sets
   Taras Petrenko         : DFT Hessian,TD-DFT gradient, ASA, ECA, R-Raman, ABS, FL, XAS/XES, NRVS
   Peter Pinski           : DLPNO-MP2, DLPNO-MP2 Gradient
   Christoph Reimann      : Effective Core Potentials
   Marius Retegan         : Local ZFS, SOC
   Christoph Riplinger    : Optimizer, TS searches, QM/MM, DLPNO-CCSD(T), (RO)-DLPNO pert. Triples
   Tobias Risthaus        : Range-separated hybrids, TD-DFT gradient, RPA, STAB
   Michael Roemelt        : Original ROCIS implementation
   Masaaki Saitow         : Open-shell DLPNO-CCSD energy and density
   Barbara Sandhoefer     : DKH picture change effects
   Avijit Sen             : IP-ROCIS
   Kantharuban Sivalingam : CASSCF convergence, NEVPT2, FIC-MRCI
   Bernardo de Souza      : ESD, SOC TD-DFT
   Georgi Stoychev        : AutoAux, RI-MP2 NMR
   Willem Van den Heuvel  : Paramagnetic NMR
   Boris Wezisla          : Elementary symmetry handling
   Frank Wennmohs         : Technical directorship


 We gratefully acknowledge several colleagues who have allowed us to
 interface, adapt or use parts of their codes:
   Stefan Grimme, W. Hujo, H. Kruse,             : VdW corrections, initial TS optimization,
                  C. Bannwarth                     DFT functionals, gCP, sTDA/sTD-DF
   Ed Valeev, F. Pavosevic, A. Kumar             : LibInt (2-el integral package), F12 methods
   Garnet Chan, S. Sharma, J. Yang, R. Olivares  : DMRG
   Ulf Ekstrom                                   : XCFun DFT Library
   Mihaly Kallay                                 : mrcc  (arbitrary order and MRCC methods)
   Andreas Klamt, Michael Diedenhofen            : otool_cosmo (COSMO solvation model)
   Jiri Pittner, Ondrej Demel                    : Mk-CCSD
   Frank Weinhold                                : gennbo (NPA and NBO analysis)
   Christopher J. Cramer and Donald G. Truhlar   : smd solvation model
   Lars Goerigk                                  : TD-DFT with DH, B97 family of functionals
   V. Asgeirsson, H. Jonsson                     : NEB implementation
   FAccTs GmbH                                   : IRC, NEB, NEB-TS, Multilevel, MM, QM/MM, CI optimization
   S Lehtola, MJT Oliveira, MAL Marques          : LibXC Library


 Your calculation uses the libint2 library for the computation of 2-el integrals
 For citations please refer to: http://libint.valeyev.net

 Your ORCA version has been built with support for libXC version: 4.2.3
 For citations please refer to: https://tddft.org/programs/libxc/

 This ORCA versions uses:
   CBLAS   interface :  Fast vector & matrix operations
   LAPACKE interface :  Fast linear algebra routines
   SCALAPACK package :  Parallel linear algebra routines


Your calculation utilizes the DFT-NL dispersion correction.
Cite in your paper:
Vydrov, O. A.; Van Voorhis, T. J. Chem. Phys. 2010, 133, 244103
Hujo, W.; Grimme, S. J. Chem. Theory Comput. 2011, 7, 3866 
   

----- Orbital basis set information -----
Your calculation utilizes the basis: def2-TZVPPD
   F. Weigend and R. Ahlrichs, Phys. Chem. Chem. Phys. 7, 3297 (2005).
   D. Rappoport and F. Furche, J. Chem. Phys. 133 134105 (2010).

----- AuxJK basis set information -----
Your calculation utilizes the auxiliary basis: def2/JK
   H-Ba, Hf-Rn: F. Weigend, J. Comput. Chem. 29, 167 (2008).

================================================================================
                                        WARNINGS
                       Please study these warnings very carefully!
================================================================================

INFO   : Found keyword 'NumGrad' for Energy calculation
  ===> : Setting RunTyp to EnGrad

WARNING: Numerical Gradient with sloppy Convergence Criteria    
         Your results may be not reliable!                      
         Please choose at least TightSCF!                       

WARNING: your system is open-shell and RHF/RKS was chosen
  ===> : WILL SWITCH to UHF/UKS


INFO   : the flag for use of LIBINT has been found!

================================================================================
                                       INPUT FILE
================================================================================
NAME = Ni+.in
|  1> #
|  2> # Ni+ wB97M-V/Def2-TZVPPD
|  3> #
|  4> ! wb97m-v def2-tzvppd def2/jk grid4 nofinalgrid numgrad
|  5> 
|  6> *xyz 1 2
|  7> Ni         0.00000        0.00000        0.00000
|  8> *
|  9> 
| 10> %maxcore 5000
| 11> 
| 12> %pal
| 13> nprocs = 28
| 14> end
| 15> 
| 16> 
| 17>                          ****END OF INPUT****
================================================================================

                     *******************************
                     * Energy+Gradient Calculation *
                     *******************************

---------------------------------
CARTESIAN COORDINATES (ANGSTROEM)
---------------------------------
  Ni     0.000000    0.000000    0.000000

----------------------------
CARTESIAN COORDINATES (A.U.)
----------------------------
  NO LB      ZA    FRAG     MASS         X           Y           Z
   0 Ni   28.0000    0    58.700    0.000000    0.000000    0.000000

--------------------------------
INTERNAL COORDINATES (ANGSTROEM)
--------------------------------
 Ni     0   0   0     0.000000000000     0.00000000     0.00000000

---------------------------
INTERNAL COORDINATES (A.U.)
---------------------------
 Ni     0   0   0     0.000000000000     0.00000000     0.00000000

---------------------
BASIS SET INFORMATION
---------------------
There are 1 groups of distinct atoms

 Group   1 Type Ni  : 17s13p7d2f1g contracted to 6s6p4d2f1g pattern {842111/631111/4111/11/1}

Atom   0Ni   basis set group =>   1
----------------------------------
AUXILIARY/JK BASIS SET INFORMATION
----------------------------------
There are 1 groups of distinct atoms

 Group   1 Type Ni  : 19s14p12d10f7g3h1i contracted to 16s13p11d9f5g3h1i pattern {4111111111111111/2111111111111/21111111111/211111111/31111/111/1}

Atom   0Ni   basis set group =>   1


           ************************************************************
           *        Program running with 28 parallel MPI-processes    *
           *              working on a common directory               *
           ************************************************************
------------------------------------------------------------------------------
                           ORCA GTO INTEGRAL CALCULATION
------------------------------------------------------------------------------

                         BASIS SET STATISTICS AND STARTUP INFO

 # of primitive gaussian shells          ...   40
 # of primitive gaussian functions       ...  114
 # of contracted shells                  ...   19
 # of contracted basis functions         ...   67
 Highest angular momentum                ...    4
 Maximum contraction depth               ...    8
 Integral package used                   ... LIBINT
 Integral threshhold            Thresh   ...  1.000e-10
 Primitive cut-off              TCut     ...  1.000e-11


------------------------------ INTEGRAL EVALUATION ----------------------------


 * One electron integrals 
 Pre-screening matrix                    ... done
 Shell pair data                         ... done (   0.000 sec)



           ************************************************************
           *        Program running with 28 parallel MPI-processes    *
           *              working on a common directory               *
           ************************************************************
-------------------------------------------------------------------------------
                                 ORCA SCF
-------------------------------------------------------------------------------

------------
SCF SETTINGS
------------
Hamiltonian:
 Density Functional     Method          .... DFT(GTOs)
 Exchange Functional    Exchange        .... WB97M-V
 Correlation Functional Correlation     .... WB97M-V
 Gradients option       PostSCFGGA      .... off
 Hybrid DFT is turned on
   Fraction HF Exchange ScalHFX         ....  0.150000
   Scaling of DF-GGA-X  ScalDFX         ....  0.000000
   Scaling of DF-GGA-C  ScalDFC         ....  1.000000
   Scaling of DF-LDA-C  ScalLDAC        ....  1.000000
   Perturbative correction              ....  0.000000
   Density functional embedding theory  .... OFF
 Long-range corrected/Screened/Range-Separated Hybrid DFT is turned on
   Amount of maximum screened exact exchange              ....  0.850000
   Range separation parameter mu (erf(mu*r12)/r12)        ....  0.300000
   NL short-range parameter             ....  6.000000
   NL long-range parameter              ....  0.010000


General Settings:
 Integral files         IntName         .... Ni+
 Hartree-Fock type      HFTyp           .... UHF
 Total Charge           Charge          ....    1
 Multiplicity           Mult            ....    2
 Number of Electrons    NEL             ....   27
 Basis Dimension        Dim             ....   67
 Nuclear Repulsion      ENuc            ....      0.0000000000 Eh

Convergence Acceleration:
 DIIS                   CNVDIIS         .... on
   Start iteration      DIISMaxIt       ....    12
   Startup error        DIISStart       ....  0.200000
   # of expansion vecs  DIISMaxEq       ....     5
   Bias factor          DIISBfac        ....   1.050
   Max. coefficient     DIISMaxC        ....  10.000
 Newton-Raphson         CNVNR           .... off
 SOSCF                  CNVSOSCF        .... off
 Level Shifting         CNVShift        .... on
   Level shift para.    LevelShift      ....    0.2500
   Turn off err/grad.   ShiftErr        ....    0.0010
 Zerner damping         CNVZerner       .... off
 Static damping         CNVDamp         .... on
   Fraction old density DampFac         ....    0.7000
   Max. Damping (<1)    DampMax         ....    0.9800
   Min. Damping (>=0)   DampMin         ....    0.0000
   Turn off err/grad.   DampErr         ....    0.1000
 Fernandez-Rico         CNVRico         .... off

SCF Procedure:
 Maximum # iterations   MaxIter         ....   125
 SCF integral mode      SCFMode         .... Direct
   Integral package                     .... LIBINT
 Reset frequency        DirectResetFreq ....    20
 Integral Threshold     Thresh          ....  1.000e-10 Eh
 Primitive CutOff       TCut            ....  1.000e-11 Eh

Convergence Tolerance:
 Convergence Check Mode ConvCheckMode   .... Total+1el-Energy
 Convergence forced     ConvForced      .... 0
 Energy Change          TolE            ....  1.000e-06 Eh
 1-El. energy change                    ....  1.000e-03 Eh
 DIIS Error             TolErr          ....  1.000e-06


Diagonalization of the overlap matrix:
Smallest eigenvalue                        ... 4.474e-02
Time for diagonalization                   ...    0.001 sec
Threshold for overlap eigenvalues          ... 1.000e-08
Number of eigenvalues below threshold      ... 0
Time for construction of square roots      ...    0.046 sec
Total time needed                          ...    0.047 sec

-------------------
DFT GRID GENERATION
-------------------

General Integration Accuracy     IntAcc      ...  4.670
Radial Grid Type                 RadialGrid  ... Gauss-Chebyshev
Angular Grid (max. acc.)         AngularGrid ... Lebedev-302
Angular grid pruning method      GridPruning ... 3 (G Style)
Weight generation scheme         WeightScheme... Becke
Basis function cutoff            BFCut       ...    1.0000e-10
Integration weight cutoff        WCut        ...    1.0000e-14
Grids for H and He will be reduced by one unit

# of grid points (after initial pruning)     ...   9664 (   0.0 sec)
# of grid points (after weights+screening)   ...   9664 (   0.0 sec)
Grid point division into batches done        ...    0.1 sec
Reduced shell lists constructed in    0.1 sec

Total number of grid points                  ...     9664
Total number of batches                      ...      152
Average number of points per batch           ...       63
Average number of grid points per atom       ...     9664
Average number of shells per batch           ...     3.43 (18.05%)
Average number of basis functions per batch  ...    10.29 (15.35%)
Average number of large shells per batch     ...     1.71 (50.00%)
Average number of large basis fcns per batch ...     3.43 (33.33%)
Maximum spatial batch extension              ...  20.42, 20.42, 20.42 au
Average spatial batch extension              ...   0.71,  0.70,  0.68 au

Time for grid setup =    1.876 sec

------------------------------
INITIAL GUESS: MODEL POTENTIAL
------------------------------
Loading Hartree-Fock densities                     ... done
Calculating cut-offs                               ... done
Setting up the integral package                    ... done
Initializing the effective Hamiltonian             ... done
Starting the Coulomb interaction                   ... done (   0.0 sec)
Reading the grid                                   ... done
Mapping shells                                     ... done
Starting the XC term evaluation                    ... done (   0.0 sec)
  promolecular density results
     # of electrons  =     28.000038162
     EX              =    -61.494585536
     EC              =     -1.267234068
     EX+EC           =    -62.761819604
Transforming the Hamiltonian                       ... done (   0.0 sec)
Diagonalizing the Hamiltonian                      ... done (   0.0 sec)
Back transforming the eigenvectors                 ... done (   0.0 sec)
Now organizing SCF variables                       ... done
                      ------------------
                      INITIAL GUESS DONE (   2.0 sec)
                      ------------------
--------------
SCF ITERATIONS
--------------
ITER       Energy         Delta-E        Max-DP      RMS-DP      [F,P]     Damp
               ***  Starting incremental Fock matrix formation  ***
  0  -1508.0074151324   0.000000000000 0.01491210  0.00063899  0.2001928 0.7000
  1  -1508.0205949068  -0.013179774422 0.00632746  0.00023085  0.0628481 0.7000
                               ***Turning on DIIS***
  2  -1508.0253085529  -0.004713646101 0.00643967  0.00027222  0.0252750 0.0000
  3  -1508.0370046487  -0.011696095740 0.00383420  0.00016556  0.0168407 0.0000
  4  -1508.0371546429  -0.000149994228 0.00187768  0.00008685  0.0178478 0.0000
  5  -1508.0374097466  -0.000255103685 0.00239132  0.00004817  0.0030596 0.0000
  6  -1508.0374548941  -0.000045147500 0.00248373  0.00004493  0.0017833 0.0000
  7  -1508.0374848655  -0.000029971398 0.00300559  0.00005295  0.0014965 0.0000
  8  -1508.0375117851  -0.000026919670 0.00369856  0.00006473  0.0011490 0.0000
  9  -1508.0375358090  -0.000024023890 0.00528383  0.00009574  0.0007802 0.0000
 10  -1508.0375608930  -0.000025083988 0.00102980  0.00001989  0.0002466 0.0000
 11  -1508.0375640055  -0.000003112470 0.00040698  0.00000775  0.0002601 0.0000
 12  -1508.0375651904  -0.000001184895 0.00021027  0.00000518  0.0000569 0.0000
                 **** Energy Check signals convergence ****

               *****************************************************
               *                     SUCCESS                       *
               *           SCF CONVERGED AFTER  13 CYCLES          *
               *****************************************************


Setting up the DFT-NL grid :

General Integration Accuracy     IntAcc      ...  4.340
Radial Grid Type                 RadialGrid  ... Gauss-Chebyshev
Angular Grid (max. acc.)         AngularGrid ... Lebedev-110
Angular grid pruning method      GridPruning ... 3 (G Style)
Weight generation scheme         WeightScheme... Becke
Basis function cutoff            BFCut       ...    1.0000e-10
Integration weight cutoff        WCut        ...    1.0000e-14
Grids for H and He will be reduced by one unit

# of grid points (after initial pruning)     ...   2912 (   0.0 sec)
# of grid points (after weights+screening)   ...   2912 (   0.0 sec)
Grid point division into batches done        ...    0.0 sec
Reduced shell lists constructed in    0.0 sec

Total number of grid points                  ...     2912
Total number of batches                      ...       46
Average number of points per batch           ...       63
Average number of grid points per atom       ...     2912
Average number of shells per batch           ...     4.67 (24.56%)
Average number of basis functions per batch  ...    14.00 (20.90%)
Average number of large shells per batch     ...     4.00 (85.71%)
Average number of large basis fcns per batch ...    10.67 (76.19%)
Maximum spatial batch extension              ...  17.39, 26.34, 26.34 au
Average spatial batch extension              ...   0.76,  1.15,  1.15 au

Final grid set up in    1.0 sec

-------------------------------------------------------------------------------
                         DFT-NL dispersion correction                          
-------------------------------------------------------------------------------

SC Energy -1508.037565825 
NL    Energy 0.116879460 
SC+NL Energy -1507.920686365 
NL done in    1.3 sec
-------------------------------------------------------------------------------

----------------
TOTAL SCF ENERGY
----------------

Total Energy       :        -1507.92068637 Eh          -41032.60793 eV

Components:
Nuclear Repulsion  :            0.00000000 Eh               0.00000 eV
Electronic Energy  :        -1507.92068637 Eh          -41032.60793 eV
One Electron Energy:        -2088.85704522 Eh          -56840.68993 eV
Two Electron Energy:          580.93635885 Eh           15808.08199 eV

Virial components:
Potential Energy   :        -3013.70189273 Eh          -82006.99766 eV
Kinetic Energy     :         1505.78120636 Eh           40974.38972 eV
Virial Ratio       :            2.00142084


DFT components:
N(Alpha)           :       14.000000552041 electrons
N(Beta)            :       13.000000552436 electrons
N(Total)           :       27.000001104477 electrons
E(X)               :      -48.597184926598 Eh       
E(C)               :       -1.479605128192 Eh       
NL Energy, E(C,NL) :        0.116879459607 Eh       
E(XC)              :      -49.959910595183 Eh       
DFET-embed. en.    :        0.000000000000 Eh       

---------------
SCF CONVERGENCE
---------------

  Last Energy change         ...   -6.3446e-07  Tolerance :   1.0000e-06
  Last MAX-Density change    ...    1.6015e-04  Tolerance :   1.0000e-05
  Last RMS-Density change    ...    3.9236e-06  Tolerance :   1.0000e-06
  Last DIIS Error            ...    1.4736e-05  Tolerance :   1.0000e-06

             **** THE GBW FILE WAS UPDATED (Ni+.gbw) ****
             **** DENSITY FILE WAS UPDATED (Ni+.scfp) ****
             **** ENERGY FILE WAS UPDATED (Ni+.en.tmp) ****
----------------------
UHF SPIN CONTAMINATION
----------------------

Warning: in a DFT calculation there is little theoretical justification to 
         calculate <S**2> as in Hartree-Fock theory. We will do it anyways
         but you should keep in mind that the values have only limited relevance

Expectation value of <S**2>     :     0.754522
Ideal value S*(S+1) for S=0.5   :     0.750000
Deviation                       :     0.004522

             **** THE GBW FILE WAS UPDATED (Ni+.gbw) ****
             **** DENSITY FILE WAS UPDATED (Ni+.scfp) ****
----------------
ORBITAL ENERGIES
----------------
                 SPIN UP ORBITALS
  NO   OCC          E(Eh)            E(eV) 
   0   1.0000    -300.636902     -8180.7460 
   1   1.0000     -36.278481      -987.1877 
   2   1.0000     -31.616849      -860.3382 
   3   1.0000     -31.614469      -860.2734 
   4   1.0000     -31.580664      -859.3536 
   5   1.0000      -4.450885      -121.1147 
   6   1.0000      -3.041136       -82.7535 
   7   1.0000      -3.036532       -82.6282 
   8   1.0000      -2.972236       -80.8786 
   9   1.0000      -0.721964       -19.6456 
  10   1.0000      -0.691284       -18.8108 
  11   1.0000      -0.662751       -18.0344 
  12   1.0000      -0.660699       -17.9785 
  13   1.0000      -0.651502       -17.7283 
  14   0.0000      -0.296312        -8.0631 
  15   0.0000      -0.166021        -4.5177 
  16   0.0000      -0.165721        -4.5095 
  17   0.0000      -0.161038        -4.3821 
  18   0.0000      -0.012187        -0.3316 
  19   0.0000      -0.001387        -0.0377 
  20   0.0000      -0.001159        -0.0315 
  21   0.0000       0.003165         0.0861 
  22   0.0000       0.054461         1.4820 
  23   0.0000       0.055779         1.5178 
  24   0.0000       0.059867         1.6291 
  25   0.0000       0.060160         1.6370 
  26   0.0000       0.061486         1.6731 
  27   0.0000       0.495667        13.4878 
  28   0.0000       0.496490        13.5102 
  29   0.0000       0.508361        13.8332 
  30   0.0000       0.884210        24.0606 
  31   0.0000       0.887436        24.1484 
  32   0.0000       0.900243        24.4969 
  33   0.0000       0.901104        24.5203 
  34   0.0000       0.905373        24.6365 
  35   0.0000       2.744613        74.6847 
  36   0.0000       2.747851        74.7728 
  37   0.0000       2.785390        75.7943 
  38   0.0000       2.847937        77.4963 
  39   0.0000       2.847982        77.4975 
  40   0.0000       2.864931        77.9587 
  41   0.0000       2.869509        78.0833 
  42   0.0000       2.880133        78.3724 
  43   0.0000       2.885804        78.5267 
  44   0.0000       2.886798        78.5538 
  45   0.0000       2.889509        78.6275 
  46   0.0000       3.965386       107.9037 
  47   0.0000       3.994042       108.6834 
  48   0.0000       4.016196       109.2863 
  49   0.0000       4.017843       109.3311 
  50   0.0000       4.025428       109.5375 
  51   0.0000      11.304196       307.6028 
  52   0.0000      11.305557       307.6398 
  53   0.0000      11.335743       308.4613 
  54   0.0000      11.337438       308.5074 
  55   0.0000      11.348296       308.8028 
  56   0.0000      11.371811       309.4427 
  57   0.0000      11.373505       309.4888 
  58   0.0000      11.374125       309.5057 
  59   0.0000      11.375179       309.5344 
  60   0.0000      11.665295       317.4288 
  61   0.0000      11.666200       317.4534 
  62   0.0000      11.699644       318.3635 
  63   0.0000      11.727764       319.1287 
  64   0.0000      11.736852       319.3760 
  65   0.0000      11.738418       319.4186 
  66   0.0000      11.742375       319.5263 

                 SPIN DOWN ORBITALS
  NO   OCC          E(Eh)            E(eV) 
   0   1.0000    -300.636404     -8180.7325 
   1   1.0000     -36.251236      -986.4463 
   2   1.0000     -31.587923      -859.5511 
   3   1.0000     -31.587077      -859.5281 
   4   1.0000     -31.573167      -859.1495 
   5   1.0000      -4.398831      -119.6983 
   6   1.0000      -2.963304       -80.6356 
   7   1.0000      -2.962973       -80.6266 
   8   1.0000      -2.953968       -80.3815 
   9   1.0000      -0.674404       -18.3515 
  10   1.0000      -0.634774       -17.2731 
  11   1.0000      -0.631963       -17.1966 
  12   1.0000      -0.618093       -16.8192 
  13   0.0000      -0.294061        -8.0018 
  14   0.0000      -0.233439        -6.3522 
  15   0.0000      -0.164540        -4.4773 
  16   0.0000      -0.163244        -4.4421 
  17   0.0000      -0.158655        -4.3172 
  18   0.0000      -0.007825        -0.2129 
  19   0.0000       0.000050         0.0014 
  20   0.0000       0.000887         0.0241 
  21   0.0000       0.004724         0.1285 
  22   0.0000       0.063691         1.7331 
  23   0.0000       0.063979         1.7410 
  24   0.0000       0.064649         1.7592 
  25   0.0000       0.064659         1.7595 
  26   0.0000       0.065622         1.7857 
  27   0.0000       0.500216        13.6116 
  28   0.0000       0.501626        13.6499 
  29   0.0000       0.510864        13.9013 
  30   0.0000       0.891886        24.2695 
  31   0.0000       0.906371        24.6636 
  32   0.0000       0.907616        24.6975 
  33   0.0000       0.911220        24.7956 
  34   0.0000       0.912892        24.8411 
  35   0.0000       2.782670        75.7203 
  36   0.0000       2.783645        75.7468 
  37   0.0000       2.796896        76.1074 
  38   0.0000       2.882998        78.4504 
  39   0.0000       2.887881        78.5832 
  40   0.0000       2.889010        78.6140 
  41   0.0000       2.904955        79.0478 
  42   0.0000       2.905012        79.0494 
  43   0.0000       2.907839        79.1263 
  44   0.0000       2.908008        79.1309 
  45   0.0000       2.908455        79.1431 
  46   0.0000       4.008915       109.0881 
  47   0.0000       4.039476       109.9197 
  48   0.0000       4.041715       109.9806 
  49   0.0000       4.052688       110.2793 
  50   0.0000       4.069510       110.7370 
  51   0.0000      11.370933       309.4188 
  52   0.0000      11.377037       309.5849 
  53   0.0000      11.380471       309.6784 
  54   0.0000      11.380931       309.6909 
  55   0.0000      11.386140       309.8326 
  56   0.0000      11.401356       310.2467 
  57   0.0000      11.401625       310.2540 
  58   0.0000      11.403537       310.3060 
  59   0.0000      11.405704       310.3650 
  60   0.0000      11.746088       319.6273 
  61   0.0000      11.748438       319.6912 
  62   0.0000      11.749138       319.7103 
  63   0.0000      11.778537       320.5103 
  64   0.0000      11.780507       320.5639 
  65   0.0000      11.782890       320.6287 
  66   0.0000      11.783698       320.6507 

                    ********************************
                    * MULLIKEN POPULATION ANALYSIS *
                    ********************************

--------------------------------------------
MULLIKEN ATOMIC CHARGES AND SPIN POPULATIONS
--------------------------------------------
   0 Ni:    1.000000    1.000000
Sum of atomic charges         :    1.0000000
Sum of atomic spin populations:    1.0000000

-----------------------------------------------------
MULLIKEN REDUCED ORBITAL CHARGES AND SPIN POPULATIONS
-----------------------------------------------------
CHARGE
  0 Nis       :     6.004082  s :     6.004082
      pz      :     3.999948  p :    11.999866
      px      :     3.999961
      py      :     3.999958
      dz2     :     1.955006  d :     8.995869
      dxz     :     1.576846
      dyz     :     1.474801
      dx2y2   :     1.999459
      dxy     :     1.989758
      f0      :     0.000023  f :     0.000134
      f+1     :     0.000022
      f-1     :     0.000024
      f+2     :     0.000000
      f-2     :     0.000028
      f+3     :     0.000018
      f-3     :     0.000018
      g0      :     0.000006  g :     0.000049
      g+1     :     0.000004
      g-1     :     0.000003
      g+2     :     0.000003
      g-2     :     0.000009
      g+3     :     0.000005
      g-3     :     0.000005
      g+4     :     0.000007
      g-4     :     0.000007

SPIN
  0 Nis       :    -0.004007  s :    -0.004007
      pz      :     0.000005  p :    -0.000004
      px      :    -0.000006
      py      :    -0.000003
      dz2     :     0.044965  d :     1.003986
      dxz     :     0.423140
      dyz     :     0.525186
      dx2y2   :     0.000526
      dxy     :     0.010169
      f0      :    -0.000019  f :     0.000004
      f+1     :    -0.000003
      f-1     :    -0.000006
      f+2     :     0.000000
      f-2     :     0.000013
      f+3     :     0.000010
      f-3     :     0.000010
      g0      :    -0.000003  g :     0.000021
      g+1     :     0.000000
      g-1     :     0.000000
      g+2     :     0.000003
      g-2     :     0.000005
      g+3     :     0.000005
      g-3     :     0.000005
      g+4     :     0.000003
      g-4     :     0.000003


                     *******************************
                     * LOEWDIN POPULATION ANALYSIS *
                     *******************************

-------------------------------------------
LOEWDIN ATOMIC CHARGES AND SPIN POPULATIONS
-------------------------------------------
   0 Ni:    1.000000    1.000000

----------------------------------------------------
LOEWDIN REDUCED ORBITAL CHARGES AND SPIN POPULATIONS
----------------------------------------------------
CHARGE
  0 Nis       :     6.004082  s :     6.004082
      pz      :     3.999948  p :    11.999866
      px      :     3.999961
      py      :     3.999958
      dz2     :     1.955006  d :     8.995869
      dxz     :     1.576846
      dyz     :     1.474801
      dx2y2   :     1.999459
      dxy     :     1.989758
      f0      :     0.000023  f :     0.000134
      f+1     :     0.000022
      f-1     :     0.000024
      f+2     :     0.000000
      f-2     :     0.000028
      f+3     :     0.000018
      f-3     :     0.000018
      g0      :     0.000006  g :     0.000049
      g+1     :     0.000004
      g-1     :     0.000003
      g+2     :     0.000003
      g-2     :     0.000009
      g+3     :     0.000005
      g-3     :     0.000005
      g+4     :     0.000007
      g-4     :     0.000007

SPIN
  0 Nis       :    -0.004007  s :    -0.004007
      pz      :     0.000005  p :    -0.000004
      px      :    -0.000006
      py      :    -0.000003
      dz2     :     0.044965  d :     1.003986
      dxz     :     0.423140
      dyz     :     0.525186
      dx2y2   :     0.000526
      dxy     :     0.010169
      f0      :    -0.000019  f :     0.000004
      f+1     :    -0.000003
      f-1     :    -0.000006
      f+2     :     0.000000
      f-2     :     0.000013
      f+3     :     0.000010
      f-3     :     0.000010
      g0      :    -0.000003  g :     0.000021
      g+1     :     0.000000
      g-1     :     0.000000
      g+2     :     0.000003
      g-2     :     0.000005
      g+3     :     0.000005
      g-3     :     0.000005
      g+4     :     0.000003
      g-4     :     0.000003


                      *****************************
                      * MAYER POPULATION ANALYSIS *
                      *****************************

  NA   - Mulliken gross atomic population
  ZA   - Total nuclear charge
  QA   - Mulliken gross atomic charge
  VA   - Mayer's total valence
  BVA  - Mayer's bonded valence
  FA   - Mayer's free valence

  ATOM       NA         ZA         QA         VA         BVA        FA
  0 Ni    27.0000    28.0000     1.0000     1.0090     0.0000     1.0090

  Mayer bond orders larger than 0.100000


-------
TIMINGS
-------

Total SCF time: 0 days 0 hours 1 min 37 sec 

Total time                  ....      97.572 sec
Sum of individual times     ....      95.346 sec  ( 97.7%)

Fock matrix formation       ....      90.602 sec  ( 92.9%)
  XC integration            ....      87.673 sec  ( 96.8% of F)
    Basis function eval.    ....       0.010 sec  (  0.0% of XC)
    Density eval.           ....       0.026 sec  (  0.0% of XC)
    XC-Functional eval.     ....       0.020 sec  (  0.0% of XC)
    XC-Potential eval.      ....       0.037 sec  (  0.0% of XC)
Diagonalization             ....       1.224 sec  (  1.3%)
Density matrix formation    ....       0.005 sec  (  0.0%)
Population analysis         ....       0.380 sec  (  0.4%)
Initial guess               ....       0.120 sec  (  0.1%)
Orbital Transformation      ....       0.000 sec  (  0.0%)
Orbital Orthonormalization  ....       0.000 sec  (  0.0%)
DIIS solution               ....       0.125 sec  (  0.1%)
Grid generation             ....       2.890 sec  (  3.0%)

-------------------------   --------------------
FINAL SINGLE POINT ENERGY     -1507.920686365237
-------------------------   --------------------


----------------------------------------------------------------------------
                           ORCA NUMERICAL GRADIENT
                              (28-process run)
----------------------------------------------------------------------------

I state                        ... 1
J state                        ... 0
Number of atoms                ... 1
Derivative's order of accuracy ... 2
Central differences            ... used
Number of displacements        ... 6
Numerical increment            ... 5.000e-03 bohr
Translation invariance         ... used

The output will be reduced. Please look at the following files:
SCF program output             ... >Ni+.lastscf
Integral program output        ... >Ni+.lastint
Gradient program output        ... >Ni+.lastgrad


     Note:   There are more processes than displacements to do
     ===>:   Reducing number of processes to   0


------------------------------
CARTESIAN GRADIENT (NUMERICAL)
-------------------------------
   1   Ni  :    0.000000000    0.000000000    0.000000000

Norm of the cartesian gradient     ...    0.000000000
RMS gradient                       ...    0.000000000
MAX gradient                       ...    0.000000000
*** glibc detected *** /mnt/storage/software/apps/orca-4.2.0/orca_4_2_0_linux_x86-64_openmpi314/orca: free(): invalid next size (fast): 0x000000000cebce60 ***
======= Backtrace: =========
[0xb0928aa]
[0xb09567c]
[0x76d903]
[0x76fb95]
[0x915b4f]
[0x918f24]
[0x487649]
[0xb05c99e]
[0x4870d9]
======= Memory map: ========
00400000-0bf42000 r-xp 00000000 00:2b 4876154                            /mnt/storage/software/apps/orca-4.2.0/orca_4_2_0_linux_x86-64_openmpi314/orca
0c141000-0c203000 rw-p 0bb41000 00:2b 4876154                            /mnt/storage/software/apps/orca-4.2.0/orca_4_2_0_linux_x86-64_openmpi314/orca
0c203000-0c77a000 rw-p 00000000 00:00 0 
0cc79000-0cee8000 rw-p 00000000 00:00 0                                  [heap]
2b1e983fd000-2b1e98bfe000 rw-p 00000000 00:00 0 
2b1e993fd000-2b1e9bac0000 rw-p 00000000 00:00 0 
2b1e9c000000-2b1e9c0b3000 rw-p 00000000 00:00 0 
2b1e9c0b3000-2b1ea0000000 ---p 00000000 00:00 0 
7fffb3873000-7fffb3974000 rw-p 00000000 00:00 0                          [stack]
7fffb39ce000-7fffb39d0000 r-xp 00000000 00:00 0                          [vdso]
ffffffffff600000-ffffffffff601000 r-xp 00000000 00:00 0                  [vsyscall]
