
                                 *****************
                                 * O   R   C   A *
                                 *****************

           --- An Ab Initio, DFT and Semiempirical electronic structure package ---

                  #######################################################
                  #                        -***-                        #
                  #          Department of theory and spectroscopy      #
                  #               Directorship: Frank Neese             #
                  #        Max Planck Institute fuer Kohlenforschung    #
                  #                Kaiser Wilhelm Platz 1               #
                  #                 D-45470 Muelheim/Ruhr               #
                  #                      Germany                        #
                  #                                                     #
                  #                  All rights reserved                #
                  #                        -***-                        #
                  #######################################################


                         Program Version 4.2.0 -  RELEASE  -


 With contributions from (in alphabetic order):
   Daniel Aravena         : Magnetic Suceptibility
   Michael Atanasov       : Ab Initio Ligand Field Theory (pilot matlab implementation)
   Alexander A. Auer      : GIAO ZORA, VPT2
   Ute Becker             : Parallelization
   Giovanni Bistoni       : ED, misc. LED, open-shell LED, HFLED
   Martin Brehm           : Molecular dynamics
   Dmytro Bykov           : SCF Hessian
   Vijay G. Chilkuri      : MRCI spin determinant printing, contributions to CSF-ICE
   Dipayan Datta          : RHF DLPNO-CCSD density
   Achintya Kumar Dutta   : EOM-CC, STEOM-CC
   Dmitry Ganyushin       : Spin-Orbit,Spin-Spin,Magnetic field MRCI
   Miquel Garcia          : C-PCM Hessian, Gaussian charge scheme
   Yang Guo               : DLPNO-NEVPT2, CIM, IAO-localization
   Andreas Hansen         : Spin unrestricted coupled pair/coupled cluster methods
   Benjamin Helmich-Paris : CASSCF linear response (MC-RPA)
   Lee Huntington         : MR-EOM, pCC
   Robert Izsak           : Overlap fitted RIJCOSX, COSX-SCS-MP3, EOM
   Christian Kollmar      : KDIIS, OOCD, Brueckner-CCSD(T), CCSD density
   Simone Kossmann        : Meta GGA functionals, TD-DFT gradient, OOMP2, MP2 Hessian
   Martin Krupicka        : AUTO-CI
   Lucas Lang             : DCDCAS
   Dagmar Lenk            : GEPOL surface, SMD
   Dimitrios Liakos       : Extrapolation schemes; Compound Job, initial MDCI parallelization
   Dimitrios Manganas     : Further ROCIS development; embedding schemes
   Dimitrios Pantazis     : SARC Basis sets
   Taras Petrenko         : DFT Hessian,TD-DFT gradient, ASA, ECA, R-Raman, ABS, FL, XAS/XES, NRVS
   Peter Pinski           : DLPNO-MP2, DLPNO-MP2 Gradient
   Christoph Reimann      : Effective Core Potentials
   Marius Retegan         : Local ZFS, SOC
   Christoph Riplinger    : Optimizer, TS searches, QM/MM, DLPNO-CCSD(T), (RO)-DLPNO pert. Triples
   Tobias Risthaus        : Range-separated hybrids, TD-DFT gradient, RPA, STAB
   Michael Roemelt        : Original ROCIS implementation
   Masaaki Saitow         : Open-shell DLPNO-CCSD energy and density
   Barbara Sandhoefer     : DKH picture change effects
   Avijit Sen             : IP-ROCIS
   Kantharuban Sivalingam : CASSCF convergence, NEVPT2, FIC-MRCI
   Bernardo de Souza      : ESD, SOC TD-DFT
   Georgi Stoychev        : AutoAux, RI-MP2 NMR
   Willem Van den Heuvel  : Paramagnetic NMR
   Boris Wezisla          : Elementary symmetry handling
   Frank Wennmohs         : Technical directorship


 We gratefully acknowledge several colleagues who have allowed us to
 interface, adapt or use parts of their codes:
   Stefan Grimme, W. Hujo, H. Kruse,             : VdW corrections, initial TS optimization,
                  C. Bannwarth                     DFT functionals, gCP, sTDA/sTD-DF
   Ed Valeev, F. Pavosevic, A. Kumar             : LibInt (2-el integral package), F12 methods
   Garnet Chan, S. Sharma, J. Yang, R. Olivares  : DMRG
   Ulf Ekstrom                                   : XCFun DFT Library
   Mihaly Kallay                                 : mrcc  (arbitrary order and MRCC methods)
   Andreas Klamt, Michael Diedenhofen            : otool_cosmo (COSMO solvation model)
   Jiri Pittner, Ondrej Demel                    : Mk-CCSD
   Frank Weinhold                                : gennbo (NPA and NBO analysis)
   Christopher J. Cramer and Donald G. Truhlar   : smd solvation model
   Lars Goerigk                                  : TD-DFT with DH, B97 family of functionals
   V. Asgeirsson, H. Jonsson                     : NEB implementation
   FAccTs GmbH                                   : IRC, NEB, NEB-TS, Multilevel, MM, QM/MM, CI optimization
   S Lehtola, MJT Oliveira, MAL Marques          : LibXC Library


 Your calculation uses the libint2 library for the computation of 2-el integrals
 For citations please refer to: http://libint.valeyev.net

 Your ORCA version has been built with support for libXC version: 4.2.3
 For citations please refer to: https://tddft.org/programs/libxc/

 This ORCA versions uses:
   CBLAS   interface :  Fast vector & matrix operations
   LAPACKE interface :  Fast linear algebra routines
   SCALAPACK package :  Parallel linear algebra routines


Your calculation utilizes the DFT-NL dispersion correction.
Cite in your paper:
Vydrov, O. A.; Van Voorhis, T. J. Chem. Phys. 2010, 133, 244103
Hujo, W.; Grimme, S. J. Chem. Theory Comput. 2011, 7, 3866 
   

----- Orbital basis set information -----
Your calculation utilizes the basis: def2-TZVPPD
   F. Weigend and R. Ahlrichs, Phys. Chem. Chem. Phys. 7, 3297 (2005).
   D. Rappoport and F. Furche, J. Chem. Phys. 133 134105 (2010).

----- AuxJK basis set information -----
Your calculation utilizes the auxiliary basis: def2/JK
   H-Ba, Hf-Rn: F. Weigend, J. Comput. Chem. 29, 167 (2008).

================================================================================
                                        WARNINGS
                       Please study these warnings very carefully!
================================================================================

INFO   : Found keyword 'NumGrad' for Energy calculation
  ===> : Setting RunTyp to EnGrad

WARNING: Numerical Gradient with sloppy Convergence Criteria    
         Your results may be not reliable!                      
         Please choose at least TightSCF!                       

WARNING: your system is open-shell and RHF/RKS was chosen
  ===> : WILL SWITCH to UHF/UKS


INFO   : the flag for use of LIBINT has been found!

================================================================================
                                       INPUT FILE
================================================================================
NAME = NiCH2+.in
|  1> #
|  2> # NiCH2+ wB97M-V/Def2-TZVPPD
|  3> #
|  4> ! wb97m-v def2-tzvppd def2/jk grid4 nofinalgrid numgrad
|  5> 
|  6> *xyz 1 2
|  7> C          0.00000        0.00000        0.00000
|  8> Ni         0.00000        0.00000        1.78130
|  9> H          0.93287        0.00000       -0.58718
| 10> H         -0.93287        0.00000       -0.58718
| 11> *
| 12> 
| 13> %maxcore 5000
| 14> 
| 15> %pal
| 16> nprocs = 28
| 17> end
| 18> 
| 19> 
| 20>                          ****END OF INPUT****
================================================================================

                     *******************************
                     * Energy+Gradient Calculation *
                     *******************************

---------------------------------
CARTESIAN COORDINATES (ANGSTROEM)
---------------------------------
  C      0.000000    0.000000    0.000000
  Ni     0.000000    0.000000    1.781300
  H      0.932870    0.000000   -0.587180
  H     -0.932870    0.000000   -0.587180

----------------------------
CARTESIAN COORDINATES (A.U.)
----------------------------
  NO LB      ZA    FRAG     MASS         X           Y           Z
   0 C     6.0000    0    12.011    0.000000    0.000000    0.000000
   1 Ni   28.0000    0    58.700    0.000000    0.000000    3.366169
   2 H     1.0000    0     1.008    1.762869    0.000000   -1.109609
   3 H     1.0000    0     1.008   -1.762869    0.000000   -1.109609

--------------------------------
INTERNAL COORDINATES (ANGSTROEM)
--------------------------------
 C      0   0   0     0.000000000000     0.00000000     0.00000000
 Ni     1   0   0     1.781300000000     0.00000000     0.00000000
 H      1   2   0     1.102282536059   122.18770232     0.00000000
 H      1   2   3     1.102282536059   122.18770232   180.00000000

---------------------------
INTERNAL COORDINATES (A.U.)
---------------------------
 C      0   0   0     0.000000000000     0.00000000     0.00000000
 Ni     1   0   0     3.366169162354     0.00000000     0.00000000
 H      1   2   0     2.083012115355   122.18770232     0.00000000
 H      1   2   3     2.083012115355   122.18770232   180.00000000

---------------------
BASIS SET INFORMATION
---------------------
There are 3 groups of distinct atoms

 Group   1 Type C   : 12s6p3d1f contracted to 6s3p3d1f pattern {621111/411/111/1}
 Group   2 Type Ni  : 17s13p7d2f1g contracted to 6s6p4d2f1g pattern {842111/631111/4111/11/1}
 Group   3 Type H   : 5s3p1d contracted to 3s3p1d pattern {311/111/1}

Atom   0C    basis set group =>   1
Atom   1Ni   basis set group =>   2
Atom   2H    basis set group =>   3
Atom   3H    basis set group =>   3
----------------------------------
AUXILIARY/JK BASIS SET INFORMATION
----------------------------------
There are 3 groups of distinct atoms

 Group   1 Type C   : 14s10p6d2f1g contracted to 10s8p5d1f1g pattern {5111111111/31111111/21111/2/1}
 Group   2 Type Ni  : 19s14p12d10f7g3h1i contracted to 16s13p11d9f5g3h1i pattern {4111111111111111/2111111111111/21111111111/211111111/31111/111/1}
 Group   3 Type H   : 4s2p2d contracted to 2s2p2d pattern {31/11/11}

Atom   0C    basis set group =>   1
Atom   1Ni   basis set group =>   2
Atom   2H    basis set group =>   3
Atom   3H    basis set group =>   3


           ************************************************************
           *        Program running with 28 parallel MPI-processes    *
           *              working on a common directory               *
           ************************************************************
------------------------------------------------------------------------------
                           ORCA GTO INTEGRAL CALCULATION
------------------------------------------------------------------------------

                         BASIS SET STATISTICS AND STARTUP INFO

 # of primitive gaussian shells          ...   80
 # of primitive gaussian functions       ...  204
 # of contracted shells                  ...   46
 # of contracted basis functions         ...  138
 Highest angular momentum                ...    4
 Maximum contraction depth               ...    8
 Integral package used                   ... LIBINT
 Integral threshhold            Thresh   ...  1.000e-10
 Primitive cut-off              TCut     ...  1.000e-11


------------------------------ INTEGRAL EVALUATION ----------------------------


 * One electron integrals 
 Pre-screening matrix                    ... done
 Shell pair data                         ... done (   0.000 sec)



           ************************************************************
           *        Program running with 28 parallel MPI-processes    *
           *              working on a common directory               *
           ************************************************************
-------------------------------------------------------------------------------
                                 ORCA SCF
-------------------------------------------------------------------------------

------------
SCF SETTINGS
------------
Hamiltonian:
 Density Functional     Method          .... DFT(GTOs)
 Exchange Functional    Exchange        .... WB97M-V
 Correlation Functional Correlation     .... WB97M-V
 Gradients option       PostSCFGGA      .... off
 Hybrid DFT is turned on
   Fraction HF Exchange ScalHFX         ....  0.150000
   Scaling of DF-GGA-X  ScalDFX         ....  0.000000
   Scaling of DF-GGA-C  ScalDFC         ....  1.000000
   Scaling of DF-LDA-C  ScalLDAC        ....  1.000000
   Perturbative correction              ....  0.000000
   Density functional embedding theory  .... OFF
 Long-range corrected/Screened/Range-Separated Hybrid DFT is turned on
   Amount of maximum screened exact exchange              ....  0.850000
   Range separation parameter mu (erf(mu*r12)/r12)        ....  0.300000
   NL short-range parameter             ....  6.000000
   NL long-range parameter              ....  0.010000


General Settings:
 Integral files         IntName         .... NiCH2+
 Hartree-Fock type      HFTyp           .... UHF
 Total Charge           Charge          ....    1
 Multiplicity           Mult            ....    2
 Number of Electrons    NEL             ....   35
 Basis Dimension        Dim             ....  138
 Nuclear Repulsion      ENuc            ....     67.5942370709 Eh

Convergence Acceleration:
 DIIS                   CNVDIIS         .... on
   Start iteration      DIISMaxIt       ....    12
   Startup error        DIISStart       ....  0.200000
   # of expansion vecs  DIISMaxEq       ....     5
   Bias factor          DIISBfac        ....   1.050
   Max. coefficient     DIISMaxC        ....  10.000
 Newton-Raphson         CNVNR           .... off
 SOSCF                  CNVSOSCF        .... off
 Level Shifting         CNVShift        .... on
   Level shift para.    LevelShift      ....    0.2500
   Turn off err/grad.   ShiftErr        ....    0.0010
 Zerner damping         CNVZerner       .... off
 Static damping         CNVDamp         .... on
   Fraction old density DampFac         ....    0.7000
   Max. Damping (<1)    DampMax         ....    0.9800
   Min. Damping (>=0)   DampMin         ....    0.0000
   Turn off err/grad.   DampErr         ....    0.1000
 Fernandez-Rico         CNVRico         .... off

SCF Procedure:
 Maximum # iterations   MaxIter         ....   125
 SCF integral mode      SCFMode         .... Direct
   Integral package                     .... LIBINT
 Reset frequency        DirectResetFreq ....    20
 Integral Threshold     Thresh          ....  1.000e-10 Eh
 Primitive CutOff       TCut            ....  1.000e-11 Eh

Convergence Tolerance:
 Convergence Check Mode ConvCheckMode   .... Total+1el-Energy
 Convergence forced     ConvForced      .... 0
 Energy Change          TolE            ....  1.000e-06 Eh
 1-El. energy change                    ....  1.000e-03 Eh
 DIIS Error             TolErr          ....  1.000e-06


Diagonalization of the overlap matrix:
Smallest eigenvalue                        ... 7.188e-05
Time for diagonalization                   ...    0.003 sec
Threshold for overlap eigenvalues          ... 1.000e-08
Number of eigenvalues below threshold      ... 0
Time for construction of square roots      ...    0.037 sec
Total time needed                          ...    0.041 sec

-------------------
DFT GRID GENERATION
-------------------

General Integration Accuracy     IntAcc      ...  4.670
Radial Grid Type                 RadialGrid  ... Gauss-Chebyshev
Angular Grid (max. acc.)         AngularGrid ... Lebedev-302
Angular grid pruning method      GridPruning ... 3 (G Style)
Weight generation scheme         WeightScheme... Becke
Basis function cutoff            BFCut       ...    1.0000e-10
Integration weight cutoff        WCut        ...    1.0000e-14
Grids for H and He will be reduced by one unit

# of grid points (after initial pruning)     ...  22664 (   0.0 sec)
# of grid points (after weights+screening)   ...  22309 (   0.0 sec)
nearest neighbour list constructed           ...    0.0 sec
Grid point re-assignment to atoms done       ...    0.0 sec
Grid point division into batches done        ...    0.1 sec
Reduced shell lists constructed in    0.1 sec

Total number of grid points                  ...    22309
Total number of batches                      ...      350
Average number of points per batch           ...       63
Average number of grid points per atom       ...     5577
Average number of shells per batch           ...    35.14 (76.40%)
Average number of basis functions per batch  ...   105.57 (76.50%)
Average number of large shells per batch     ...    31.71 (90.24%)
Average number of large basis fcns per batch ...    94.00 (89.04%)
Maximum spatial batch extension              ...   3.82, 18.07,  3.21 au
Average spatial batch extension              ...   0.08,  0.17,  0.08 au

Time for grid setup =    1.234 sec

------------------------------
INITIAL GUESS: MODEL POTENTIAL
------------------------------
Loading Hartree-Fock densities                     ... done
Calculating cut-offs                               ... done
Setting up the integral package                    ... done
Initializing the effective Hamiltonian             ... done
Starting the Coulomb interaction                   ... done (   0.0 sec)
Reading the grid                                   ... done
Mapping shells                                     ... done
Starting the XC term evaluation                    ... done (   0.0 sec)
  promolecular density results
     # of electrons  =     35.999068982
     EX              =    -67.184531551
     EC              =     -1.518719673
     EX+EC           =    -68.703251224
Transforming the Hamiltonian                       ... done (   0.0 sec)
Diagonalizing the Hamiltonian                      ... done (   0.0 sec)
Back transforming the eigenvectors                 ... done (   0.0 sec)
Now organizing SCF variables                       ... done
                      ------------------
                      INITIAL GUESS DONE (   2.0 sec)
                      ------------------
--------------
SCF ITERATIONS
--------------
ITER       Energy         Delta-E        Max-DP      RMS-DP      [F,P]     Damp
               ***  Starting incremental Fock matrix formation  ***
  0  -1547.2590042984   0.000000000000 0.01754481  0.00043439  0.1735203 0.7000
  1  -1547.2778079726  -0.018803674188 0.00839737  0.00032311  0.0872441 0.7000
                               ***Turning on DIIS***
  2  -1547.2866059977  -0.008798025114 0.02601939  0.00076192  0.0531512 0.0000
  3  -1547.3059493207  -0.019343322958 0.02148574  0.00026710  0.0285153 0.0000
  4  -1547.3096781641  -0.003728843489 0.01305297  0.00016895  0.0158972 0.0000
  5  -1547.3116694087  -0.001991244593 0.01357990  0.00019085  0.0143050 0.0000
  6  -1547.3133889366  -0.001719527874 0.00596464  0.00009898  0.0183014 0.0000
  7  -1547.3143403932  -0.000951456601 0.00694363  0.00015028  0.0060291 0.0000
  8  -1547.3151909933  -0.000850600067 0.00410057  0.00006845  0.0041498 0.0000
  9  -1547.3154707041  -0.000279710800 0.00380764  0.00005365  0.0027206 0.0000
 10  -1547.3156462777  -0.000175573593 0.00326575  0.00004225  0.0026311 0.0000
 11  -1547.3157717830  -0.000125505280 0.00316155  0.00004081  0.0025258 0.0000
 12  -1547.3158842539  -0.000112470951 0.00375809  0.00004918  0.0024221 0.0000
 13  -1547.3160097805  -0.000125526637 0.00470221  0.00006189  0.0022923 0.0000
 14  -1547.3161566880  -0.000146907480 0.00582642  0.00007718  0.0021632 0.0000
 15  -1547.3163248135  -0.000168125491 0.00168881  0.00002146  0.0020415 0.0000
 16  -1547.3163749165  -0.000050103004 0.01096399  0.00015455  0.0019933 0.0000
 17  -1547.3166389901  -0.000264073620 0.00254716  0.00003444  0.0019062 0.0000
 18  -1547.3167066519  -0.000067661787 0.01566394  0.00023463  0.0015777 0.0000
 19  -1547.3169815493  -0.000274897398 0.00145934  0.00003316  0.0035811 0.0000
               *** Restarting incremental Fock matrix formation ***
                                   *** Resetting DIIS ***
 20  -1547.3169962186  -0.000014669307 0.00066292  0.00001134  0.0011929 0.0000
 21  -1547.3170097327  -0.000013514079 0.00050276  0.00000752  0.0011683 0.0000
 22  -1547.3170187276  -0.000008994858 0.00079733  0.00001205  0.0012034 0.0000
 23  -1547.3170322242  -0.000013496594 0.00155929  0.00002366  0.0011377 0.0000
 24  -1547.3170562996  -0.000024075441 0.00191842  0.00002816  0.0010518 0.0000
 25  -1547.3170837829  -0.000027483325 0.00284789  0.00004074  0.0009870 0.0000
 26  -1547.3171230433  -0.000039260387 0.00566846  0.00008559  0.0009471 0.0000
 27  -1547.3171910278  -0.000067984507 0.00561400  0.00008593  0.0007252 0.0000
 28  -1547.3172450824  -0.000054054594 0.00910785  0.00013175  0.0005484 0.0000
 29  -1547.3173016571  -0.000056574726 0.00331464  0.00004526  0.0002976 0.0000
 30  -1547.3173139216  -0.000012264511 0.00459736  0.00006216  0.0002226 0.0000
 31  -1547.3173252933  -0.000011371682 0.00294818  0.00003934  0.0004243 0.0000
 32  -1547.3173293426  -0.000004049301 0.00035604  0.00000440  0.0001743 0.0000
 33  -1547.3173294955  -0.000000152856 0.00082300  0.00001075  0.0001017 0.0000
 34  -1547.3173300532  -0.000000557699 0.00042883  0.00000566  0.0000231 0.0000
 35  -1547.3173303117  -0.000000258554 0.00031653  0.00000424  0.0000173 0.0000
 36  -1547.3173305167  -0.000000204978 0.00025703  0.00000345  0.0000079 0.0000
                 **** Energy Check signals convergence ****

               *****************************************************
               *                     SUCCESS                       *
               *           SCF CONVERGED AFTER  37 CYCLES          *
               *****************************************************


Setting up the DFT-NL grid :

General Integration Accuracy     IntAcc      ...  4.340
Radial Grid Type                 RadialGrid  ... Gauss-Chebyshev
Angular Grid (max. acc.)         AngularGrid ... Lebedev-110
Angular grid pruning method      GridPruning ... 3 (G Style)
Weight generation scheme         WeightScheme... Becke
Basis function cutoff            BFCut       ...    1.0000e-10
Integration weight cutoff        WCut        ...    1.0000e-14
Grids for H and He will be reduced by one unit

# of grid points (after initial pruning)     ...   6156 (   0.0 sec)
# of grid points (after weights+screening)   ...   6064 (   0.0 sec)
nearest neighbour list constructed           ...    0.0 sec
Grid point re-assignment to atoms done       ...    0.0 sec
Grid point division into batches done        ...    0.0 sec
Reduced shell lists constructed in    0.0 sec

Total number of grid points                  ...     6064
Total number of batches                      ...       97
Average number of points per batch           ...       62
Average number of grid points per atom       ...     1516
Average number of shells per batch           ...    33.60 (73.04%)
Average number of basis functions per batch  ...   102.00 (73.91%)
Average number of large shells per batch     ...    31.20 (92.86%)
Average number of large basis fcns per batch ...    95.20 (93.33%)
Maximum spatial batch extension              ...   3.88, 19.81,  3.48 au
Average spatial batch extension              ...   0.12,  0.46,  0.11 au

Final grid set up in    0.9 sec

-------------------------------------------------------------------------------
                         DFT-NL dispersion correction                          
-------------------------------------------------------------------------------

SC Energy -1547.317330675 
NL    Energy 0.147773040 
SC+NL Energy -1547.169557635 
NL done in    0.6 sec
-------------------------------------------------------------------------------

----------------
TOTAL SCF ENERGY
----------------

Total Energy       :        -1547.16955763 Eh          -42100.62402 eV

Components:
Nuclear Repulsion  :           67.59423707 Eh            1839.33270 eV
Electronic Energy  :        -1614.76379471 Eh          -43939.95672 eV
One Electron Energy:        -2273.65411548 Eh          -61869.27386 eV
Two Electron Energy:          658.89032077 Eh           17929.31714 eV

Virial components:
Potential Energy   :        -3092.15968998 Eh          -84141.94286 eV
Kinetic Energy     :         1544.99013234 Eh           42041.31884 eV
Virial Ratio       :            2.00141064


DFT components:
N(Alpha)           :       18.000003904193 electrons
N(Beta)            :       17.000003399541 electrons
N(Total)           :       35.000007303734 electrons
E(X)               :      -52.494024440493 Eh       
E(C)               :       -1.704787969881 Eh       
NL Energy, E(C,NL) :        0.147773040366 Eh       
E(XC)              :      -54.051039370009 Eh       
DFET-embed. en.    :        0.000000000000 Eh       

---------------
SCF CONVERGENCE
---------------

  Last Energy change         ...   -1.5824e-07  Tolerance :   1.0000e-06
  Last MAX-Density change    ...    5.3266e-05  Tolerance :   1.0000e-05
  Last RMS-Density change    ...    7.2910e-07  Tolerance :   1.0000e-06
  Last DIIS Error            ...    5.6615e-06  Tolerance :   1.0000e-06

             **** THE GBW FILE WAS UPDATED (NiCH2+.gbw) ****
             **** DENSITY FILE WAS UPDATED (NiCH2+.scfp) ****
             **** ENERGY FILE WAS UPDATED (NiCH2+.en.tmp) ****
----------------------
UHF SPIN CONTAMINATION
----------------------

Warning: in a DFT calculation there is little theoretical justification to 
         calculate <S**2> as in Hartree-Fock theory. We will do it anyways
         but you should keep in mind that the values have only limited relevance

Expectation value of <S**2>     :     0.837327
Ideal value S*(S+1) for S=0.5   :     0.750000
Deviation                       :     0.087327

             **** THE GBW FILE WAS UPDATED (NiCH2+.gbw) ****
             **** DENSITY FILE WAS UPDATED (NiCH2+.scfp) ****
----------------
ORBITAL ENERGIES
----------------
                 SPIN UP ORBITALS
  NO   OCC          E(Eh)            E(eV) 
   0   1.0000    -300.640369     -8180.8404 
   1   1.0000     -36.299455      -987.7584 
   2   1.0000     -31.638665      -860.9318 
   3   1.0000     -31.622910      -860.5031 
   4   1.0000     -31.607582      -860.0860 
   5   1.0000     -10.644224      -289.6441 
   6   1.0000      -4.461141      -121.3938 
   7   1.0000      -3.056174       -83.1627 
   8   1.0000      -3.024901       -82.3117 
   9   1.0000      -2.991386       -81.3997 
  10   1.0000      -1.015645       -27.6371 
  11   1.0000      -0.774590       -21.0777 
  12   1.0000      -0.750812       -20.4306 
  13   1.0000      -0.679935       -18.5020 
  14   1.0000      -0.675370       -18.3778 
  15   1.0000      -0.663098       -18.0438 
  16   1.0000      -0.657039       -17.8789 
  17   1.0000      -0.611339       -16.6354 
  18   0.0000      -0.267751        -7.2859 
  19   0.0000      -0.224192        -6.1006 
  20   0.0000      -0.139639        -3.7998 
  21   0.0000      -0.114666        -3.1202 
  22   0.0000      -0.102240        -2.7821 
  23   0.0000      -0.048112        -1.3092 
  24   0.0000      -0.044491        -1.2107 
  25   0.0000      -0.029618        -0.8060 
  26   0.0000      -0.007642        -0.2080 
  27   0.0000      -0.004194        -0.1141 
  28   0.0000       0.030572         0.8319 
  29   0.0000       0.033435         0.9098 
  30   0.0000       0.075876         2.0647 
  31   0.0000       0.078424         2.1340 
  32   0.0000       0.081770         2.2251 
  33   0.0000       0.105517         2.8713 
  34   0.0000       0.113107         3.0778 
  35   0.0000       0.130398         3.5483 
  36   0.0000       0.130460         3.5500 
  37   0.0000       0.163973         4.4619 
  38   0.0000       0.164452         4.4750 
  39   0.0000       0.205247         5.5851 
  40   0.0000       0.222144         6.0448 
  41   0.0000       0.222812         6.0630 
  42   0.0000       0.246806         6.7159 
  43   0.0000       0.280758         7.6398 
  44   0.0000       0.300030         8.1642 
  45   0.0000       0.305530         8.3139 
  46   0.0000       0.326616         8.8877 
  47   0.0000       0.355974         9.6866 
  48   0.0000       0.363112         9.8808 
  49   0.0000       0.404526        11.0077 
  50   0.0000       0.528348        14.3771 
  51   0.0000       0.548439        14.9238 
  52   0.0000       0.554546        15.0900 
  53   0.0000       0.561193        15.2708 
  54   0.0000       0.603770        16.4294 
  55   0.0000       0.607283        16.5250 
  56   0.0000       0.688719        18.7410 
  57   0.0000       0.802348        21.8330 
  58   0.0000       0.816010        22.2048 
  59   0.0000       0.861217        23.4349 
  60   0.0000       0.901641        24.5349 
  61   0.0000       0.903557        24.5870 
  62   0.0000       0.923499        25.1297 
  63   0.0000       0.976054        26.5598 
  64   0.0000       1.108355        30.1599 
  65   0.0000       1.135585        30.9008 
  66   0.0000       1.172079        31.8939 
  67   0.0000       1.254785        34.1444 
  68   0.0000       1.271134        34.5893 
  69   0.0000       1.278194        34.7814 
  70   0.0000       1.343169        36.5495 
  71   0.0000       1.495172        40.6857 
  72   0.0000       1.560693        42.4686 
  73   0.0000       1.652859        44.9766 
  74   0.0000       1.836510        49.9740 
  75   0.0000       2.356437        64.1219 
  76   0.0000       2.381618        64.8071 
  77   0.0000       2.410227        65.5856 
  78   0.0000       2.510998        68.3277 
  79   0.0000       2.520545        68.5875 
  80   0.0000       2.607690        70.9589 
  81   0.0000       2.623912        71.4003 
  82   0.0000       2.783895        75.7536 
  83   0.0000       2.792104        75.9770 
  84   0.0000       2.829536        76.9956 
  85   0.0000       2.903564        79.0100 
  86   0.0000       2.907369        79.1135 
  87   0.0000       2.908467        79.1434 
  88   0.0000       2.922386        79.5222 
  89   0.0000       2.924702        79.5852 
  90   0.0000       2.945697        80.1565 
  91   0.0000       2.970806        80.8397 
  92   0.0000       3.029554        82.4384 
  93   0.0000       3.052709        83.0684 
  94   0.0000       3.193196        86.8913 
  95   0.0000       3.232002        87.9473 
  96   0.0000       3.336959        90.8033 
  97   0.0000       3.364505        91.5528 
  98   0.0000       3.413898        92.8969 
  99   0.0000       3.526893        95.9716 
 100   0.0000       3.591555        97.7312 
 101   0.0000       3.611738        98.2804 
 102   0.0000       3.691913       100.4621 
 103   0.0000       3.809634       103.6654 
 104   0.0000       3.847797       104.7039 
 105   0.0000       3.849051       104.7380 
 106   0.0000       3.948037       107.4316 
 107   0.0000       3.955617       107.6378 
 108   0.0000       4.059182       110.4559 
 109   0.0000       4.059294       110.4590 
 110   0.0000       4.101613       111.6106 
 111   0.0000       4.120740       112.1310 
 112   0.0000       4.441357       120.8555 
 113   0.0000       4.447784       121.0304 
 114   0.0000       4.535293       123.4116 
 115   0.0000       4.567082       124.2766 
 116   0.0000       4.647662       126.4693 
 117   0.0000       4.883488       132.8865 
 118   0.0000       5.093031       138.5884 
 119   0.0000       5.165417       140.5581 
 120   0.0000       5.284562       143.8002 
 121   0.0000      11.332091       308.3619 
 122   0.0000      11.339421       308.5613 
 123   0.0000      11.343685       308.6774 
 124   0.0000      11.344787       308.7073 
 125   0.0000      11.353691       308.9496 
 126   0.0000      11.368947       309.3648 
 127   0.0000      11.371829       309.4432 
 128   0.0000      11.378501       309.6247 
 129   0.0000      11.378880       309.6351 
 130   0.0000      11.723351       319.0086 
 131   0.0000      11.723387       319.0096 
 132   0.0000      11.726201       319.0862 
 133   0.0000      11.744776       319.5916 
 134   0.0000      11.814805       321.4972 
 135   0.0000      11.850275       322.4624 
 136   0.0000      12.059420       328.1535 
 137   0.0000      22.796343       620.3200 

                 SPIN DOWN ORBITALS
  NO   OCC          E(Eh)            E(eV) 
   0   1.0000    -300.639482     -8180.8162 
   1   1.0000     -36.268622      -986.9194 
   2   1.0000     -31.607026      -860.0709 
   3   1.0000     -31.595614      -859.7604 
   4   1.0000     -31.594174      -859.7212 
   5   1.0000     -10.646720      -289.7120 
   6   1.0000      -4.404064      -119.8407 
   7   1.0000      -2.968913       -80.7882 
   8   1.0000      -2.960249       -80.5525 
   9   1.0000      -2.957625       -80.4811 
  10   1.0000      -1.022675       -27.8284 
  11   1.0000      -0.774519       -21.0757 
  12   1.0000      -0.697172       -18.9710 
  13   1.0000      -0.655900       -17.8479 
  14   1.0000      -0.625723       -17.0268 
  15   1.0000      -0.614987       -16.7346 
  16   1.0000      -0.608131       -16.5481 
  17   0.0000      -0.270079        -7.3492 
  18   0.0000      -0.257868        -7.0169 
  19   0.0000      -0.206769        -5.6265 
  20   0.0000      -0.157390        -4.2828 
  21   0.0000      -0.119662        -3.2562 
  22   0.0000      -0.101145        -2.7523 
  23   0.0000      -0.047173        -1.2836 
  24   0.0000      -0.046930        -1.2770 
  25   0.0000      -0.033887        -0.9221 
  26   0.0000      -0.005151        -0.1402 
  27   0.0000      -0.003551        -0.0966 
  28   0.0000       0.021478         0.5845 
  29   0.0000       0.031403         0.8545 
  30   0.0000       0.070748         1.9251 
  31   0.0000       0.074587         2.0296 
  32   0.0000       0.077401         2.1062 
  33   0.0000       0.101319         2.7570 
  34   0.0000       0.108701         2.9579 
  35   0.0000       0.123915         3.3719 
  36   0.0000       0.133767         3.6400 
  37   0.0000       0.159704         4.3458 
  38   0.0000       0.164575         4.4783 
  39   0.0000       0.203695         5.5428 
  40   0.0000       0.217901         5.9294 
  41   0.0000       0.224631         6.1125 
  42   0.0000       0.245553         6.6818 
  43   0.0000       0.279439         7.6039 
  44   0.0000       0.308107         8.3840 
  45   0.0000       0.308200         8.3866 
  46   0.0000       0.326281         8.8786 
  47   0.0000       0.349534         9.5113 
  48   0.0000       0.360708         9.8154 
  49   0.0000       0.406669        11.0660 
  50   0.0000       0.527662        14.3584 
  51   0.0000       0.547184        14.8896 
  52   0.0000       0.549663        14.9571 
  53   0.0000       0.557308        15.1651 
  54   0.0000       0.602237        16.3877 
  55   0.0000       0.606747        16.5104 
  56   0.0000       0.688202        18.7269 
  57   0.0000       0.803290        21.8586 
  58   0.0000       0.814752        22.1705 
  59   0.0000       0.860433        23.4136 
  60   0.0000       0.904518        24.6132 
  61   0.0000       0.906676        24.6719 
  62   0.0000       0.925849        25.1936 
  63   0.0000       0.977299        26.5937 
  64   0.0000       1.106076        30.0979 
  65   0.0000       1.140284        31.0287 
  66   0.0000       1.183336        32.2002 
  67   0.0000       1.256661        34.1955 
  68   0.0000       1.270755        34.5790 
  69   0.0000       1.281202        34.8633 
  70   0.0000       1.344867        36.5957 
  71   0.0000       1.485476        40.4218 
  72   0.0000       1.554621        42.3034 
  73   0.0000       1.646189        44.7951 
  74   0.0000       1.831854        49.8473 
  75   0.0000       2.354144        64.0595 
  76   0.0000       2.380818        64.7854 
  77   0.0000       2.416150        65.7468 
  78   0.0000       2.508258        68.2532 
  79   0.0000       2.509727        68.2932 
  80   0.0000       2.605819        70.9079 
  81   0.0000       2.609384        71.0050 
  82   0.0000       2.787697        75.8571 
  83   0.0000       2.795966        76.0821 
  84   0.0000       2.845664        77.4344 
  85   0.0000       2.909976        79.1845 
  86   0.0000       2.922505        79.5254 
  87   0.0000       2.928460        79.6874 
  88   0.0000       2.928659        79.6929 
  89   0.0000       2.941289        80.0365 
  90   0.0000       2.946591        80.1808 
  91   0.0000       2.959844        80.5415 
  92   0.0000       3.049338        82.9767 
  93   0.0000       3.071480        83.5792 
  94   0.0000       3.203284        87.1658 
  95   0.0000       3.228776        87.8595 
  96   0.0000       3.348710        91.1230 
  97   0.0000       3.358528        91.3902 
  98   0.0000       3.409362        92.7735 
  99   0.0000       3.532228        96.1168 
 100   0.0000       3.593697        97.7895 
 101   0.0000       3.620377        98.5155 
 102   0.0000       3.692582       100.4803 
 103   0.0000       3.808655       103.6388 
 104   0.0000       3.848775       104.7305 
 105   0.0000       3.878129       105.5293 
 106   0.0000       3.951682       107.5307 
 107   0.0000       3.974724       108.1578 
 108   0.0000       4.084491       111.1446 
 109   0.0000       4.104905       111.7002 
 110   0.0000       4.118013       112.0568 
 111   0.0000       4.159872       113.1959 
 112   0.0000       4.430902       120.5710 
 113   0.0000       4.472503       121.7030 
 114   0.0000       4.544037       123.6495 
 115   0.0000       4.560071       124.0858 
 116   0.0000       4.635298       126.1329 
 117   0.0000       4.875841       132.6784 
 118   0.0000       5.090914       138.5308 
 119   0.0000       5.155820       140.2970 
 120   0.0000       5.273270       143.4930 
 121   0.0000      11.388944       309.9089 
 122   0.0000      11.392941       310.0177 
 123   0.0000      11.393310       310.0277 
 124   0.0000      11.393547       310.0342 
 125   0.0000      11.403508       310.3052 
 126   0.0000      11.412018       310.5368 
 127   0.0000      11.412803       310.5582 
 128   0.0000      11.413025       310.5642 
 129   0.0000      11.417836       310.6951 
 130   0.0000      11.761710       320.0524 
 131   0.0000      11.773685       320.3783 
 132   0.0000      11.773686       320.3783 
 133   0.0000      11.793507       320.9177 
 134   0.0000      11.896507       323.7204 
 135   0.0000      11.917889       324.3023 
 136   0.0000      12.152946       330.6985 
 137   0.0000      22.792905       620.2265 

                    ********************************
                    * MULLIKEN POPULATION ANALYSIS *
                    ********************************

--------------------------------------------
MULLIKEN ATOMIC CHARGES AND SPIN POPULATIONS
--------------------------------------------
   0 C :   -0.000460   -0.094167
   1 Ni:    0.558417    1.194401
   2 H :    0.221018   -0.050115
   3 H :    0.221025   -0.050119
Sum of atomic charges         :    1.0000000
Sum of atomic spin populations:    1.0000000

-----------------------------------------------------
MULLIKEN REDUCED ORBITAL CHARGES AND SPIN POPULATIONS
-----------------------------------------------------
CHARGE
  0 C s       :     3.318233  s :     3.318233
      pz      :     1.224696  p :     2.661058
      px      :     1.139029
      py      :     0.297333
      dz2     :    -0.008522  d :     0.016801
      dxz     :     0.006863
      dyz     :     0.010733
      dx2y2   :     0.006518
      dxy     :     0.001209
      f0      :     0.001263  f :     0.004367
      f+1     :     0.001385
      f-1     :     0.001074
      f+2     :     0.000497
      f-2     :     0.000132
      f+3     :     0.000017
      f-3     :    -0.000001
  1 Nis       :     6.571470  s :     6.571470
      pz      :     4.130603  p :    12.144059
      px      :     4.003176
      py      :     4.010280
      dz2     :     1.280243  d :     8.724936
      dxz     :     1.981627
      dyz     :     1.672214
      dx2y2   :     1.792229
      dxy     :     1.998623
      f0      :     0.000706  f :     0.001072
      f+1     :     0.000262
      f-1     :     0.000022
      f+2     :     0.000038
      f-2     :     0.000028
      f+3     :     0.000010
      f-3     :     0.000005
      g0      :     0.000015  g :     0.000045
      g+1     :     0.000004
      g-1     :     0.000010
      g+2     :     0.000005
      g-2     :     0.000002
      g+3     :     0.000001
      g-3     :     0.000001
      g+4     :     0.000003
      g-4     :     0.000003
  2 H s       :     0.765044  s :     0.765044
      pz      :    -0.009201  p :     0.011760
      px      :     0.017054
      py      :     0.003907
      dz2     :     0.000770  d :     0.002179
      dxz     :     0.000731
      dyz     :     0.000112
      dx2y2   :     0.000420
      dxy     :     0.000147
  3 H s       :     0.765036  s :     0.765036
      pz      :    -0.009201  p :     0.011760
      px      :     0.017054
      py      :     0.003907
      dz2     :     0.000770  d :     0.002179
      dxz     :     0.000731
      dyz     :     0.000112
      dx2y2   :     0.000420
      dxy     :     0.000147

SPIN
  0 C s       :     0.053414  s :     0.053414
      pz      :     0.017675  p :    -0.145123
      px      :     0.019406
      py      :    -0.182203
      dz2     :    -0.001914  d :    -0.003153
      dxz     :     0.000091
      dyz     :    -0.002780
      dx2y2   :     0.001121
      dxy     :     0.000328
      f0      :     0.000479  f :     0.000696
      f+1     :    -0.000044
      f-1     :     0.000025
      f+2     :     0.000132
      f-2     :    -0.000012
      f+3     :     0.000111
      f-3     :     0.000004
  1 Nis       :     0.148376  s :     0.148376
      pz      :     0.017409  p :     0.007042
      px      :    -0.001604
      py      :    -0.008763
      dz2     :     0.632430  d :     1.039005
      dxz     :     0.000355
      dyz     :     0.200288
      dx2y2   :     0.206081
      dxy     :    -0.000150
      f0      :     0.000035  f :    -0.000039
      f+1     :    -0.000038
      f-1     :    -0.000038
      f+2     :    -0.000008
      f-2     :     0.000001
      f+3     :     0.000007
      f-3     :     0.000004
      g0      :     0.000007  g :     0.000017
      g+1     :     0.000000
      g-1     :     0.000008
      g+2     :    -0.000003
      g-2     :    -0.000001
      g+3     :    -0.000000
      g-3     :    -0.000001
      g+4     :     0.000003
      g-4     :     0.000003
  2 H s       :    -0.038530  s :    -0.038530
      pz      :    -0.007193  p :    -0.011329
      px      :    -0.000959
      py      :    -0.003178
      dz2     :    -0.000034  d :    -0.000255
      dxz     :    -0.000037
      dyz     :    -0.000062
      dx2y2   :    -0.000005
      dxy     :    -0.000116
  3 H s       :    -0.038534  s :    -0.038534
      pz      :    -0.007193  p :    -0.011330
      px      :    -0.000959
      py      :    -0.003178
      dz2     :    -0.000034  d :    -0.000255
      dxz     :    -0.000037
      dyz     :    -0.000062
      dx2y2   :    -0.000005
      dxy     :    -0.000116


                     *******************************
                     * LOEWDIN POPULATION ANALYSIS *
                     *******************************

-------------------------------------------
LOEWDIN ATOMIC CHARGES AND SPIN POPULATIONS
-------------------------------------------
   0 C :    0.359021   -0.099632
   1 Ni:    0.772129    1.099711
   2 H :   -0.065575   -0.000040
   3 H :   -0.065575   -0.000040

----------------------------------------------------
LOEWDIN REDUCED ORBITAL CHARGES AND SPIN POPULATIONS
----------------------------------------------------
CHARGE
  0 C s       :     2.907100  s :     2.907100
      pz      :     1.186598  p :     2.494189
      px      :     1.055994
      py      :     0.251597
      dz2     :     0.071810  d :     0.217585
      dxz     :     0.080136
      dyz     :     0.028896
      dx2y2   :     0.031670
      dxy     :     0.005072
      f0      :     0.007929  f :     0.022104
      f+1     :     0.005358
      f-1     :     0.003740
      f+2     :     0.003223
      f-2     :     0.000533
      f+3     :     0.001175
      f-3     :     0.000145
  1 Nis       :     6.219869  s :     6.219869
      pz      :     4.155553  p :    12.197367
      px      :     4.034868
      py      :     4.006947
      dz2     :     1.359805  d :     8.807529
      dxz     :     2.005133
      dyz     :     1.659827
      dx2y2   :     1.788589
      dxy     :     1.994176
      f0      :     0.002185  f :     0.003058
      f+1     :     0.000701
      f-1     :     0.000073
      f+2     :     0.000047
      f-2     :     0.000036
      f+3     :     0.000010
      f-3     :     0.000005
      g0      :     0.000021  g :     0.000047
      g+1     :     0.000004
      g-1     :     0.000008
      g+2     :     0.000005
      g-2     :     0.000002
      g+3     :     0.000001
      g-3     :     0.000001
      g+4     :     0.000003
      g-4     :     0.000003
  2 H s       :     0.737166  s :     0.737166
      pz      :     0.140982  p :     0.301114
      px      :     0.138296
      py      :     0.021835
      dz2     :     0.007065  d :     0.027295
      dxz     :     0.010623
      dyz     :     0.000882
      dx2y2   :     0.006973
      dxy     :     0.001752
  3 H s       :     0.737166  s :     0.737166
      pz      :     0.140982  p :     0.301114
      px      :     0.138296
      py      :     0.021835
      dz2     :     0.007065  d :     0.027295
      dxz     :     0.010623
      dyz     :     0.000882
      dx2y2   :     0.006973
      dxy     :     0.001752

SPIN
  0 C s       :     0.010985  s :     0.010985
      pz      :     0.038292  p :    -0.113351
      px      :    -0.001701
      py      :    -0.149943
      dz2     :     0.005123  d :     0.000267
      dxz     :    -0.000049
      dyz     :    -0.003728
      dx2y2   :    -0.000617
      dxy     :    -0.000461
      f0      :     0.001981  f :     0.002467
      f+1     :    -0.000046
      f-1     :     0.000378
      f+2     :     0.000214
      f-2     :    -0.000028
      f+3     :     0.000071
      f-3     :    -0.000103
  1 Nis       :     0.071999  s :     0.071999
      pz      :     0.006536  p :    -0.003605
      px      :    -0.000817
      py      :    -0.009324
      dz2     :     0.629179  d :     1.031350
      dxz     :     0.001564
      dyz     :     0.193964
      dx2y2   :     0.206128
      dxy     :     0.000515
      f0      :     0.000033  f :    -0.000045
      f+1     :    -0.000036
      f-1     :    -0.000045
      f+2     :    -0.000008
      f-2     :     0.000001
      f+3     :     0.000007
      f-3     :     0.000004
      g0      :     0.000005  g :     0.000013
      g+1     :     0.000000
      g-1     :     0.000006
      g+2     :    -0.000002
      g-2     :    -0.000001
      g+3     :    -0.000000
      g-3     :    -0.000001
      g+4     :     0.000003
      g-4     :     0.000003
  2 H s       :     0.003283  s :     0.003283
      pz      :     0.012518  p :    -0.001588
      px      :    -0.000225
      py      :    -0.013882
      dz2     :     0.000058  d :    -0.001734
      dxz     :    -0.000109
      dyz     :    -0.000564
      dx2y2   :     0.000053
      dxy     :    -0.001172
  3 H s       :     0.003283  s :     0.003283
      pz      :     0.012518  p :    -0.001588
      px      :    -0.000225
      py      :    -0.013882
      dz2     :     0.000058  d :    -0.001734
      dxz     :    -0.000109
      dyz     :    -0.000564
      dx2y2   :     0.000053
      dxy     :    -0.001172


                      *****************************
                      * MAYER POPULATION ANALYSIS *
                      *****************************

  NA   - Mulliken gross atomic population
  ZA   - Total nuclear charge
  QA   - Mulliken gross atomic charge
  VA   - Mayer's total valence
  BVA  - Mayer's bonded valence
  FA   - Mayer's free valence

  ATOM       NA         ZA         QA         VA         BVA        FA
  0 C      6.0005     6.0000    -0.0005     3.3379     3.2983     0.0396
  1 Ni    27.4416    28.0000     0.5584     2.4053     1.4067     0.9986
  2 H      0.7790     1.0000     0.2210     0.9227     0.9201     0.0026
  3 H      0.7790     1.0000     0.2210     0.9227     0.9201     0.0026

  Mayer bond orders larger than 0.100000
B(  0-C ,  1-Ni) :   1.4364 B(  0-C ,  2-H ) :   0.9309 B(  0-C ,  3-H ) :   0.9309 


-------
TIMINGS
-------

Total SCF time: 0 days 0 hours 3 min 56 sec 

Total time                  ....     236.382 sec
Sum of individual times     ....     234.211 sec  ( 99.1%)

Fock matrix formation       ....     225.360 sec  ( 95.3%)
  XC integration            ....     207.471 sec  ( 92.1% of F)
    Basis function eval.    ....       0.102 sec  (  0.0% of XC)
    Density eval.           ....       0.274 sec  (  0.1% of XC)
    XC-Functional eval.     ....       0.080 sec  (  0.0% of XC)
    XC-Potential eval.      ....       0.626 sec  (  0.3% of XC)
Diagonalization             ....       5.051 sec  (  2.1%)
Density matrix formation    ....       0.035 sec  (  0.0%)
Population analysis         ....       0.300 sec  (  0.1%)
Initial guess               ....       0.782 sec  (  0.3%)
Orbital Transformation      ....       0.000 sec  (  0.0%)
Orbital Orthonormalization  ....       0.000 sec  (  0.0%)
DIIS solution               ....       0.518 sec  (  0.2%)
Grid generation             ....       2.165 sec  (  0.9%)

-------------------------   --------------------
FINAL SINGLE POINT ENERGY     -1547.169557634595
-------------------------   --------------------


----------------------------------------------------------------------------
                           ORCA NUMERICAL GRADIENT
                              (28-process run)
----------------------------------------------------------------------------

I state                        ... 1
J state                        ... 0
Number of atoms                ... 4
Derivative's order of accuracy ... 2
Central differences            ... used
Number of displacements        ... 24
Numerical increment            ... 5.000e-03 bohr
Translation invariance         ... used

The output will be reduced. Please look at the following files:
SCF program output             ... >NiCH2+.lastscf
Integral program output        ... >NiCH2+.lastint
Gradient program output        ... >NiCH2+.lastgrad


     Note:   There are more processes than displacements to do
     ===>:   Reducing number of processes to   9

             <<<Displacing   2/coordinate 1 (+)>>>
             <<<Displacing   3/coordinate 2 (+)>>>
             <<<Displacing   4/coordinate 2 (+)>>>
             <<<Displacing   3/coordinate 3 (+)>>>
             <<<Displacing   4/coordinate 1 (+)>>>
             <<<Displacing   2/coordinate 3 (+)>>>
             <<<Displacing   3/coordinate 1 (+)>>>
             <<<Displacing   4/coordinate 3 (+)>>>
             <<<Displacing   2/coordinate 2 (+)>>>
             <<<Displacing   2/coordinate 2 (-)>>>
             <<<Displacing   4/coordinate 1 (-)>>>
             <<<Displacing   2/coordinate 3 (-)>>>
             <<<Displacing   3/coordinate 2 (-)>>>
             <<<Displacing   4/coordinate 2 (-)>>>
             <<<Displacing   3/coordinate 3 (-)>>>
             <<<Displacing   4/coordinate 3 (-)>>>
             <<<Displacing   3/coordinate 1 (-)>>>
             <<<Displacing   2/coordinate 1 (-)>>>

------------------------------
CARTESIAN GRADIENT (NUMERICAL)
-------------------------------
   1   C   :   -0.000000599    0.000000236    0.009909785
   2   Ni  :   -0.000001115   -0.000001549   -0.010870138
   3   H   :    0.009933394    0.000000471    0.000480127
   4   H   :   -0.009931679    0.000000842    0.000480226

Norm of the cartesian gradient     ...    0.020350318
RMS gradient                       ...    0.005874631
MAX gradient                       ...    0.010870138

-------
TIMINGS
-------

Total numerical gradient time      ...       38.838 sec


                            ***************************************
                            *     ORCA property calculations      *
                            ***************************************

                                    ---------------------
                                    Active property flags
                                    ---------------------
   (+) Dipole Moment


------------------------------------------------------------------------------
                       ORCA ELECTRIC PROPERTIES CALCULATION
------------------------------------------------------------------------------

Dipole Moment Calculation                       ... on
Quadrupole Moment Calculation                   ... off
Polarizability Calculation                      ... off
GBWName                                         ... NiCH2+.gbw
Electron density file                           ... NiCH2+.scfp
The origin for moment calculation is the CENTER OF MASS  = ( 0.000000,  0.000000  2.686171)

-------------
DIPOLE MOMENT
-------------
                                X             Y             Z
Electronic contribution:      0.00000      -0.00000       4.51076
Nuclear contribution   :      0.00000       0.00000      -4.66864
                        -----------------------------------------
Total Dipole Moment    :      0.00000      -0.00000      -0.15788
                        -----------------------------------------
Magnitude (a.u.)       :      0.15788
Magnitude (Debye)      :      0.40129



--------------------
Rotational spectrum 
--------------------
 
Rotational constants in cm-1:     9.608689     0.421405     0.403700 
Rotational constants in MHz : 288061.237701 12633.415954 12102.634323 

 Dipole components along the rotational axes: 
x,y,z [a.u.] :    -0.157876     0.000000    -0.000000 
x,y,z [Debye]:    -0.401290     0.000000    -0.000000 

 

Timings for individual modules:

Sum of individual times         ...      279.616 sec (=   4.660 min)
GTO integral calculation        ...        3.723 sec (=   0.062 min)   1.3 %
SCF iterations                  ...      237.055 sec (=   3.951 min)  84.8 %
SCF Gradient evaluation         ...       38.838 sec (=   0.647 min)  13.9 %
                             ****ORCA TERMINATED NORMALLY****
TOTAL RUN TIME: 0 days 0 hours 4 minutes 40 seconds 490 msec
