
                                 *****************
                                 * O   R   C   A *
                                 *****************

           --- An Ab Initio, DFT and Semiempirical electronic structure package ---

                  #######################################################
                  #                        -***-                        #
                  #          Department of theory and spectroscopy      #
                  #               Directorship: Frank Neese             #
                  #        Max Planck Institute fuer Kohlenforschung    #
                  #                Kaiser Wilhelm Platz 1               #
                  #                 D-45470 Muelheim/Ruhr               #
                  #                      Germany                        #
                  #                                                     #
                  #                  All rights reserved                #
                  #                        -***-                        #
                  #######################################################


                         Program Version 4.2.0 -  RELEASE  -


 With contributions from (in alphabetic order):
   Daniel Aravena         : Magnetic Suceptibility
   Michael Atanasov       : Ab Initio Ligand Field Theory (pilot matlab implementation)
   Alexander A. Auer      : GIAO ZORA, VPT2
   Ute Becker             : Parallelization
   Giovanni Bistoni       : ED, misc. LED, open-shell LED, HFLED
   Martin Brehm           : Molecular dynamics
   Dmytro Bykov           : SCF Hessian
   Vijay G. Chilkuri      : MRCI spin determinant printing, contributions to CSF-ICE
   Dipayan Datta          : RHF DLPNO-CCSD density
   Achintya Kumar Dutta   : EOM-CC, STEOM-CC
   Dmitry Ganyushin       : Spin-Orbit,Spin-Spin,Magnetic field MRCI
   Miquel Garcia          : C-PCM Hessian, Gaussian charge scheme
   Yang Guo               : DLPNO-NEVPT2, CIM, IAO-localization
   Andreas Hansen         : Spin unrestricted coupled pair/coupled cluster methods
   Benjamin Helmich-Paris : CASSCF linear response (MC-RPA)
   Lee Huntington         : MR-EOM, pCC
   Robert Izsak           : Overlap fitted RIJCOSX, COSX-SCS-MP3, EOM
   Christian Kollmar      : KDIIS, OOCD, Brueckner-CCSD(T), CCSD density
   Simone Kossmann        : Meta GGA functionals, TD-DFT gradient, OOMP2, MP2 Hessian
   Martin Krupicka        : AUTO-CI
   Lucas Lang             : DCDCAS
   Dagmar Lenk            : GEPOL surface, SMD
   Dimitrios Liakos       : Extrapolation schemes; Compound Job, initial MDCI parallelization
   Dimitrios Manganas     : Further ROCIS development; embedding schemes
   Dimitrios Pantazis     : SARC Basis sets
   Taras Petrenko         : DFT Hessian,TD-DFT gradient, ASA, ECA, R-Raman, ABS, FL, XAS/XES, NRVS
   Peter Pinski           : DLPNO-MP2, DLPNO-MP2 Gradient
   Christoph Reimann      : Effective Core Potentials
   Marius Retegan         : Local ZFS, SOC
   Christoph Riplinger    : Optimizer, TS searches, QM/MM, DLPNO-CCSD(T), (RO)-DLPNO pert. Triples
   Tobias Risthaus        : Range-separated hybrids, TD-DFT gradient, RPA, STAB
   Michael Roemelt        : Original ROCIS implementation
   Masaaki Saitow         : Open-shell DLPNO-CCSD energy and density
   Barbara Sandhoefer     : DKH picture change effects
   Avijit Sen             : IP-ROCIS
   Kantharuban Sivalingam : CASSCF convergence, NEVPT2, FIC-MRCI
   Bernardo de Souza      : ESD, SOC TD-DFT
   Georgi Stoychev        : AutoAux, RI-MP2 NMR
   Willem Van den Heuvel  : Paramagnetic NMR
   Boris Wezisla          : Elementary symmetry handling
   Frank Wennmohs         : Technical directorship


 We gratefully acknowledge several colleagues who have allowed us to
 interface, adapt or use parts of their codes:
   Stefan Grimme, W. Hujo, H. Kruse,             : VdW corrections, initial TS optimization,
                  C. Bannwarth                     DFT functionals, gCP, sTDA/sTD-DF
   Ed Valeev, F. Pavosevic, A. Kumar             : LibInt (2-el integral package), F12 methods
   Garnet Chan, S. Sharma, J. Yang, R. Olivares  : DMRG
   Ulf Ekstrom                                   : XCFun DFT Library
   Mihaly Kallay                                 : mrcc  (arbitrary order and MRCC methods)
   Andreas Klamt, Michael Diedenhofen            : otool_cosmo (COSMO solvation model)
   Jiri Pittner, Ondrej Demel                    : Mk-CCSD
   Frank Weinhold                                : gennbo (NPA and NBO analysis)
   Christopher J. Cramer and Donald G. Truhlar   : smd solvation model
   Lars Goerigk                                  : TD-DFT with DH, B97 family of functionals
   V. Asgeirsson, H. Jonsson                     : NEB implementation
   FAccTs GmbH                                   : IRC, NEB, NEB-TS, Multilevel, MM, QM/MM, CI optimization
   S Lehtola, MJT Oliveira, MAL Marques          : LibXC Library


 Your calculation uses the libint2 library for the computation of 2-el integrals
 For citations please refer to: http://libint.valeyev.net

 Your ORCA version has been built with support for libXC version: 4.2.3
 For citations please refer to: https://tddft.org/programs/libxc/

 This ORCA versions uses:
   CBLAS   interface :  Fast vector & matrix operations
   LAPACKE interface :  Fast linear algebra routines
   SCALAPACK package :  Parallel linear algebra routines


Your calculation utilizes the DFT-NL dispersion correction.
Cite in your paper:
Vydrov, O. A.; Van Voorhis, T. J. Chem. Phys. 2010, 133, 244103
Hujo, W.; Grimme, S. J. Chem. Theory Comput. 2011, 7, 3866 
   

----- Orbital basis set information -----
Your calculation utilizes the basis: def2-TZVPPD
   F. Weigend and R. Ahlrichs, Phys. Chem. Chem. Phys. 7, 3297 (2005).
   D. Rappoport and F. Furche, J. Chem. Phys. 133 134105 (2010).

----- AuxJK basis set information -----
Your calculation utilizes the auxiliary basis: def2/JK
   H-Ba, Hf-Rn: F. Weigend, J. Comput. Chem. 29, 167 (2008).

================================================================================
                                        WARNINGS
                       Please study these warnings very carefully!
================================================================================

INFO   : Found keyword 'NumGrad' for Energy calculation
  ===> : Setting RunTyp to EnGrad

WARNING: Numerical Gradient with sloppy Convergence Criteria    
         Your results may be not reliable!                      
         Please choose at least TightSCF!                       

WARNING: your system is open-shell and RHF/RKS was chosen
  ===> : WILL SWITCH to UHF/UKS


INFO   : the flag for use of LIBINT has been found!

================================================================================
                                       INPUT FILE
================================================================================
NAME = o2.in
|  1> #
|  2> # o2 wB97M-V/Def2-TZVPPD
|  3> #
|  4> ! wb97m-v def2-tzvppd def2/jk grid4 nofinalgrid numgrad
|  5> 
|  6> *xyz 0 3
|  7> O          0.00000        0.00000        0.00000
|  8> O          0.00000        0.00000        1.20780
|  9> *
| 10> 
| 11> %maxcore 5000
| 12> 
| 13> %pal
| 14> nprocs = 28
| 15> end
| 16> 
| 17> 
| 18>                          ****END OF INPUT****
================================================================================

                     *******************************
                     * Energy+Gradient Calculation *
                     *******************************

---------------------------------
CARTESIAN COORDINATES (ANGSTROEM)
---------------------------------
  O      0.000000    0.000000    0.000000
  O      0.000000    0.000000    1.207800

----------------------------
CARTESIAN COORDINATES (A.U.)
----------------------------
  NO LB      ZA    FRAG     MASS         X           Y           Z
   0 O     8.0000    0    15.999    0.000000    0.000000    0.000000
   1 O     8.0000    0    15.999    0.000000    0.000000    2.282411

--------------------------------
INTERNAL COORDINATES (ANGSTROEM)
--------------------------------
 O      0   0   0     0.000000000000     0.00000000     0.00000000
 O      1   0   0     1.207800000000     0.00000000     0.00000000

---------------------------
INTERNAL COORDINATES (A.U.)
---------------------------
 O      0   0   0     0.000000000000     0.00000000     0.00000000
 O      1   0   0     2.282411224550     0.00000000     0.00000000

---------------------
BASIS SET INFORMATION
---------------------
There are 1 groups of distinct atoms

 Group   1 Type O   : 12s7p3d1f contracted to 6s4p3d1f pattern {621111/4111/111/1}

Atom   0O    basis set group =>   1
Atom   1O    basis set group =>   1
----------------------------------
AUXILIARY/JK BASIS SET INFORMATION
----------------------------------
There are 1 groups of distinct atoms

 Group   1 Type O   : 14s10p6d2f1g contracted to 10s8p4d2f1g pattern {5111111111/31111111/3111/11/1}

Atom   0O    basis set group =>   1
Atom   1O    basis set group =>   1


           ************************************************************
           *        Program running with 28 parallel MPI-processes    *
           *              working on a common directory               *
           ************************************************************
------------------------------------------------------------------------------
                           ORCA GTO INTEGRAL CALCULATION
------------------------------------------------------------------------------

                         BASIS SET STATISTICS AND STARTUP INFO

 # of primitive gaussian shells          ...   46
 # of primitive gaussian functions       ...  110
 # of contracted shells                  ...   28
 # of contracted basis functions         ...   80
 Highest angular momentum                ...    3
 Maximum contraction depth               ...    6
 Integral package used                   ... LIBINT
 Integral threshhold            Thresh   ...  1.000e-10
 Primitive cut-off              TCut     ...  1.000e-11


------------------------------ INTEGRAL EVALUATION ----------------------------


 * One electron integrals 
 Pre-screening matrix                    ... done
 Shell pair data                         ... done (   0.000 sec)



           ************************************************************
           *        Program running with 28 parallel MPI-processes    *
           *              working on a common directory               *
           ************************************************************
-------------------------------------------------------------------------------
                                 ORCA SCF
-------------------------------------------------------------------------------

------------
SCF SETTINGS
------------
Hamiltonian:
 Density Functional     Method          .... DFT(GTOs)
 Exchange Functional    Exchange        .... WB97M-V
 Correlation Functional Correlation     .... WB97M-V
 Gradients option       PostSCFGGA      .... off
 Hybrid DFT is turned on
   Fraction HF Exchange ScalHFX         ....  0.150000
   Scaling of DF-GGA-X  ScalDFX         ....  0.000000
   Scaling of DF-GGA-C  ScalDFC         ....  1.000000
   Scaling of DF-LDA-C  ScalLDAC        ....  1.000000
   Perturbative correction              ....  0.000000
   Density functional embedding theory  .... OFF
 Long-range corrected/Screened/Range-Separated Hybrid DFT is turned on
   Amount of maximum screened exact exchange              ....  0.850000
   Range separation parameter mu (erf(mu*r12)/r12)        ....  0.300000
   NL short-range parameter             ....  6.000000
   NL long-range parameter              ....  0.010000


General Settings:
 Integral files         IntName         .... o2
 Hartree-Fock type      HFTyp           .... UHF
 Total Charge           Charge          ....    0
 Multiplicity           Mult            ....    3
 Number of Electrons    NEL             ....   16
 Basis Dimension        Dim             ....   80
 Nuclear Repulsion      ENuc            ....     28.0405210558 Eh

Convergence Acceleration:
 DIIS                   CNVDIIS         .... on
   Start iteration      DIISMaxIt       ....    12
   Startup error        DIISStart       ....  0.200000
   # of expansion vecs  DIISMaxEq       ....     5
   Bias factor          DIISBfac        ....   1.050
   Max. coefficient     DIISMaxC        ....  10.000
 Newton-Raphson         CNVNR           .... off
 SOSCF                  CNVSOSCF        .... off
 Level Shifting         CNVShift        .... on
   Level shift para.    LevelShift      ....    0.2500
   Turn off err/grad.   ShiftErr        ....    0.0010
 Zerner damping         CNVZerner       .... off
 Static damping         CNVDamp         .... on
   Fraction old density DampFac         ....    0.7000
   Max. Damping (<1)    DampMax         ....    0.9800
   Min. Damping (>=0)   DampMin         ....    0.0000
   Turn off err/grad.   DampErr         ....    0.1000
 Fernandez-Rico         CNVRico         .... off

SCF Procedure:
 Maximum # iterations   MaxIter         ....   125
 SCF integral mode      SCFMode         .... Direct
   Integral package                     .... LIBINT
 Reset frequency        DirectResetFreq ....    20
 Integral Threshold     Thresh          ....  1.000e-10 Eh
 Primitive CutOff       TCut            ....  1.000e-11 Eh

Convergence Tolerance:
 Convergence Check Mode ConvCheckMode   .... Total+1el-Energy
 Convergence forced     ConvForced      .... 0
 Energy Change          TolE            ....  1.000e-06 Eh
 1-El. energy change                    ....  1.000e-03 Eh
 DIIS Error             TolErr          ....  1.000e-06


Diagonalization of the overlap matrix:
Smallest eigenvalue                        ... 2.492e-04
Time for diagonalization                   ...    0.002 sec
Threshold for overlap eigenvalues          ... 1.000e-08
Number of eigenvalues below threshold      ... 0
Time for construction of square roots      ...    0.056 sec
Total time needed                          ...    0.058 sec

-------------------
DFT GRID GENERATION
-------------------

General Integration Accuracy     IntAcc      ...  4.670
Radial Grid Type                 RadialGrid  ... Gauss-Chebyshev
Angular Grid (max. acc.)         AngularGrid ... Lebedev-302
Angular grid pruning method      GridPruning ... 3 (G Style)
Weight generation scheme         WeightScheme... Becke
Basis function cutoff            BFCut       ...    1.0000e-10
Integration weight cutoff        WCut        ...    1.0000e-14
Grids for H and He will be reduced by one unit

# of grid points (after initial pruning)     ...  12424 (   0.0 sec)
# of grid points (after weights+screening)   ...  12396 (   0.1 sec)
nearest neighbour list constructed           ...    0.0 sec
Grid point re-assignment to atoms done       ...    0.0 sec
Grid point division into batches done        ...    0.1 sec
Reduced shell lists constructed in    0.1 sec

Total number of grid points                  ...    12396
Total number of batches                      ...      194
Average number of points per batch           ...       63
Average number of grid points per atom       ...     6198
Average number of shells per batch           ...     8.00 (28.57%)
Average number of basis functions per batch  ...    21.25 (26.56%)
Average number of large shells per batch     ...     4.62 (57.81%)
Average number of large basis fcns per batch ...    13.12 (61.76%)
Maximum spatial batch extension              ...  19.94, 19.94, 11.06 au
Average spatial batch extension              ...   0.55,  0.50,  0.34 au

Time for grid setup =    1.706 sec

------------------------------
INITIAL GUESS: MODEL POTENTIAL
------------------------------
Loading Hartree-Fock densities                     ... done
Calculating cut-offs                               ... done
Setting up the integral package                    ... done
Initializing the effective Hamiltonian             ... done
Starting the Coulomb interaction                   ... done (   0.0 sec)
Reading the grid                                   ... done
Mapping shells                                     ... done
Starting the XC term evaluation                    ... done (   0.0 sec)
  promolecular density results
     # of electrons  =     15.999999817
     EX              =    -16.216225074
     EC              =     -0.534270212
     EX+EC           =    -16.750495286
Transforming the Hamiltonian                       ... done (   0.0 sec)
Diagonalizing the Hamiltonian                      ... done (   0.0 sec)
Back transforming the eigenvectors                 ... done (   0.0 sec)
Now organizing SCF variables                       ... done
                      ------------------
                      INITIAL GUESS DONE (   2.1 sec)
                      ------------------
--------------
SCF ITERATIONS
--------------
ITER       Energy         Delta-E        Max-DP      RMS-DP      [F,P]     Damp
               ***  Starting incremental Fock matrix formation  ***
  0   -150.4067321811   0.000000000000 0.00612397  0.00029512  0.0711195 0.7000
  1   -150.4102499517  -0.003517770602 0.00507745  0.00023999  0.0503948 0.7000
                               ***Turning on DIIS***
  2   -150.4127322510  -0.002482299344 0.01177604  0.00058328  0.0355430 0.0000
  3   -150.4187022993  -0.005970048234 0.00271184  0.00011606  0.0068277 0.0000
  4   -150.4190124191  -0.000310119781 0.00117528  0.00005617  0.0015102 0.0000
  5   -150.4190997790  -0.000087359933 0.00080385  0.00004114  0.0006735 0.0000
  6   -150.4191486997  -0.000048920690 0.00025186  0.00001075  0.0002189 0.0000
  7   -150.4191564061  -0.000007706393 0.00004493  0.00000172  0.0000181 0.0000
  8   -150.4191579808  -0.000001574729 0.00000930  0.00000039  0.0000026 0.0000
                 **** Energy Check signals convergence ****

               *****************************************************
               *                     SUCCESS                       *
               *           SCF CONVERGED AFTER   9 CYCLES          *
               *****************************************************


Setting up the DFT-NL grid :

General Integration Accuracy     IntAcc      ...  4.340
Radial Grid Type                 RadialGrid  ... Gauss-Chebyshev
Angular Grid (max. acc.)         AngularGrid ... Lebedev-110
Angular grid pruning method      GridPruning ... 3 (G Style)
Weight generation scheme         WeightScheme... Becke
Basis function cutoff            BFCut       ...    1.0000e-10
Integration weight cutoff        WCut        ...    1.0000e-14
Grids for H and He will be reduced by one unit

# of grid points (after initial pruning)     ...   3432 (   0.0 sec)
# of grid points (after weights+screening)   ...   3406 (   0.0 sec)
nearest neighbour list constructed           ...    0.0 sec
Grid point re-assignment to atoms done       ...    0.0 sec
Grid point division into batches done        ...    0.0 sec
Reduced shell lists constructed in    0.0 sec

Total number of grid points                  ...     3406
Total number of batches                      ...       54
Average number of points per batch           ...       63
Average number of grid points per atom       ...     1703
Average number of shells per batch           ...    12.00 (42.86%)
Average number of basis functions per batch  ...    34.67 (43.33%)
Average number of large shells per batch     ...    10.67 (88.89%)
Average number of large basis fcns per batch ...    29.33 (84.62%)
Maximum spatial batch extension              ...  13.89, 25.65, 13.62 au
Average spatial batch extension              ...   0.51,  0.95,  0.50 au

Final grid set up in    0.3 sec

-------------------------------------------------------------------------------
                         DFT-NL dispersion correction                          
-------------------------------------------------------------------------------

SC Energy -150.419158263 
NL    Energy 0.067712364 
SC+NL Energy -150.351445899 
NL done in    0.1 sec
-------------------------------------------------------------------------------

----------------
TOTAL SCF ENERGY
----------------

Total Energy       :         -150.35144590 Eh           -4091.27084 eV

Components:
Nuclear Repulsion  :           28.04052106 Eh             763.02137 eV
Electronic Energy  :         -178.39196695 Eh           -4854.29221 eV
One Electron Energy:         -261.73491516 Eh           -7122.16913 eV
Two Electron Energy:           83.34294820 Eh            2267.87692 eV

Virial components:
Potential Energy   :         -300.33615278 Eh           -8172.56220 eV
Kinetic Energy     :          149.98470688 Eh            4081.29136 eV
Virial Ratio       :            2.00244518


DFT components:
N(Alpha)           :        9.000001296491 electrons
N(Beta)            :        7.000001628365 electrons
N(Total)           :       16.000002924856 electrons
E(X)               :      -11.869568710954 Eh       
E(C)               :       -0.567449921501 Eh       
NL Energy, E(C,NL) :        0.067712364484 Eh       
E(XC)              :      -12.369306267971 Eh       
DFET-embed. en.    :        0.000000000000 Eh       

---------------
SCF CONVERGENCE
---------------

  Last Energy change         ...   -2.8240e-07  Tolerance :   1.0000e-06
  Last MAX-Density change    ...    1.7700e-06  Tolerance :   1.0000e-05
  Last RMS-Density change    ...    8.2491e-08  Tolerance :   1.0000e-06
  Last DIIS Error            ...    4.5898e-07  Tolerance :   1.0000e-06

             **** THE GBW FILE WAS UPDATED (o2.gbw) ****
             **** DENSITY FILE WAS UPDATED (o2.scfp) ****
             **** ENERGY FILE WAS UPDATED (o2.en.tmp) ****
----------------------
UHF SPIN CONTAMINATION
----------------------

Warning: in a DFT calculation there is little theoretical justification to 
         calculate <S**2> as in Hartree-Fock theory. We will do it anyways
         but you should keep in mind that the values have only limited relevance

Expectation value of <S**2>     :     2.008707
Ideal value S*(S+1) for S=1.0   :     2.000000
Deviation                       :     0.008707

             **** THE GBW FILE WAS UPDATED (o2.gbw) ****
             **** DENSITY FILE WAS UPDATED (o2.scfp) ****
----------------
ORBITAL ENERGIES
----------------
                 SPIN UP ORBITALS
  NO   OCC          E(Eh)            E(eV) 
   0   1.0000     -19.501953      -530.6751 
   1   1.0000     -19.501860      -530.6726 
   2   1.0000      -1.443049       -39.2674 
   3   1.0000      -0.972112       -26.4525 
   4   1.0000      -0.684616       -18.6293 
   5   1.0000      -0.684616       -18.6293 
   6   1.0000      -0.672804       -18.3079 
   7   1.0000      -0.423023       -11.5110 
   8   1.0000      -0.423023       -11.5110 
   9   0.0000       0.060830         1.6553 
  10   0.0000       0.087212         2.3732 
  11   0.0000       0.094203         2.5634 
  12   0.0000       0.094203         2.5634 
  13   0.0000       0.137585         3.7439 
  14   0.0000       0.137585         3.7439 
  15   0.0000       0.138998         3.7823 
  16   0.0000       0.245245         6.6735 
  17   0.0000       0.353526         9.6199 
  18   0.0000       0.372645        10.1402 
  19   0.0000       0.372645        10.1402 
  20   0.0000       0.459658        12.5079 
  21   0.0000       0.504927        13.7398 
  22   0.0000       0.515187        14.0189 
  23   0.0000       0.515187        14.0189 
  24   0.0000       0.525560        14.3012 
  25   0.0000       0.525560        14.3012 
  26   0.0000       0.542637        14.7659 
  27   0.0000       0.542638        14.7659 
  28   0.0000       0.601844        16.3770 
  29   0.0000       0.601844        16.3770 
  30   0.0000       0.683532        18.5999 
  31   0.0000       0.841023        22.8854 
  32   0.0000       0.954695        25.9786 
  33   0.0000       0.954695        25.9786 
  34   0.0000       0.960156        26.1272 
  35   0.0000       1.282138        34.8887 
  36   0.0000       1.552160        42.2364 
  37   0.0000       1.552160        42.2364 
  38   0.0000       1.553922        42.2844 
  39   0.0000       1.553922        42.2844 
  40   0.0000       1.876780        51.0698 
  41   0.0000       1.876780        51.0698 
  42   0.0000       2.015281        54.8386 
  43   0.0000       2.219608        60.3986 
  44   0.0000       2.219608        60.3986 
  45   0.0000       2.469770        67.2059 
  46   0.0000       2.603457        70.8437 
  47   0.0000       2.603457        70.8437 
  48   0.0000       2.879697        78.3606 
  49   0.0000       3.103660        84.4549 
  50   0.0000       3.103660        84.4549 
  51   0.0000       3.221599        87.6642 
  52   0.0000       3.294589        89.6503 
  53   0.0000       4.356478       118.5458 
  54   0.0000       4.662960       126.8856 
  55   0.0000       4.662965       126.8857 
  56   0.0000       4.785492       130.2199 
  57   0.0000       4.785492       130.2199 
  58   0.0000       4.986274       135.6834 
  59   0.0000       4.986274       135.6834 
  60   0.0000       5.090247       138.5127 
  61   0.0000       5.226362       142.2165 
  62   0.0000       5.226362       142.2165 
  63   0.0000       5.782562       157.3515 
  64   0.0000       5.782564       157.3516 
  65   0.0000       6.263381       170.4353 
  66   0.0000       6.263389       170.4355 
  67   0.0000       6.376807       173.5217 
  68   0.0000       6.376807       173.5217 
  69   0.0000       6.431469       175.0092 
  70   0.0000       6.431470       175.0092 
  71   0.0000       6.562482       178.5742 
  72   0.0000       6.580401       179.0618 
  73   0.0000       6.580401       179.0618 
  74   0.0000       7.300542       198.6578 
  75   0.0000       7.300542       198.6578 
  76   0.0000       7.538694       205.1383 
  77   0.0000       8.742623       237.8989 
  78   0.0000      43.758730      1190.7356 
  79   0.0000      44.401461      1208.2252 

                 SPIN DOWN ORBITALS
  NO   OCC          E(Eh)            E(eV) 
   0   1.0000     -19.471834      -529.8555 
   1   1.0000     -19.471530      -529.8473 
   2   1.0000      -1.386334       -37.7241 
   3   1.0000      -0.884968       -24.0812 
   4   1.0000      -0.627491       -17.0749 
   5   1.0000      -0.578243       -15.7348 
   6   1.0000      -0.578243       -15.7348 
   7   0.0000      -0.026261        -0.7146 
   8   0.0000      -0.026261        -0.7146 
   9   0.0000       0.049028         1.3341 
  10   0.0000       0.079378         2.1600 
  11   0.0000       0.091028         2.4770 
  12   0.0000       0.091028         2.4770 
  13   0.0000       0.126219         3.4346 
  14   0.0000       0.126219         3.4346 
  15   0.0000       0.141626         3.8538 
  16   0.0000       0.249493         6.7890 
  17   0.0000       0.376300        10.2397 
  18   0.0000       0.376301        10.2397 
  19   0.0000       0.378195        10.2912 
  20   0.0000       0.463029        12.5997 
  21   0.0000       0.511497        13.9185 
  22   0.0000       0.515355        14.0235 
  23   0.0000       0.515355        14.0235 
  24   0.0000       0.522800        14.2261 
  25   0.0000       0.522800        14.2261 
  26   0.0000       0.531430        14.4610 
  27   0.0000       0.531432        14.4610 
  28   0.0000       0.629531        17.1304 
  29   0.0000       0.629531        17.1304 
  30   0.0000       0.693433        18.8693 
  31   0.0000       0.849047        23.1038 
  32   0.0000       0.955323        25.9957 
  33   0.0000       0.965374        26.2692 
  34   0.0000       0.965374        26.2692 
  35   0.0000       1.291281        35.1375 
  36   0.0000       1.586748        43.1776 
  37   0.0000       1.586748        43.1776 
  38   0.0000       1.591271        43.3007 
  39   0.0000       1.591274        43.3008 
  40   0.0000       1.932744        52.5926 
  41   0.0000       1.932747        52.5927 
  42   0.0000       2.043415        55.6041 
  43   0.0000       2.260598        61.5140 
  44   0.0000       2.260598        61.5140 
  45   0.0000       2.490097        67.7590 
  46   0.0000       2.687967        73.1433 
  47   0.0000       2.687967        73.1433 
  48   0.0000       2.931247        79.7633 
  49   0.0000       3.177666        86.4687 
  50   0.0000       3.177666        86.4687 
  51   0.0000       3.258924        88.6798 
  52   0.0000       3.345096        91.0247 
  53   0.0000       4.387935       119.4018 
  54   0.0000       4.715667       128.3198 
  55   0.0000       4.715670       128.3199 
  56   0.0000       4.826184       131.3271 
  57   0.0000       4.826184       131.3271 
  58   0.0000       5.068450       137.9195 
  59   0.0000       5.068450       137.9195 
  60   0.0000       5.137869       139.8085 
  61   0.0000       5.312693       144.5657 
  62   0.0000       5.312693       144.5657 
  63   0.0000       5.846329       159.0867 
  64   0.0000       5.846333       159.0868 
  65   0.0000       6.388719       173.8459 
  66   0.0000       6.388729       173.8462 
  67   0.0000       6.452592       175.5839 
  68   0.0000       6.452592       175.5839 
  69   0.0000       6.553914       178.3411 
  70   0.0000       6.553923       178.3413 
  71   0.0000       6.622122       180.1971 
  72   0.0000       6.653933       181.0627 
  73   0.0000       6.653933       181.0627 
  74   0.0000       7.348598       199.9655 
  75   0.0000       7.348598       199.9655 
  76   0.0000       7.586882       206.4496 
  77   0.0000       8.789544       239.1756 
  78   0.0000      43.784833      1191.4459 
  79   0.0000      44.426682      1208.9115 

                    ********************************
                    * MULLIKEN POPULATION ANALYSIS *
                    ********************************

--------------------------------------------
MULLIKEN ATOMIC CHARGES AND SPIN POPULATIONS
--------------------------------------------
   0 O :   -0.000000    1.000000
   1 O :    0.000000    1.000000
Sum of atomic charges         :    0.0000000
Sum of atomic spin populations:    2.0000000

-----------------------------------------------------
MULLIKEN REDUCED ORBITAL CHARGES AND SPIN POPULATIONS
-----------------------------------------------------
CHARGE
  0 O s       :     3.953455  s :     3.953455
      pz      :     1.034335  p :     3.999644
      px      :     1.482655
      py      :     1.482655
      dz2     :     0.010228  d :     0.042109
      dxz     :     0.015940
      dyz     :     0.015940
      dx2y2   :    -0.000000
      dxy     :     0.000000
      f0      :     0.001982  f :     0.004792
      f+1     :     0.001405
      f-1     :     0.001405
      f+2     :     0.000000
      f-2     :     0.000000
      f+3     :     0.000000
      f-3     :     0.000000
  1 O s       :     3.953455  s :     3.953455
      pz      :     1.034334  p :     3.999644
      px      :     1.482655
      py      :     1.482655
      dz2     :     0.010228  d :     0.042109
      dxz     :     0.015940
      dyz     :     0.015940
      dx2y2   :     0.000000
      dxy     :     0.000000
      f0      :     0.001982  f :     0.004792
      f+1     :     0.001405
      f-1     :     0.001405
      f+2     :     0.000000
      f-2     :     0.000000
      f+3     :     0.000000
      f-3     :     0.000000

SPIN
  0 O s       :     0.008936  s :     0.008936
      pz      :    -0.009205  p :     1.003088
      px      :     0.506146
      py      :     0.506146
      dz2     :     0.000560  d :    -0.011804
      dxz     :    -0.006182
      dyz     :    -0.006182
      dx2y2   :    -0.000000
      dxy     :    -0.000000
      f0      :    -0.000291  f :    -0.000220
      f+1     :     0.000036
      f-1     :     0.000036
      f+2     :     0.000000
      f-2     :    -0.000000
      f+3     :     0.000000
      f-3     :     0.000000
  1 O s       :     0.008936  s :     0.008936
      pz      :    -0.009205  p :     1.003088
      px      :     0.506146
      py      :     0.506146
      dz2     :     0.000560  d :    -0.011804
      dxz     :    -0.006182
      dyz     :    -0.006182
      dx2y2   :     0.000000
      dxy     :    -0.000000
      f0      :    -0.000291  f :    -0.000220
      f+1     :     0.000036
      f-1     :     0.000036
      f+2     :    -0.000000
      f-2     :     0.000000
      f+3     :     0.000000
      f-3     :     0.000000


                     *******************************
                     * LOEWDIN POPULATION ANALYSIS *
                     *******************************

-------------------------------------------
LOEWDIN ATOMIC CHARGES AND SPIN POPULATIONS
-------------------------------------------
   0 O :   -0.000000    1.000000
   1 O :    0.000000    1.000000

----------------------------------------------------
LOEWDIN REDUCED ORBITAL CHARGES AND SPIN POPULATIONS
----------------------------------------------------
CHARGE
  0 O s       :     3.549557  s :     3.549557
      pz      :     1.286519  p :     4.080417
      px      :     1.396949
      py      :     1.396949
      dz2     :     0.156362  d :     0.351182
      dxz     :     0.097410
      dyz     :     0.097410
      dx2y2   :     0.000000
      dxy     :     0.000000
      f0      :     0.007562  f :     0.018843
      f+1     :     0.005641
      f-1     :     0.005641
      f+2     :     0.000000
      f-2     :     0.000000
      f+3     :     0.000000
      f-3     :     0.000000
  1 O s       :     3.549557  s :     3.549557
      pz      :     1.286519  p :     4.080417
      px      :     1.396949
      py      :     1.396949
      dz2     :     0.156362  d :     0.351182
      dxz     :     0.097410
      dyz     :     0.097410
      dx2y2   :     0.000000
      dxy     :     0.000000
      f0      :     0.007562  f :     0.018843
      f+1     :     0.005641
      f-1     :     0.005641
      f+2     :     0.000000
      f-2     :     0.000000
      f+3     :     0.000000
      f-3     :     0.000000

SPIN
  0 O s       :     0.006998  s :     0.006998
      pz      :    -0.008294  p :     0.885419
      px      :     0.446856
      py      :     0.446856
      dz2     :     0.001456  d :     0.102186
      dxz     :     0.050365
      dyz     :     0.050365
      dx2y2   :     0.000000
      dxy     :    -0.000000
      f0      :    -0.000160  f :     0.005398
      f+1     :     0.002779
      f-1     :     0.002779
      f+2     :     0.000000
      f-2     :     0.000000
      f+3     :     0.000000
      f-3     :     0.000000
  1 O s       :     0.006998  s :     0.006998
      pz      :    -0.008294  p :     0.885419
      px      :     0.446856
      py      :     0.446856
      dz2     :     0.001456  d :     0.102186
      dxz     :     0.050365
      dyz     :     0.050365
      dx2y2   :     0.000000
      dxy     :    -0.000000
      f0      :    -0.000160  f :     0.005398
      f+1     :     0.002779
      f-1     :     0.002779
      f+2     :     0.000000
      f-2     :    -0.000000
      f+3     :     0.000000
      f-3     :     0.000000


                      *****************************
                      * MAYER POPULATION ANALYSIS *
                      *****************************

  NA   - Mulliken gross atomic population
  ZA   - Total nuclear charge
  QA   - Mulliken gross atomic charge
  VA   - Mayer's total valence
  BVA  - Mayer's bonded valence
  FA   - Mayer's free valence

  ATOM       NA         ZA         QA         VA         BVA        FA
  0 O      8.0000     8.0000    -0.0000     2.1494     1.6033     0.5461
  1 O      8.0000     8.0000     0.0000     2.1494     1.6033     0.5461

  Mayer bond orders larger than 0.100000
B(  0-O ,  1-O ) :   1.6033 

-------
TIMINGS
-------

Total SCF time: 0 days 0 hours 1 min 15 sec 

Total time                  ....      75.364 sec
Sum of individual times     ....      74.662 sec  ( 99.1%)

Fock matrix formation       ....      70.853 sec  ( 94.0%)
  XC integration            ....      67.697 sec  ( 95.5% of F)
    Basis function eval.    ....       0.010 sec  (  0.0% of XC)
    Density eval.           ....       0.027 sec  (  0.0% of XC)
    XC-Functional eval.     ....       0.016 sec  (  0.0% of XC)
    XC-Potential eval.      ....       0.050 sec  (  0.1% of XC)
Diagonalization             ....       1.230 sec  (  1.6%)
Density matrix formation    ....       0.005 sec  (  0.0%)
Population analysis         ....       0.103 sec  (  0.1%)
Initial guess               ....       0.416 sec  (  0.6%)
Orbital Transformation      ....       0.000 sec  (  0.0%)
Orbital Orthonormalization  ....       0.000 sec  (  0.0%)
DIIS solution               ....       0.075 sec  (  0.1%)
Grid generation             ....       1.979 sec  (  2.6%)

-------------------------   --------------------
FINAL SINGLE POINT ENERGY      -150.351445898713
-------------------------   --------------------


----------------------------------------------------------------------------
                           ORCA NUMERICAL GRADIENT
                              (28-process run)
----------------------------------------------------------------------------

I state                        ... 1
J state                        ... 0
Number of atoms                ... 2
Derivative's order of accuracy ... 2
Central differences            ... used
Number of displacements        ... 12
Numerical increment            ... 5.000e-03 bohr
Translation invariance         ... used

The output will be reduced. Please look at the following files:
SCF program output             ... >o2.lastscf
Integral program output        ... >o2.lastint
Gradient program output        ... >o2.lastgrad


     Note:   There are more processes than displacements to do
     ===>:   Reducing number of processes to   3

             <<<Displacing   2/coordinate 2 (+)>>>
             <<<Displacing   2/coordinate 1 (+)>>>
             <<<Displacing   2/coordinate 3 (+)>>>
             <<<Displacing   2/coordinate 2 (-)>>>
             <<<Displacing   2/coordinate 1 (-)>>>
             <<<Displacing   2/coordinate 3 (-)>>>

------------------------------
CARTESIAN GRADIENT (NUMERICAL)
-------------------------------
   1   O   :   -0.000000417   -0.000000101   -0.015725192
   2   O   :    0.000000417    0.000000101    0.015725192

Norm of the cartesian gradient     ...    0.022238780
RMS gradient                       ...    0.009078944
MAX gradient                       ...    0.015725192

-------
TIMINGS
-------

Total numerical gradient time      ...       25.947 sec


                            ***************************************
                            *     ORCA property calculations      *
                            ***************************************

                                    ---------------------
                                    Active property flags
                                    ---------------------
   (+) Dipole Moment


------------------------------------------------------------------------------
                       ORCA ELECTRIC PROPERTIES CALCULATION
------------------------------------------------------------------------------

Dipole Moment Calculation                       ... on
Quadrupole Moment Calculation                   ... off
Polarizability Calculation                      ... off
GBWName                                         ... o2.gbw
Electron density file                           ... o2.scfp
The origin for moment calculation is the CENTER OF MASS  = ( 0.000000,  0.000000  1.141206)

-------------
DIPOLE MOMENT
-------------
                                X             Y             Z
Electronic contribution:     -0.00000       0.00000       0.00000
Nuclear contribution   :      0.00000       0.00000       0.00000
                        -----------------------------------------
Total Dipole Moment    :     -0.00000       0.00000       0.00000
                        -----------------------------------------
Magnitude (a.u.)       :      0.00000
Magnitude (Debye)      :      0.00000



--------------------
Rotational spectrum 
--------------------
 
Rotational constants in cm-1:     0.000000     1.444588     1.444588 
Rotational constants in MHz :     0.000000 43307.659213 43307.659213 

 Dipole components along the rotational axes: 
x,y,z [a.u.] :     0.000000     0.000000    -0.000000 
x,y,z [Debye]:     0.000000     0.000000    -0.000000 

 

Timings for individual modules:

Sum of individual times         ...      105.615 sec (=   1.760 min)
GTO integral calculation        ...        3.608 sec (=   0.060 min)   3.4 %
SCF iterations                  ...       76.060 sec (=   1.268 min)  72.0 %
SCF Gradient evaluation         ...       25.947 sec (=   0.432 min)  24.6 %
                             ****ORCA TERMINATED NORMALLY****
TOTAL RUN TIME: 0 days 0 hours 3 minutes 29 seconds 235 msec
