
                                 *****************
                                 * O   R   C   A *
                                 *****************

           --- An Ab Initio, DFT and Semiempirical electronic structure package ---

                  #######################################################
                  #                        -***-                        #
                  #          Department of theory and spectroscopy      #
                  #               Directorship: Frank Neese             #
                  #        Max Planck Institute fuer Kohlenforschung    #
                  #                Kaiser Wilhelm Platz 1               #
                  #                 D-45470 Muelheim/Ruhr               #
                  #                      Germany                        #
                  #                                                     #
                  #                  All rights reserved                #
                  #                        -***-                        #
                  #######################################################


                         Program Version 4.2.0 -  RELEASE  -


 With contributions from (in alphabetic order):
   Daniel Aravena         : Magnetic Suceptibility
   Michael Atanasov       : Ab Initio Ligand Field Theory (pilot matlab implementation)
   Alexander A. Auer      : GIAO ZORA, VPT2
   Ute Becker             : Parallelization
   Giovanni Bistoni       : ED, misc. LED, open-shell LED, HFLED
   Martin Brehm           : Molecular dynamics
   Dmytro Bykov           : SCF Hessian
   Vijay G. Chilkuri      : MRCI spin determinant printing, contributions to CSF-ICE
   Dipayan Datta          : RHF DLPNO-CCSD density
   Achintya Kumar Dutta   : EOM-CC, STEOM-CC
   Dmitry Ganyushin       : Spin-Orbit,Spin-Spin,Magnetic field MRCI
   Miquel Garcia          : C-PCM Hessian, Gaussian charge scheme
   Yang Guo               : DLPNO-NEVPT2, CIM, IAO-localization
   Andreas Hansen         : Spin unrestricted coupled pair/coupled cluster methods
   Benjamin Helmich-Paris : CASSCF linear response (MC-RPA)
   Lee Huntington         : MR-EOM, pCC
   Robert Izsak           : Overlap fitted RIJCOSX, COSX-SCS-MP3, EOM
   Christian Kollmar      : KDIIS, OOCD, Brueckner-CCSD(T), CCSD density
   Simone Kossmann        : Meta GGA functionals, TD-DFT gradient, OOMP2, MP2 Hessian
   Martin Krupicka        : AUTO-CI
   Lucas Lang             : DCDCAS
   Dagmar Lenk            : GEPOL surface, SMD
   Dimitrios Liakos       : Extrapolation schemes; Compound Job, initial MDCI parallelization
   Dimitrios Manganas     : Further ROCIS development; embedding schemes
   Dimitrios Pantazis     : SARC Basis sets
   Taras Petrenko         : DFT Hessian,TD-DFT gradient, ASA, ECA, R-Raman, ABS, FL, XAS/XES, NRVS
   Peter Pinski           : DLPNO-MP2, DLPNO-MP2 Gradient
   Christoph Reimann      : Effective Core Potentials
   Marius Retegan         : Local ZFS, SOC
   Christoph Riplinger    : Optimizer, TS searches, QM/MM, DLPNO-CCSD(T), (RO)-DLPNO pert. Triples
   Tobias Risthaus        : Range-separated hybrids, TD-DFT gradient, RPA, STAB
   Michael Roemelt        : Original ROCIS implementation
   Masaaki Saitow         : Open-shell DLPNO-CCSD energy and density
   Barbara Sandhoefer     : DKH picture change effects
   Avijit Sen             : IP-ROCIS
   Kantharuban Sivalingam : CASSCF convergence, NEVPT2, FIC-MRCI
   Bernardo de Souza      : ESD, SOC TD-DFT
   Georgi Stoychev        : AutoAux, RI-MP2 NMR
   Willem Van den Heuvel  : Paramagnetic NMR
   Boris Wezisla          : Elementary symmetry handling
   Frank Wennmohs         : Technical directorship


 We gratefully acknowledge several colleagues who have allowed us to
 interface, adapt or use parts of their codes:
   Stefan Grimme, W. Hujo, H. Kruse,             : VdW corrections, initial TS optimization,
                  C. Bannwarth                     DFT functionals, gCP, sTDA/sTD-DF
   Ed Valeev, F. Pavosevic, A. Kumar             : LibInt (2-el integral package), F12 methods
   Garnet Chan, S. Sharma, J. Yang, R. Olivares  : DMRG
   Ulf Ekstrom                                   : XCFun DFT Library
   Mihaly Kallay                                 : mrcc  (arbitrary order and MRCC methods)
   Andreas Klamt, Michael Diedenhofen            : otool_cosmo (COSMO solvation model)
   Jiri Pittner, Ondrej Demel                    : Mk-CCSD
   Frank Weinhold                                : gennbo (NPA and NBO analysis)
   Christopher J. Cramer and Donald G. Truhlar   : smd solvation model
   Lars Goerigk                                  : TD-DFT with DH, B97 family of functionals
   V. Asgeirsson, H. Jonsson                     : NEB implementation
   FAccTs GmbH                                   : IRC, NEB, NEB-TS, Multilevel, MM, QM/MM, CI optimization
   S Lehtola, MJT Oliveira, MAL Marques          : LibXC Library


 Your calculation uses the libint2 library for the computation of 2-el integrals
 For citations please refer to: http://libint.valeyev.net

 Your ORCA version has been built with support for libXC version: 4.2.3
 For citations please refer to: https://tddft.org/programs/libxc/

 This ORCA versions uses:
   CBLAS   interface :  Fast vector & matrix operations
   LAPACKE interface :  Fast linear algebra routines
   SCALAPACK package :  Parallel linear algebra routines


Your calculation utilizes the DFT-NL dispersion correction.
Cite in your paper:
Vydrov, O. A.; Van Voorhis, T. J. Chem. Phys. 2010, 133, 244103
Hujo, W.; Grimme, S. J. Chem. Theory Comput. 2011, 7, 3866 
   

----- Orbital basis set information -----
Your calculation utilizes the basis: def2-TZVPPD
   F. Weigend and R. Ahlrichs, Phys. Chem. Chem. Phys. 7, 3297 (2005).
   D. Rappoport and F. Furche, J. Chem. Phys. 133 134105 (2010).

----- AuxJK basis set information -----
Your calculation utilizes the auxiliary basis: def2/JK
   H-Ba, Hf-Rn: F. Weigend, J. Comput. Chem. 29, 167 (2008).

================================================================================
                                        WARNINGS
                       Please study these warnings very carefully!
================================================================================

INFO   : Found keyword 'NumGrad' for Energy calculation
  ===> : Setting RunTyp to EnGrad

WARNING: Numerical Gradient with sloppy Convergence Criteria    
         Your results may be not reliable!                      
         Please choose at least TightSCF!                       

WARNING: your system is open-shell and RHF/RKS was chosen
  ===> : WILL SWITCH to UHF/UKS


INFO   : the flag for use of LIBINT has been found!

================================================================================
                                       INPUT FILE
================================================================================
NAME = s2.in
|  1> #
|  2> # s2 wB97M-V/Def2-TZVPPD
|  3> #
|  4> ! wb97m-v def2-tzvppd def2/jk grid4 nofinalgrid numgrad
|  5> 
|  6> *xyz 0 3
|  7> S          0.00000        0.00000        0.96175
|  8> S          0.00000        0.00000       -0.96175
|  9> *
| 10> 
| 11> %maxcore 5000
| 12> 
| 13> %pal
| 14> nprocs = 28
| 15> end
| 16> 
| 17> 
| 18>                          ****END OF INPUT****
================================================================================

                     *******************************
                     * Energy+Gradient Calculation *
                     *******************************

---------------------------------
CARTESIAN COORDINATES (ANGSTROEM)
---------------------------------
  S      0.000000    0.000000    0.961750
  S      0.000000    0.000000   -0.961750

----------------------------
CARTESIAN COORDINATES (A.U.)
----------------------------
  NO LB      ZA    FRAG     MASS         X           Y           Z
   0 S    16.0000    0    32.060    0.000000    0.000000    1.817444
   1 S    16.0000    0    32.060    0.000000    0.000000   -1.817444

--------------------------------
INTERNAL COORDINATES (ANGSTROEM)
--------------------------------
 S      0   0   0     0.000000000000     0.00000000     0.00000000
 S      1   0   0     1.923500000000     0.00000000     0.00000000

---------------------------
INTERNAL COORDINATES (A.U.)
---------------------------
 S      0   0   0     0.000000000000     0.00000000     0.00000000
 S      1   0   0     3.634888218598     0.00000000     0.00000000

---------------------
BASIS SET INFORMATION
---------------------
There are 1 groups of distinct atoms

 Group   1 Type S   : 15s10p4d1f contracted to 6s6p4d1f pattern {732111/511111/1111/1}

Atom   0S    basis set group =>   1
Atom   1S    basis set group =>   1
----------------------------------
AUXILIARY/JK BASIS SET INFORMATION
----------------------------------
There are 1 groups of distinct atoms

 Group   1 Type S   : 16s12p10d4f1g contracted to 13s11p9d4f1g pattern {4111111111111/21111111111/211111111/1111/1}

Atom   0S    basis set group =>   1
Atom   1S    basis set group =>   1


           ************************************************************
           *        Program running with 28 parallel MPI-processes    *
           *              working on a common directory               *
           ************************************************************
------------------------------------------------------------------------------
                           ORCA GTO INTEGRAL CALCULATION
------------------------------------------------------------------------------

                         BASIS SET STATISTICS AND STARTUP INFO

 # of primitive gaussian shells          ...   60
 # of primitive gaussian functions       ...  144
 # of contracted shells                  ...   34
 # of contracted basis functions         ...  102
 Highest angular momentum                ...    3
 Maximum contraction depth               ...    7
 Integral package used                   ... LIBINT
 Integral threshhold            Thresh   ...  1.000e-10
 Primitive cut-off              TCut     ...  1.000e-11


------------------------------ INTEGRAL EVALUATION ----------------------------


 * One electron integrals 
 Pre-screening matrix                    ... done
 Shell pair data                         ... done (   0.000 sec)



           ************************************************************
           *        Program running with 28 parallel MPI-processes    *
           *              working on a common directory               *
           ************************************************************
-------------------------------------------------------------------------------
                                 ORCA SCF
-------------------------------------------------------------------------------

------------
SCF SETTINGS
------------
Hamiltonian:
 Density Functional     Method          .... DFT(GTOs)
 Exchange Functional    Exchange        .... WB97M-V
 Correlation Functional Correlation     .... WB97M-V
 Gradients option       PostSCFGGA      .... off
 Hybrid DFT is turned on
   Fraction HF Exchange ScalHFX         ....  0.150000
   Scaling of DF-GGA-X  ScalDFX         ....  0.000000
   Scaling of DF-GGA-C  ScalDFC         ....  1.000000
   Scaling of DF-LDA-C  ScalLDAC        ....  1.000000
   Perturbative correction              ....  0.000000
   Density functional embedding theory  .... OFF
 Long-range corrected/Screened/Range-Separated Hybrid DFT is turned on
   Amount of maximum screened exact exchange              ....  0.850000
   Range separation parameter mu (erf(mu*r12)/r12)        ....  0.300000
   NL short-range parameter             ....  6.000000
   NL long-range parameter              ....  0.010000


General Settings:
 Integral files         IntName         .... s2
 Hartree-Fock type      HFTyp           .... UHF
 Total Charge           Charge          ....    0
 Multiplicity           Mult            ....    3
 Number of Electrons    NEL             ....   32
 Basis Dimension        Dim             ....  102
 Nuclear Repulsion      ENuc            ....     70.4285756822 Eh

Convergence Acceleration:
 DIIS                   CNVDIIS         .... on
   Start iteration      DIISMaxIt       ....    12
   Startup error        DIISStart       ....  0.200000
   # of expansion vecs  DIISMaxEq       ....     5
   Bias factor          DIISBfac        ....   1.050
   Max. coefficient     DIISMaxC        ....  10.000
 Newton-Raphson         CNVNR           .... off
 SOSCF                  CNVSOSCF        .... off
 Level Shifting         CNVShift        .... on
   Level shift para.    LevelShift      ....    0.2500
   Turn off err/grad.   ShiftErr        ....    0.0010
 Zerner damping         CNVZerner       .... off
 Static damping         CNVDamp         .... on
   Fraction old density DampFac         ....    0.7000
   Max. Damping (<1)    DampMax         ....    0.9800
   Min. Damping (>=0)   DampMin         ....    0.0000
   Turn off err/grad.   DampErr         ....    0.1000
 Fernandez-Rico         CNVRico         .... off

SCF Procedure:
 Maximum # iterations   MaxIter         ....   125
 SCF integral mode      SCFMode         .... Direct
   Integral package                     .... LIBINT
 Reset frequency        DirectResetFreq ....    20
 Integral Threshold     Thresh          ....  1.000e-10 Eh
 Primitive CutOff       TCut            ....  1.000e-11 Eh

Convergence Tolerance:
 Convergence Check Mode ConvCheckMode   .... Total+1el-Energy
 Convergence forced     ConvForced      .... 0
 Energy Change          TolE            ....  1.000e-06 Eh
 1-El. energy change                    ....  1.000e-03 Eh
 DIIS Error             TolErr          ....  1.000e-06


Diagonalization of the overlap matrix:
Smallest eigenvalue                        ... 7.821e-04
Time for diagonalization                   ...    0.002 sec
Threshold for overlap eigenvalues          ... 1.000e-08
Number of eigenvalues below threshold      ... 0
Time for construction of square roots      ...    0.041 sec
Total time needed                          ...    0.043 sec

-------------------
DFT GRID GENERATION
-------------------

General Integration Accuracy     IntAcc      ...  4.670
Radial Grid Type                 RadialGrid  ... Gauss-Chebyshev
Angular Grid (max. acc.)         AngularGrid ... Lebedev-302
Angular grid pruning method      GridPruning ... 3 (G Style)
Weight generation scheme         WeightScheme... Becke
Basis function cutoff            BFCut       ...    1.0000e-10
Integration weight cutoff        WCut        ...    1.0000e-14
Grids for H and He will be reduced by one unit

# of grid points (after initial pruning)     ...  13692 (   0.0 sec)
# of grid points (after weights+screening)   ...  13666 (   0.0 sec)
nearest neighbour list constructed           ...    0.0 sec
Grid point re-assignment to atoms done       ...    0.0 sec
Grid point division into batches done        ...    0.1 sec
Reduced shell lists constructed in    0.1 sec

Total number of grid points                  ...    13666
Total number of batches                      ...      214
Average number of points per batch           ...       63
Average number of grid points per atom       ...     6833
Average number of shells per batch           ...     8.11 (23.86%)
Average number of basis functions per batch  ...    21.67 (21.24%)
Average number of large shells per batch     ...     6.33 (78.08%)
Average number of large basis fcns per batch ...    19.00 (87.69%)
Maximum spatial batch extension              ...  19.50, 19.55, 13.50 au
Average spatial batch extension              ...   0.59,  0.57,  0.41 au

Time for grid setup =    1.255 sec

------------------------------
INITIAL GUESS: MODEL POTENTIAL
------------------------------
Loading Hartree-Fock densities                     ... done
Calculating cut-offs                               ... done
Setting up the integral package                    ... done
Initializing the effective Hamiltonian             ... done
Starting the Coulomb interaction                   ... done (   0.0 sec)
Reading the grid                                   ... done
Mapping shells                                     ... done
Starting the XC term evaluation                    ... done (   0.0 sec)
  promolecular density results
     # of electrons  =     32.000015260
     EX              =    -49.739420575
     EC              =     -1.226522955
     EX+EC           =    -50.965943530
Transforming the Hamiltonian                       ... done (   0.1 sec)
Diagonalizing the Hamiltonian                      ... done (   0.0 sec)
Back transforming the eigenvectors                 ... done (   0.0 sec)
Now organizing SCF variables                       ... done
                      ------------------
                      INITIAL GUESS DONE (   1.8 sec)
                      ------------------
--------------
SCF ITERATIONS
--------------
ITER       Energy         Delta-E        Max-DP      RMS-DP      [F,P]     Damp
               ***  Starting incremental Fock matrix formation  ***
  0   -796.4722466965   0.000000000000 0.00789053  0.00023819  0.0510426 0.7000
  1   -796.4753365144  -0.003089817872 0.00616271  0.00020668  0.0359429 0.7000
                               ***Turning on DIIS***
  2   -796.4775185158  -0.002182001472 0.01315555  0.00050925  0.0252934 0.0000
  3   -796.4826270658  -0.005108549996 0.00572363  0.00012750  0.0072385 0.0000
  4   -796.4829982610  -0.000371195226 0.00129940  0.00004004  0.0018376 0.0000
  5   -796.4830841964  -0.000085935340 0.00128615  0.00003043  0.0004493 0.0000
  6   -796.4831382631  -0.000054066749 0.00032892  0.00000775  0.0001045 0.0000
  7   -796.4831468359  -0.000008572758 0.00003412  0.00000142  0.0000162 0.0000
                 **** Energy Check signals convergence ****

               *****************************************************
               *                     SUCCESS                       *
               *           SCF CONVERGED AFTER   8 CYCLES          *
               *****************************************************


Setting up the DFT-NL grid :

General Integration Accuracy     IntAcc      ...  4.340
Radial Grid Type                 RadialGrid  ... Gauss-Chebyshev
Angular Grid (max. acc.)         AngularGrid ... Lebedev-110
Angular grid pruning method      GridPruning ... 3 (G Style)
Weight generation scheme         WeightScheme... Becke
Basis function cutoff            BFCut       ...    1.0000e-10
Integration weight cutoff        WCut        ...    1.0000e-14
Grids for H and He will be reduced by one unit

# of grid points (after initial pruning)     ...   3612 (   0.0 sec)
# of grid points (after weights+screening)   ...   3588 (   0.0 sec)
nearest neighbour list constructed           ...    0.0 sec
Grid point re-assignment to atoms done       ...    0.0 sec
Grid point division into batches done        ...    0.0 sec
Reduced shell lists constructed in    0.0 sec

Total number of grid points                  ...     3588
Total number of batches                      ...       58
Average number of points per batch           ...       61
Average number of grid points per atom       ...     1794
Average number of shells per batch           ...    14.50 (42.65%)
Average number of basis functions per batch  ...    48.00 (47.06%)
Average number of large shells per batch     ...    11.00 (75.86%)
Average number of large basis fcns per batch ...    33.50 (69.79%)
Maximum spatial batch extension              ...  29.83, 22.78, 16.64 au
Average spatial batch extension              ...   1.05,  1.06,  0.74 au

Final grid set up in    2.1 sec

-------------------------------------------------------------------------------
                         DFT-NL dispersion correction                          
-------------------------------------------------------------------------------

SC Energy -796.483147794 
NL    Energy 0.133636182 
SC+NL Energy -796.349511612 
NL done in    1.9 sec
-------------------------------------------------------------------------------

----------------
TOTAL SCF ENERGY
----------------

Total Energy       :         -796.34951161 Eh          -21669.77188 eV

Components:
Nuclear Repulsion  :           70.42857568 Eh            1916.45898 eV
Electronic Energy  :         -866.77808729 Eh          -23586.23086 eV
One Electron Energy:        -1239.52941084 Eh          -33729.31003 eV
Two Electron Energy:          372.75132354 Eh           10143.07918 eV

Virial components:
Potential Energy   :        -1591.21106246 Eh          -43299.05429 eV
Kinetic Energy     :          794.86155085 Eh           21629.28241 eV
Virial Ratio       :            2.00187197


DFT components:
N(Alpha)           :       17.000005272597 electrons
N(Beta)            :       15.000005237111 electrons
N(Total)           :       32.000010509708 electrons
E(X)               :      -38.193629327388 Eh       
E(C)               :       -1.383400547580 Eh       
NL Energy, E(C,NL) :        0.133636182468 Eh       
E(XC)              :      -39.443393692500 Eh       
DFET-embed. en.    :        0.000000000000 Eh       

---------------
SCF CONVERGENCE
---------------

  Last Energy change         ...   -9.5842e-07  Tolerance :   1.0000e-06
  Last MAX-Density change    ...    8.2994e-06  Tolerance :   1.0000e-05
  Last RMS-Density change    ...    3.8990e-07  Tolerance :   1.0000e-06
  Last DIIS Error            ...    5.0409e-06  Tolerance :   1.0000e-06

             **** THE GBW FILE WAS UPDATED (s2.gbw) ****
             **** DENSITY FILE WAS UPDATED (s2.scfp) ****
             **** ENERGY FILE WAS UPDATED (s2.en.tmp) ****
----------------------
UHF SPIN CONTAMINATION
----------------------

Warning: in a DFT calculation there is little theoretical justification to 
         calculate <S**2> as in Hartree-Fock theory. We will do it anyways
         but you should keep in mind that the values have only limited relevance

Expectation value of <S**2>     :     2.009670
Ideal value S*(S+1) for S=1.0   :     2.000000
Deviation                       :     0.009670

             **** THE GBW FILE WAS UPDATED (s2.gbw) ****
             **** DENSITY FILE WAS UPDATED (s2.scfp) ****
----------------
ORBITAL ENERGIES
----------------
                 SPIN UP ORBITALS
  NO   OCC          E(Eh)            E(eV) 
   0   1.0000     -89.249088     -2428.5911 
   1   1.0000     -89.249077     -2428.5908 
   2   1.0000      -8.173927      -222.4239 
   3   1.0000      -8.173817      -222.4209 
   4   1.0000      -6.083310      -165.5353 
   5   1.0000      -6.083310      -165.5353 
   6   1.0000      -6.083286      -165.5346 
   7   1.0000      -6.083286      -165.5346 
   8   1.0000      -6.081498      -165.4860 
   9   1.0000      -6.080894      -165.4695 
  10   1.0000      -0.956957       -26.0401 
  11   1.0000      -0.753492       -20.5036 
  12   1.0000      -0.497774       -13.5451 
  13   1.0000      -0.479080       -13.0364 
  14   1.0000      -0.479080       -13.0364 
  15   1.0000      -0.340199        -9.2573 
  16   1.0000      -0.340199        -9.2573 
  17   0.0000       0.020584         0.5601 
  18   0.0000       0.054041         1.4705 
  19   0.0000       0.054041         1.4705 
  20   0.0000       0.057847         1.5741 
  21   0.0000       0.076967         2.0944 
  22   0.0000       0.076967         2.0944 
  23   0.0000       0.079557         2.1649 
  24   0.0000       0.080905         2.2015 
  25   0.0000       0.156120         4.2482 
  26   0.0000       0.156120         4.2482 
  27   0.0000       0.197350         5.3702 
  28   0.0000       0.206692         5.6244 
  29   0.0000       0.206692         5.6244 
  30   0.0000       0.247116         6.7244 
  31   0.0000       0.251206         6.8357 
  32   0.0000       0.251208         6.8357 
  33   0.0000       0.289021         7.8646 
  34   0.0000       0.294771         8.0211 
  35   0.0000       0.294771         8.0211 
  36   0.0000       0.407328        11.0840 
  37   0.0000       0.407328        11.0840 
  38   0.0000       0.443584        12.0705 
  39   0.0000       0.471338        12.8258 
  40   0.0000       0.471338        12.8258 
  41   0.0000       0.492762        13.4087 
  42   0.0000       0.492764        13.4088 
  43   0.0000       0.574115        15.6225 
  44   0.0000       0.574120        15.6226 
  45   0.0000       0.577713        15.7204 
  46   0.0000       0.577713        15.7204 
  47   0.0000       0.584561        15.9067 
  48   0.0000       0.615553        16.7501 
  49   0.0000       0.707308        19.2468 
  50   0.0000       0.707308        19.2468 
  51   0.0000       0.762238        20.7416 
  52   0.0000       0.819379        22.2964 
  53   0.0000       1.175312        31.9819 
  54   0.0000       1.496612        40.7249 
  55   0.0000       1.496614        40.7249 
  56   0.0000       1.517575        41.2953 
  57   0.0000       1.550425        42.1892 
  58   0.0000       1.550425        42.1892 
  59   0.0000       1.604244        43.6537 
  60   0.0000       1.604273        43.6545 
  61   0.0000       1.625842        44.2414 
  62   0.0000       1.625881        44.2425 
  63   0.0000       1.640566        44.6421 
  64   0.0000       1.640566        44.6421 
  65   0.0000       1.642851        44.7042 
  66   0.0000       1.642851        44.7042 
  67   0.0000       1.676771        45.6273 
  68   0.0000       1.731027        47.1036 
  69   0.0000       1.731027        47.1036 
  70   0.0000       1.732193        47.1354 
  71   0.0000       1.732193        47.1354 
  72   0.0000       1.882205        51.2174 
  73   0.0000       1.882205        51.2174 
  74   0.0000       1.898661        51.6652 
  75   0.0000       1.969366        53.5892 
  76   0.0000       1.969377        53.5895 
  77   0.0000       1.983607        53.9767 
  78   0.0000       1.983607        53.9767 
  79   0.0000       2.053174        55.8697 
  80   0.0000       2.518417        68.5296 
  81   0.0000       2.547849        69.3305 
  82   0.0000       2.547849        69.3305 
  83   0.0000       3.076757        83.7228 
  84   0.0000       6.796107       184.9315 
  85   0.0000       6.796163       184.9330 
  86   0.0000       6.825203       185.7232 
  87   0.0000       6.825260       185.7248 
  88   0.0000       6.831163       185.8854 
  89   0.0000       6.831163       185.8854 
  90   0.0000       6.847194       186.3216 
  91   0.0000       6.849401       186.3817 
  92   0.0000       6.849401       186.3817 
  93   0.0000       7.056990       192.0305 
  94   0.0000       8.965509       243.9639 
  95   0.0000       8.965509       243.9639 
  96   0.0000       9.093725       247.4528 
  97   0.0000       9.093725       247.4528 
  98   0.0000       9.254400       251.8250 
  99   0.0000       9.373480       255.0654 
 100   0.0000      18.456832       502.2359 
 101   0.0000      19.152465       521.1651 

                 SPIN DOWN ORBITALS
  NO   OCC          E(Eh)            E(eV) 
   0   1.0000     -89.242046     -2428.3995 
   1   1.0000     -89.242036     -2428.3993 
   2   1.0000      -8.167845      -222.2584 
   3   1.0000      -8.167660      -222.2533 
   4   1.0000      -6.077379      -165.3739 
   5   1.0000      -6.076772      -165.3574 
   6   1.0000      -6.069421      -165.1574 
   7   1.0000      -6.069421      -165.1574 
   8   1.0000      -6.069379      -165.1562 
   9   1.0000      -6.069379      -165.1562 
  10   1.0000      -0.930497       -25.3201 
  11   1.0000      -0.697686       -18.9850 
  12   1.0000      -0.472476       -12.8567 
  13   1.0000      -0.422341       -11.4925 
  14   1.0000      -0.422341       -11.4925 
  15   0.0000      -0.071929        -1.9573 
  16   0.0000      -0.071929        -1.9573 
  17   0.0000       0.009294         0.2529 
  18   0.0000       0.042746         1.1632 
  19   0.0000       0.042746         1.1632 
  20   0.0000       0.043534         1.1846 
  21   0.0000       0.060865         1.6562 
  22   0.0000       0.060865         1.6562 
  23   0.0000       0.077931         2.1206 
  24   0.0000       0.091554         2.4913 
  25   0.0000       0.155769         4.2387 
  26   0.0000       0.155770         4.2387 
  27   0.0000       0.185836         5.0569 
  28   0.0000       0.215669         5.8686 
  29   0.0000       0.215669         5.8686 
  30   0.0000       0.238639         6.4937 
  31   0.0000       0.238646         6.4939 
  32   0.0000       0.247123         6.7246 
  33   0.0000       0.282695         7.6925 
  34   0.0000       0.282695         7.6925 
  35   0.0000       0.284209         7.7337 
  36   0.0000       0.413446        11.2504 
  37   0.0000       0.413446        11.2504 
  38   0.0000       0.440393        11.9837 
  39   0.0000       0.489037        13.3074 
  40   0.0000       0.489037        13.3074 
  41   0.0000       0.515706        14.0331 
  42   0.0000       0.515713        14.0333 
  43   0.0000       0.575843        15.6695 
  44   0.0000       0.575843        15.6695 
  45   0.0000       0.584897        15.9159 
  46   0.0000       0.608665        16.5626 
  47   0.0000       0.608669        16.5627 
  48   0.0000       0.627887        17.0857 
  49   0.0000       0.732791        19.9402 
  50   0.0000       0.732791        19.9402 
  51   0.0000       0.788275        21.4501 
  52   0.0000       0.837323        22.7847 
  53   0.0000       1.189450        32.3666 
  54   0.0000       1.533940        41.7406 
  55   0.0000       1.534732        41.7622 
  56   0.0000       1.534735        41.7623 
  57   0.0000       1.571967        42.7754 
  58   0.0000       1.571967        42.7754 
  59   0.0000       1.647818        44.8394 
  60   0.0000       1.647842        44.8401 
  61   0.0000       1.667074        45.3634 
  62   0.0000       1.667074        45.3634 
  63   0.0000       1.672481        45.5105 
  64   0.0000       1.672516        45.5115 
  65   0.0000       1.691283        46.0222 
  66   0.0000       1.694945        46.1218 
  67   0.0000       1.694945        46.1218 
  68   0.0000       1.757158        47.8147 
  69   0.0000       1.757158        47.8147 
  70   0.0000       1.786181        48.6045 
  71   0.0000       1.786181        48.6045 
  72   0.0000       1.914232        52.0889 
  73   0.0000       1.941327        52.8262 
  74   0.0000       1.941327        52.8262 
  75   0.0000       2.007995        54.6403 
  76   0.0000       2.007999        54.6404 
  77   0.0000       2.034589        55.3640 
  78   0.0000       2.034589        55.3640 
  79   0.0000       2.076874        56.5146 
  80   0.0000       2.534266        68.9609 
  81   0.0000       2.578509        70.1648 
  82   0.0000       2.578509        70.1648 
  83   0.0000       3.095148        84.2233 
  84   0.0000       6.808649       185.2728 
  85   0.0000       6.808689       185.2739 
  86   0.0000       6.836657       186.0349 
  87   0.0000       6.836657       186.0349 
  88   0.0000       6.838688       186.0902 
  89   0.0000       6.838730       186.0913 
  90   0.0000       6.852354       186.4620 
  91   0.0000       6.855459       186.5465 
  92   0.0000       6.855459       186.5465 
  93   0.0000       7.062003       192.1669 
  94   0.0000       8.988995       244.6030 
  95   0.0000       8.988995       244.6030 
  96   0.0000       9.118424       248.1249 
  97   0.0000       9.118424       248.1249 
  98   0.0000       9.259400       251.9611 
  99   0.0000       9.380291       255.2507 
 100   0.0000      18.464108       502.4339 
 101   0.0000      19.160635       521.3874 

                    ********************************
                    * MULLIKEN POPULATION ANALYSIS *
                    ********************************

--------------------------------------------
MULLIKEN ATOMIC CHARGES AND SPIN POPULATIONS
--------------------------------------------
   0 S :    0.000000    1.000001
   1 S :   -0.000000    0.999999
Sum of atomic charges         :    0.0000000
Sum of atomic spin populations:    2.0000000

-----------------------------------------------------
MULLIKEN REDUCED ORBITAL CHARGES AND SPIN POPULATIONS
-----------------------------------------------------
CHARGE
  0 S s       :     5.925415  s :     5.925415
      pz      :     3.038100  p :     9.950439
      px      :     3.456169
      py      :     3.456169
      dz2     :     0.032987  d :     0.113774
      dxz     :     0.040394
      dyz     :     0.040394
      dx2y2   :     0.000000
      dxy     :     0.000000
      f0      :     0.003498  f :     0.010371
      f+1     :     0.003437
      f-1     :     0.003437
      f+2     :     0.000000
      f-2     :     0.000000
      f+3     :     0.000000
      f-3     :     0.000000
  1 S s       :     5.925416  s :     5.925416
      pz      :     3.038100  p :     9.950439
      px      :     3.456169
      py      :     3.456169
      dz2     :     0.032987  d :     0.113774
      dxz     :     0.040394
      dyz     :     0.040394
      dx2y2   :     0.000000
      dxy     :     0.000000
      f0      :     0.003498  f :     0.010371
      f+1     :     0.003437
      f-1     :     0.003437
      f+2     :     0.000000
      f-2     :     0.000000
      f+3     :     0.000000
      f-3     :     0.000000

SPIN
  0 S s       :     0.004379  s :     0.004379
      pz      :    -0.004431  p :     1.000838
      px      :     0.502634
      py      :     0.502634
      dz2     :     0.000679  d :    -0.004526
      dxz     :    -0.002602
      dyz     :    -0.002602
      dx2y2   :     0.000000
      dxy     :     0.000000
      f0      :    -0.000626  f :    -0.000690
      f+1     :    -0.000032
      f-1     :    -0.000032
      f+2     :    -0.000000
      f-2     :    -0.000000
      f+3     :     0.000000
      f-3     :     0.000000
  1 S s       :     0.004378  s :     0.004378
      pz      :    -0.004432  p :     1.000837
      px      :     0.502634
      py      :     0.502634
      dz2     :     0.000679  d :    -0.004526
      dxz     :    -0.002602
      dyz     :    -0.002602
      dx2y2   :    -0.000000
      dxy     :     0.000000
      f0      :    -0.000626  f :    -0.000690
      f+1     :    -0.000032
      f-1     :    -0.000032
      f+2     :    -0.000000
      f-2     :     0.000000
      f+3     :     0.000000
      f-3     :     0.000000


                     *******************************
                     * LOEWDIN POPULATION ANALYSIS *
                     *******************************

-------------------------------------------
LOEWDIN ATOMIC CHARGES AND SPIN POPULATIONS
-------------------------------------------
   0 S :    0.000000    1.000000
   1 S :   -0.000000    1.000000

----------------------------------------------------
LOEWDIN REDUCED ORBITAL CHARGES AND SPIN POPULATIONS
----------------------------------------------------
CHARGE
  0 S s       :     5.561257  s :     5.561257
      pz      :     3.229595  p :     9.948252
      px      :     3.359328
      py      :     3.359328
      dz2     :     0.196266  d :     0.459672
      dxz     :     0.131703
      dyz     :     0.131703
      dx2y2   :     0.000000
      dxy     :     0.000000
      f0      :     0.012882  f :     0.030819
      f+1     :     0.008969
      f-1     :     0.008969
      f+2     :     0.000000
      f-2     :     0.000000
      f+3     :     0.000000
      f-3     :     0.000000
  1 S s       :     5.561257  s :     5.561257
      pz      :     3.229595  p :     9.948252
      px      :     3.359328
      py      :     3.359328
      dz2     :     0.196266  d :     0.459672
      dxz     :     0.131703
      dyz     :     0.131703
      dx2y2   :     0.000000
      dxy     :     0.000000
      f0      :     0.012882  f :     0.030819
      f+1     :     0.008969
      f-1     :     0.008969
      f+2     :     0.000000
      f-2     :     0.000000
      f+3     :     0.000000
      f-3     :     0.000000

SPIN
  0 S s       :     0.001221  s :     0.001221
      pz      :    -0.002855  p :     0.875799
      px      :     0.439327
      py      :     0.439327
      dz2     :     0.002253  d :     0.117407
      dxz     :     0.057577
      dyz     :     0.057577
      dx2y2   :     0.000000
      dxy     :     0.000000
      f0      :    -0.000619  f :     0.005572
      f+1     :     0.003096
      f-1     :     0.003096
      f+2     :    -0.000000
      f-2     :    -0.000000
      f+3     :     0.000000
      f-3     :     0.000000
  1 S s       :     0.001221  s :     0.001221
      pz      :    -0.002855  p :     0.875799
      px      :     0.439327
      py      :     0.439327
      dz2     :     0.002253  d :     0.117407
      dxz     :     0.057577
      dyz     :     0.057577
      dx2y2   :    -0.000000
      dxy     :     0.000000
      f0      :    -0.000619  f :     0.005572
      f+1     :     0.003096
      f-1     :     0.003096
      f+2     :    -0.000000
      f-2     :     0.000000
      f+3     :     0.000000
      f-3     :     0.000000


                      *****************************
                      * MAYER POPULATION ANALYSIS *
                      *****************************

  NA   - Mulliken gross atomic population
  ZA   - Total nuclear charge
  QA   - Mulliken gross atomic charge
  VA   - Mayer's total valence
  BVA  - Mayer's bonded valence
  FA   - Mayer's free valence

  ATOM       NA         ZA         QA         VA         BVA        FA
  0 S     16.0000    16.0000     0.0000     2.5542     1.9839     0.5703
  1 S     16.0000    16.0000    -0.0000     2.5542     1.9839     0.5703

  Mayer bond orders larger than 0.100000
B(  0-S ,  1-S ) :   1.9839 

-------
TIMINGS
-------

Total SCF time: 0 days 0 hours 1 min 11 sec 

Total time                  ....      71.701 sec
Sum of individual times     ....      68.652 sec  ( 95.7%)

Fock matrix formation       ....      62.935 sec  ( 87.8%)
  XC integration            ....      61.994 sec  ( 98.5% of F)
    Basis function eval.    ....       0.012 sec  (  0.0% of XC)
    Density eval.           ....       0.033 sec  (  0.1% of XC)
    XC-Functional eval.     ....       0.015 sec  (  0.0% of XC)
    XC-Potential eval.      ....       0.065 sec  (  0.1% of XC)
Diagonalization             ....       1.322 sec  (  1.8%)
Density matrix formation    ....       0.006 sec  (  0.0%)
Population analysis         ....       0.467 sec  (  0.7%)
Initial guess               ....       0.498 sec  (  0.7%)
Orbital Transformation      ....       0.000 sec  (  0.0%)
Orbital Orthonormalization  ....       0.000 sec  (  0.0%)
DIIS solution               ....       0.067 sec  (  0.1%)
Grid generation             ....       3.358 sec  (  4.7%)

-------------------------   --------------------
FINAL SINGLE POINT ENERGY      -796.349511611851
-------------------------   --------------------


----------------------------------------------------------------------------
                           ORCA NUMERICAL GRADIENT
                              (28-process run)
----------------------------------------------------------------------------

I state                        ... 1
J state                        ... 0
Number of atoms                ... 2
Derivative's order of accuracy ... 2
Central differences            ... used
Number of displacements        ... 12
Numerical increment            ... 5.000e-03 bohr
Translation invariance         ... used

The output will be reduced. Please look at the following files:
SCF program output             ... >s2.lastscf
Integral program output        ... >s2.lastint
Gradient program output        ... >s2.lastgrad


     Note:   There are more processes than displacements to do
     ===>:   Reducing number of processes to   3

             <<<Displacing   2/coordinate 2 (+)>>>
             <<<Displacing   2/coordinate 3 (+)>>>
             <<<Displacing   2/coordinate 1 (+)>>>
             <<<Displacing   2/coordinate 1 (-)>>>
             <<<Displacing   2/coordinate 2 (-)>>>
             <<<Displacing   2/coordinate 3 (-)>>>

------------------------------
CARTESIAN GRADIENT (NUMERICAL)
-------------------------------
   1   S   :   -0.000000064   -0.000000413    0.023335429
   2   S   :    0.000000064    0.000000413   -0.023335429

Norm of the cartesian gradient     ...    0.033001280
RMS gradient                       ...    0.013472716
MAX gradient                       ...    0.023335429

-------
TIMINGS
-------

Total numerical gradient time      ...       34.639 sec


                            ***************************************
                            *     ORCA property calculations      *
                            ***************************************

                                    ---------------------
                                    Active property flags
                                    ---------------------
   (+) Dipole Moment


------------------------------------------------------------------------------
                       ORCA ELECTRIC PROPERTIES CALCULATION
------------------------------------------------------------------------------

Dipole Moment Calculation                       ... on
Quadrupole Moment Calculation                   ... off
Polarizability Calculation                      ... off
GBWName                                         ... s2.gbw
Electron density file                           ... s2.scfp
The origin for moment calculation is the CENTER OF MASS  = ( 0.000000,  0.000000  0.000000)

-------------
DIPOLE MOMENT
-------------
                                X             Y             Z
Electronic contribution:      0.00000      -0.00000       0.00000
Nuclear contribution   :      0.00000       0.00000       0.00000
                        -----------------------------------------
Total Dipole Moment    :      0.00000      -0.00000       0.00000
                        -----------------------------------------
Magnitude (a.u.)       :      0.00000
Magnitude (Debye)      :      0.00000



--------------------
Rotational spectrum 
--------------------
 
Rotational constants in cm-1:     0.000000     0.284236     0.284236 
Rotational constants in MHz :     0.000000  8521.179234  8521.179234 

 Dipole components along the rotational axes: 
x,y,z [a.u.] :     0.000000    -0.000000     0.000000 
x,y,z [Debye]:     0.000000    -0.000000     0.000000 

 

Timings for individual modules:

Sum of individual times         ...      110.599 sec (=   1.843 min)
GTO integral calculation        ...        3.574 sec (=   0.060 min)   3.2 %
SCF iterations                  ...       72.386 sec (=   1.206 min)  65.4 %
SCF Gradient evaluation         ...       34.639 sec (=   0.577 min)  31.3 %
                             ****ORCA TERMINATED NORMALLY****
TOTAL RUN TIME: 0 days 0 hours 3 minutes 29 seconds 921 msec
