
                                 *****************
                                 * O   R   C   A *
                                 *****************

           --- An Ab Initio, DFT and Semiempirical electronic structure package ---

                  #######################################################
                  #                        -***-                        #
                  #          Department of theory and spectroscopy      #
                  #               Directorship: Frank Neese             #
                  #        Max Planck Institute fuer Kohlenforschung    #
                  #                Kaiser Wilhelm Platz 1               #
                  #                 D-45470 Muelheim/Ruhr               #
                  #                      Germany                        #
                  #                                                     #
                  #                  All rights reserved                #
                  #                        -***-                        #
                  #######################################################


                         Program Version 4.2.0 -  RELEASE  -


 With contributions from (in alphabetic order):
   Daniel Aravena         : Magnetic Suceptibility
   Michael Atanasov       : Ab Initio Ligand Field Theory (pilot matlab implementation)
   Alexander A. Auer      : GIAO ZORA, VPT2
   Ute Becker             : Parallelization
   Giovanni Bistoni       : ED, misc. LED, open-shell LED, HFLED
   Martin Brehm           : Molecular dynamics
   Dmytro Bykov           : SCF Hessian
   Vijay G. Chilkuri      : MRCI spin determinant printing, contributions to CSF-ICE
   Dipayan Datta          : RHF DLPNO-CCSD density
   Achintya Kumar Dutta   : EOM-CC, STEOM-CC
   Dmitry Ganyushin       : Spin-Orbit,Spin-Spin,Magnetic field MRCI
   Miquel Garcia          : C-PCM Hessian, Gaussian charge scheme
   Yang Guo               : DLPNO-NEVPT2, CIM, IAO-localization
   Andreas Hansen         : Spin unrestricted coupled pair/coupled cluster methods
   Benjamin Helmich-Paris : CASSCF linear response (MC-RPA)
   Lee Huntington         : MR-EOM, pCC
   Robert Izsak           : Overlap fitted RIJCOSX, COSX-SCS-MP3, EOM
   Christian Kollmar      : KDIIS, OOCD, Brueckner-CCSD(T), CCSD density
   Simone Kossmann        : Meta GGA functionals, TD-DFT gradient, OOMP2, MP2 Hessian
   Martin Krupicka        : AUTO-CI
   Lucas Lang             : DCDCAS
   Dagmar Lenk            : GEPOL surface, SMD
   Dimitrios Liakos       : Extrapolation schemes; Compound Job, initial MDCI parallelization
   Dimitrios Manganas     : Further ROCIS development; embedding schemes
   Dimitrios Pantazis     : SARC Basis sets
   Taras Petrenko         : DFT Hessian,TD-DFT gradient, ASA, ECA, R-Raman, ABS, FL, XAS/XES, NRVS
   Peter Pinski           : DLPNO-MP2, DLPNO-MP2 Gradient
   Christoph Reimann      : Effective Core Potentials
   Marius Retegan         : Local ZFS, SOC
   Christoph Riplinger    : Optimizer, TS searches, QM/MM, DLPNO-CCSD(T), (RO)-DLPNO pert. Triples
   Tobias Risthaus        : Range-separated hybrids, TD-DFT gradient, RPA, STAB
   Michael Roemelt        : Original ROCIS implementation
   Masaaki Saitow         : Open-shell DLPNO-CCSD energy and density
   Barbara Sandhoefer     : DKH picture change effects
   Avijit Sen             : IP-ROCIS
   Kantharuban Sivalingam : CASSCF convergence, NEVPT2, FIC-MRCI
   Bernardo de Souza      : ESD, SOC TD-DFT
   Georgi Stoychev        : AutoAux, RI-MP2 NMR
   Willem Van den Heuvel  : Paramagnetic NMR
   Boris Wezisla          : Elementary symmetry handling
   Frank Wennmohs         : Technical directorship


 We gratefully acknowledge several colleagues who have allowed us to
 interface, adapt or use parts of their codes:
   Stefan Grimme, W. Hujo, H. Kruse,             : VdW corrections, initial TS optimization,
                  C. Bannwarth                     DFT functionals, gCP, sTDA/sTD-DF
   Ed Valeev, F. Pavosevic, A. Kumar             : LibInt (2-el integral package), F12 methods
   Garnet Chan, S. Sharma, J. Yang, R. Olivares  : DMRG
   Ulf Ekstrom                                   : XCFun DFT Library
   Mihaly Kallay                                 : mrcc  (arbitrary order and MRCC methods)
   Andreas Klamt, Michael Diedenhofen            : otool_cosmo (COSMO solvation model)
   Jiri Pittner, Ondrej Demel                    : Mk-CCSD
   Frank Weinhold                                : gennbo (NPA and NBO analysis)
   Christopher J. Cramer and Donald G. Truhlar   : smd solvation model
   Lars Goerigk                                  : TD-DFT with DH, B97 family of functionals
   V. Asgeirsson, H. Jonsson                     : NEB implementation
   FAccTs GmbH                                   : IRC, NEB, NEB-TS, Multilevel, MM, QM/MM, CI optimization
   S Lehtola, MJT Oliveira, MAL Marques          : LibXC Library


 Your calculation uses the libint2 library for the computation of 2-el integrals
 For citations please refer to: http://libint.valeyev.net

 Your ORCA version has been built with support for libXC version: 4.2.3
 For citations please refer to: https://tddft.org/programs/libxc/

 This ORCA versions uses:
   CBLAS   interface :  Fast vector & matrix operations
   LAPACKE interface :  Fast linear algebra routines
   SCALAPACK package :  Parallel linear algebra routines


Your calculation utilizes the DFT-NL dispersion correction.
Cite in your paper:
Vydrov, O. A.; Van Voorhis, T. J. Chem. Phys. 2010, 133, 244103
Hujo, W.; Grimme, S. J. Chem. Theory Comput. 2011, 7, 3866 
   

----- Orbital basis set information -----
Your calculation utilizes the basis: def2-TZVPPD
   F. Weigend and R. Ahlrichs, Phys. Chem. Chem. Phys. 7, 3297 (2005).
   D. Rappoport and F. Furche, J. Chem. Phys. 133 134105 (2010).

----- AuxJK basis set information -----
Your calculation utilizes the auxiliary basis: def2/JK
   H-Ba, Hf-Rn: F. Weigend, J. Comput. Chem. 29, 167 (2008).

================================================================================
                                        WARNINGS
                       Please study these warnings very carefully!
================================================================================

INFO   : Found keyword 'NumGrad' for Energy calculation
  ===> : Setting RunTyp to EnGrad

WARNING: Numerical Gradient with sloppy Convergence Criteria    
         Your results may be not reliable!                      
         Please choose at least TightSCF!                       

INFO   : the flag for use of LIBINT has been found!

================================================================================
                                       INPUT FILE
================================================================================
NAME = s4.in
|  1> #
|  2> # s4 wB97M-V/Def2-TZVPPD
|  3> #
|  4> ! wb97m-v def2-tzvppd def2/jk grid4 nofinalgrid numgrad
|  5> 
|  6> *xyz 0 1
|  7> S          0.00000        0.00000        0.00000
|  8> S          0.00000        0.00000        1.90634
|  9> S          2.06704        0.00000        2.44872
| 10> S          3.00303        0.00000        0.78798
| 11> *
| 12> 
| 13> %maxcore 5000
| 14> 
| 15> %pal
| 16> nprocs = 28
| 17> end
| 18> 
| 19> 
| 20>                          ****END OF INPUT****
================================================================================

                     *******************************
                     * Energy+Gradient Calculation *
                     *******************************

---------------------------------
CARTESIAN COORDINATES (ANGSTROEM)
---------------------------------
  S      0.000000    0.000000    0.000000
  S      0.000000    0.000000    1.906340
  S      2.067040    0.000000    2.448720
  S      3.003030    0.000000    0.787980

----------------------------
CARTESIAN COORDINATES (A.U.)
----------------------------
  NO LB      ZA    FRAG     MASS         X           Y           Z
   0 S    16.0000    0    32.060    0.000000    0.000000    0.000000
   1 S    16.0000    0    32.060    0.000000    0.000000    3.602461
   2 S    16.0000    0    32.060    3.906140    0.000000    4.627410
   3 S    16.0000    0    32.060    5.674904    0.000000    1.489066

--------------------------------
INTERNAL COORDINATES (ANGSTROEM)
--------------------------------
 S      0   0   0     0.000000000000     0.00000000     0.00000000
 S      1   0   0     1.906340000000     0.00000000     0.00000000
 S      2   1   0     2.137014371969   104.70265060     0.00000000
 S      3   2   1     1.906340637898   104.70287704     0.00000000

---------------------------
INTERNAL COORDINATES (A.U.)
---------------------------
 S      0   0   0     0.000000000000     0.00000000     0.00000000
 S      1   0   0     3.602460518139     0.00000000     0.00000000
 S      2   1   0     4.038371907274   104.70265060     0.00000000
 S      3   2   1     3.602461723591   104.70287704     0.00000000

---------------------
BASIS SET INFORMATION
---------------------
There are 1 groups of distinct atoms

 Group   1 Type S   : 15s10p4d1f contracted to 6s6p4d1f pattern {732111/511111/1111/1}

Atom   0S    basis set group =>   1
Atom   1S    basis set group =>   1
Atom   2S    basis set group =>   1
Atom   3S    basis set group =>   1
----------------------------------
AUXILIARY/JK BASIS SET INFORMATION
----------------------------------
There are 1 groups of distinct atoms

 Group   1 Type S   : 16s12p10d4f1g contracted to 13s11p9d4f1g pattern {4111111111111/21111111111/211111111/1111/1}

Atom   0S    basis set group =>   1
Atom   1S    basis set group =>   1
Atom   2S    basis set group =>   1
Atom   3S    basis set group =>   1


           ************************************************************
           *        Program running with 28 parallel MPI-processes    *
           *              working on a common directory               *
           ************************************************************
------------------------------------------------------------------------------
                           ORCA GTO INTEGRAL CALCULATION
------------------------------------------------------------------------------

                         BASIS SET STATISTICS AND STARTUP INFO

 # of primitive gaussian shells          ...  120
 # of primitive gaussian functions       ...  288
 # of contracted shells                  ...   68
 # of contracted basis functions         ...  204
 Highest angular momentum                ...    3
 Maximum contraction depth               ...    7
 Integral package used                   ... LIBINT
 Integral threshhold            Thresh   ...  1.000e-10
 Primitive cut-off              TCut     ...  1.000e-11


------------------------------ INTEGRAL EVALUATION ----------------------------


 * One electron integrals 
 Pre-screening matrix                    ... done
 Shell pair data                         ... done (   0.001 sec)



           ************************************************************
           *        Program running with 28 parallel MPI-processes    *
           *              working on a common directory               *
           ************************************************************
-------------------------------------------------------------------------------
                                 ORCA SCF
-------------------------------------------------------------------------------

------------
SCF SETTINGS
------------
Hamiltonian:
 Density Functional     Method          .... DFT(GTOs)
 Exchange Functional    Exchange        .... WB97M-V
 Correlation Functional Correlation     .... WB97M-V
 Gradients option       PostSCFGGA      .... off
 Hybrid DFT is turned on
   Fraction HF Exchange ScalHFX         ....  0.150000
   Scaling of DF-GGA-X  ScalDFX         ....  0.000000
   Scaling of DF-GGA-C  ScalDFC         ....  1.000000
   Scaling of DF-LDA-C  ScalLDAC        ....  1.000000
   Perturbative correction              ....  0.000000
   Density functional embedding theory  .... OFF
 Long-range corrected/Screened/Range-Separated Hybrid DFT is turned on
   Amount of maximum screened exact exchange              ....  0.850000
   Range separation parameter mu (erf(mu*r12)/r12)        ....  0.300000
   NL short-range parameter             ....  6.000000
   NL long-range parameter              ....  0.010000


General Settings:
 Integral files         IntName         .... s4
 Hartree-Fock type      HFTyp           .... RHF
 Total Charge           Charge          ....    0
 Multiplicity           Mult            ....    1
 Number of Electrons    NEL             ....   64
 Basis Dimension        Dim             ....  204
 Nuclear Repulsion      ENuc            ....    333.6998427930 Eh

Convergence Acceleration:
 DIIS                   CNVDIIS         .... on
   Start iteration      DIISMaxIt       ....    12
   Startup error        DIISStart       ....  0.200000
   # of expansion vecs  DIISMaxEq       ....     5
   Bias factor          DIISBfac        ....   1.050
   Max. coefficient     DIISMaxC        ....  10.000
 Newton-Raphson         CNVNR           .... off
 SOSCF                  CNVSOSCF        .... on
   Start iteration      SOSCFMaxIt      ....   150
   Startup grad/error   SOSCFStart      ....  0.003300
 Level Shifting         CNVShift        .... on
   Level shift para.    LevelShift      ....    0.2500
   Turn off err/grad.   ShiftErr        ....    0.0010
 Zerner damping         CNVZerner       .... off
 Static damping         CNVDamp         .... on
   Fraction old density DampFac         ....    0.7000
   Max. Damping (<1)    DampMax         ....    0.9800
   Min. Damping (>=0)   DampMin         ....    0.0000
   Turn off err/grad.   DampErr         ....    0.1000
 Fernandez-Rico         CNVRico         .... off

SCF Procedure:
 Maximum # iterations   MaxIter         ....   125
 SCF integral mode      SCFMode         .... Direct
   Integral package                     .... LIBINT
 Reset frequency        DirectResetFreq ....    20
 Integral Threshold     Thresh          ....  1.000e-10 Eh
 Primitive CutOff       TCut            ....  1.000e-11 Eh

Convergence Tolerance:
 Convergence Check Mode ConvCheckMode   .... Total+1el-Energy
 Convergence forced     ConvForced      .... 0
 Energy Change          TolE            ....  1.000e-06 Eh
 1-El. energy change                    ....  1.000e-03 Eh
 Orbital Gradient       TolG            ....  5.000e-05
 Orbital Rotation angle TolX            ....  5.000e-05
 DIIS Error             TolErr          ....  1.000e-06


Diagonalization of the overlap matrix:
Smallest eigenvalue                        ... 4.073e-04
Time for diagonalization                   ...    0.007 sec
Threshold for overlap eigenvalues          ... 1.000e-08
Number of eigenvalues below threshold      ... 0
Time for construction of square roots      ...    0.142 sec
Total time needed                          ...    0.149 sec

-------------------
DFT GRID GENERATION
-------------------

General Integration Accuracy     IntAcc      ...  4.670
Radial Grid Type                 RadialGrid  ... Gauss-Chebyshev
Angular Grid (max. acc.)         AngularGrid ... Lebedev-302
Angular grid pruning method      GridPruning ... 3 (G Style)
Weight generation scheme         WeightScheme... Becke
Basis function cutoff            BFCut       ...    1.0000e-10
Integration weight cutoff        WCut        ...    1.0000e-14
Grids for H and He will be reduced by one unit

# of grid points (after initial pruning)     ...  27384 (   0.0 sec)
# of grid points (after weights+screening)   ...  27106 (   0.0 sec)
nearest neighbour list constructed           ...    0.0 sec
Grid point re-assignment to atoms done       ...    0.0 sec
Grid point division into batches done        ...    0.2 sec
Reduced shell lists constructed in    0.2 sec

Total number of grid points                  ...    27106
Total number of batches                      ...      426
Average number of points per batch           ...       63
Average number of grid points per atom       ...     6776
Average number of shells per batch           ...    16.47 (24.22%)
Average number of basis functions per batch  ...    47.53 (23.30%)
Average number of large shells per batch     ...    11.47 (69.64%)
Average number of large basis fcns per batch ...    32.53 (68.44%)
Maximum spatial batch extension              ...  15.16, 19.50, 13.80 au
Average spatial batch extension              ...   0.41,  0.43,  0.39 au

Time for grid setup =    2.047 sec

------------------------------
INITIAL GUESS: MODEL POTENTIAL
------------------------------
Loading Hartree-Fock densities                     ... done
Calculating cut-offs                               ... done
Setting up the integral package                    ... done
Initializing the effective Hamiltonian             ... done
Starting the Coulomb interaction                   ... done (   0.0 sec)
Reading the grid                                   ... done
Mapping shells                                     ... done
Starting the XC term evaluation                    ... done (   0.0 sec)
  promolecular density results
     # of electrons  =     64.000011744
     EX              =    -99.576447815
     EC              =     -2.490865571
     EX+EC           =   -102.067313387
Transforming the Hamiltonian                       ... done (   0.0 sec)
Diagonalizing the Hamiltonian                      ... done (   0.0 sec)
Back transforming the eigenvectors                 ... done (   0.0 sec)
Now organizing SCF variables                       ... done
                      ------------------
                      INITIAL GUESS DONE (   2.6 sec)
                      ------------------
--------------
SCF ITERATIONS
--------------
ITER       Energy         Delta-E        Max-DP      RMS-DP      [F,P]     Damp
               ***  Starting incremental Fock matrix formation  ***
  0  -1592.9363316954   0.000000000000 0.03648847  0.00064880  0.0948648 0.7000
  1  -1592.9563777808  -0.020046085380 0.02058575  0.00046722  0.0498505 0.7000
                               ***Turning on DIIS***
  2  -1592.9650543142  -0.008676533397 0.03937511  0.00092324  0.0259673 0.0000
  3  -1592.9790142669  -0.013959952727 0.02330312  0.00042175  0.0256078 0.0000
  4  -1592.9827621377  -0.003747870821 0.01052869  0.00014814  0.0033315 0.0000
                      *** Initiating the SOSCF procedure ***
                           *** Shutting down DIIS ***
                      *** Re-Reading the Fockian *** 
                      *** Removing any level shift *** 
ITER      Energy       Delta-E        Grad      Rot      Max-DP    RMS-DP
  5  -1592.98294575  -0.0001836099  0.001935  0.001935  0.001562  0.000050
               *** Restarting incremental Fock matrix formation ***
  6  -1592.98299292  -0.0000471759  0.001138  0.003137  0.001101  0.000043
  7  -1592.98301747  -0.0000245487  0.000933  0.006060  0.001879  0.000066
  8  -1592.98302276  -0.0000052859  0.000679  0.001516  0.000774  0.000020
  9  -1592.98302811  -0.0000053544  0.000068  0.000113  0.000132  0.000004
 10  -1592.98302827  -0.0000001550  0.000034  0.000145  0.000053  0.000002
                 **** Energy Check signals convergence ****
              ***Rediagonalizing the Fockian in SOSCF/NRSCF***

               *****************************************************
               *                     SUCCESS                       *
               *           SCF CONVERGED AFTER  11 CYCLES          *
               *****************************************************


Setting up the DFT-NL grid :

General Integration Accuracy     IntAcc      ...  4.340
Radial Grid Type                 RadialGrid  ... Gauss-Chebyshev
Angular Grid (max. acc.)         AngularGrid ... Lebedev-110
Angular grid pruning method      GridPruning ... 3 (G Style)
Weight generation scheme         WeightScheme... Becke
Basis function cutoff            BFCut       ...    1.0000e-10
Integration weight cutoff        WCut        ...    1.0000e-14
Grids for H and He will be reduced by one unit

# of grid points (after initial pruning)     ...   7224 (   0.0 sec)
# of grid points (after weights+screening)   ...   7165 (   0.0 sec)
nearest neighbour list constructed           ...    0.0 sec
Grid point re-assignment to atoms done       ...    0.0 sec
Grid point division into batches done        ...    0.0 sec
Reduced shell lists constructed in    0.0 sec

Total number of grid points                  ...     7165
Total number of batches                      ...      113
Average number of points per batch           ...       63
Average number of grid points per atom       ...     1791
Average number of shells per batch           ...    24.33 (35.78%)
Average number of basis functions per batch  ...    75.00 (36.76%)
Average number of large shells per batch     ...    18.50 (76.03%)
Average number of large basis fcns per batch ...    54.50 (72.67%)
Maximum spatial batch extension              ...  17.85, 22.78, 14.01 au
Average spatial batch extension              ...   0.66,  0.72,  0.59 au

Final grid set up in    2.1 sec

-------------------------------------------------------------------------------
                         DFT-NL dispersion correction                          
-------------------------------------------------------------------------------

SC Energy -1592.983028312 
NL    Energy 0.260705468 
SC+NL Energy -1592.722322844 
NL done in    1.3 sec
-------------------------------------------------------------------------------

----------------
TOTAL SCF ENERGY
----------------

Total Energy       :        -1592.72232284 Eh          -43340.17778 eV

Components:
Nuclear Repulsion  :          333.69984279 Eh            9080.43436 eV
Electronic Energy  :        -1926.42216564 Eh          -52420.61214 eV
One Electron Energy:        -2864.08588354 Eh          -77935.73907 eV
Two Electron Energy:          937.66371791 Eh           25515.12693 eV

Virial components:
Potential Energy   :        -3182.52428649 Eh          -86600.88854 eV
Kinetic Energy     :         1589.80196364 Eh           43260.71076 eV
Virial Ratio       :            2.00183693


DFT components:
N(Alpha)           :       32.000007256282 electrons
N(Beta)            :       32.000007256282 electrons
N(Total)           :       64.000014512564 electrons
E(X)               :      -76.406268932418 Eh       
E(C)               :       -2.827833165330 Eh       
NL Energy, E(C,NL) :        0.260705468274 Eh       
E(XC)              :      -78.973396629474 Eh       
DFET-embed. en.    :        0.000000000000 Eh       

---------------
SCF CONVERGENCE
---------------

  Last Energy change         ...   -4.4814e-08  Tolerance :   1.0000e-06
  Last MAX-Density change    ...    3.6808e-05  Tolerance :   1.0000e-05
  Last RMS-Density change    ...    9.1676e-07  Tolerance :   1.0000e-06
  Last Orbital Gradient      ...    2.0458e-05  Tolerance :   5.0000e-05
  Last Orbital Rotation      ...    9.4274e-05  Tolerance :   5.0000e-05

             **** THE GBW FILE WAS UPDATED (s4.gbw) ****
             **** DENSITY FILE WAS UPDATED (s4.scfp) ****
             **** ENERGY FILE WAS UPDATED (s4.en.tmp) ****
             **** THE GBW FILE WAS UPDATED (s4.gbw) ****
             **** DENSITY FILE WAS UPDATED (s4.scfp) ****
----------------
ORBITAL ENERGIES
----------------

  NO   OCC          E(Eh)            E(eV) 
   0   2.0000     -89.290141     -2429.7083 
   1   2.0000     -89.290137     -2429.7081 
   2   2.0000     -89.218901     -2427.7697 
   3   2.0000     -89.218894     -2427.7695 
   4   2.0000      -8.212538      -223.4745 
   5   2.0000      -8.212487      -223.4731 
   6   2.0000      -8.145884      -221.6608 
   7   2.0000      -8.145883      -221.6607 
   8   2.0000      -6.121247      -166.5676 
   9   2.0000      -6.121131      -166.5644 
  10   2.0000      -6.118417      -166.4906 
  11   2.0000      -6.118412      -166.4905 
  12   2.0000      -6.117904      -166.4766 
  13   2.0000      -6.117889      -166.4762 
  14   2.0000      -6.055905      -164.7895 
  15   2.0000      -6.055898      -164.7894 
  16   2.0000      -6.052151      -164.6874 
  17   2.0000      -6.052148      -164.6873 
  18   2.0000      -6.048671      -164.5927 
  19   2.0000      -6.048664      -164.5925 
  20   2.0000      -1.007070       -27.4038 
  21   2.0000      -0.933486       -25.4014 
  22   2.0000      -0.793106       -21.5815 
  23   2.0000      -0.694593       -18.9008 
  24   2.0000      -0.555421       -15.1138 
  25   2.0000      -0.520212       -14.1557 
  26   2.0000      -0.508963       -13.8496 
  27   2.0000      -0.466735       -12.7005 
  28   2.0000      -0.428664       -11.6645 
  29   2.0000      -0.358972        -9.7681 
  30   2.0000      -0.357628        -9.7315 
  31   2.0000      -0.315487        -8.5848 
  32   0.0000      -0.096406        -2.6233 
  33   0.0000       0.004047         0.1101 
  34   0.0000       0.007257         0.1975 
  35   0.0000       0.034846         0.9482 
  36   0.0000       0.038003         1.0341 
  37   0.0000       0.048657         1.3240 
  38   0.0000       0.052143         1.4189 
  39   0.0000       0.055641         1.5141 
  40   0.0000       0.066214         1.8018 
  41   0.0000       0.070293         1.9128 
  42   0.0000       0.071150         1.9361 
  43   0.0000       0.082947         2.2571 
  44   0.0000       0.089213         2.4276 
  45   0.0000       0.092830         2.5260 
  46   0.0000       0.097215         2.6454 
  47   0.0000       0.106418         2.8958 
  48   0.0000       0.121561         3.3079 
  49   0.0000       0.150465         4.0944 
  50   0.0000       0.176329         4.7982 
  51   0.0000       0.181641         4.9427 
  52   0.0000       0.194424         5.2905 
  53   0.0000       0.197066         5.3624 
  54   0.0000       0.209311         5.6956 
  55   0.0000       0.219262         5.9664 
  56   0.0000       0.230129         6.2621 
  57   0.0000       0.230173         6.2633 
  58   0.0000       0.251886         6.8542 
  59   0.0000       0.254789         6.9332 
  60   0.0000       0.256822         6.9885 
  61   0.0000       0.261609         7.1187 
  62   0.0000       0.272272         7.4089 
  63   0.0000       0.283229         7.7071 
  64   0.0000       0.308662         8.3991 
  65   0.0000       0.310383         8.4460 
  66   0.0000       0.312450         8.5022 
  67   0.0000       0.321557         8.7500 
  68   0.0000       0.335523         9.1300 
  69   0.0000       0.359065         9.7706 
  70   0.0000       0.367703        10.0057 
  71   0.0000       0.398505        10.8439 
  72   0.0000       0.430117        11.7041 
  73   0.0000       0.444815        12.1040 
  74   0.0000       0.450765        12.2659 
  75   0.0000       0.451604        12.2888 
  76   0.0000       0.459842        12.5129 
  77   0.0000       0.473250        12.8778 
  78   0.0000       0.474295        12.9062 
  79   0.0000       0.495706        13.4889 
  80   0.0000       0.517113        14.0714 
  81   0.0000       0.525466        14.2987 
  82   0.0000       0.538120        14.6430 
  83   0.0000       0.558439        15.1959 
  84   0.0000       0.568916        15.4810 
  85   0.0000       0.582215        15.8429 
  86   0.0000       0.582666        15.8552 
  87   0.0000       0.583068        15.8661 
  88   0.0000       0.604932        16.4610 
  89   0.0000       0.605192        16.4681 
  90   0.0000       0.618101        16.8194 
  91   0.0000       0.646581        17.5944 
  92   0.0000       0.658618        17.9219 
  93   0.0000       0.685117        18.6430 
  94   0.0000       0.689828        18.7712 
  95   0.0000       0.698740        19.0137 
  96   0.0000       0.699591        19.0368 
  97   0.0000       0.711225        19.3534 
  98   0.0000       0.748478        20.3671 
  99   0.0000       0.759402        20.6644 
 100   0.0000       0.785968        21.3873 
 101   0.0000       0.788343        21.4519 
 102   0.0000       0.836428        22.7604 
 103   0.0000       0.846205        23.0264 
 104   0.0000       0.935780        25.4639 
 105   0.0000       1.115656        30.3585 
 106   0.0000       1.154532        31.4164 
 107   0.0000       1.286513        35.0078 
 108   0.0000       1.418044        38.5869 
 109   0.0000       1.422614        38.7113 
 110   0.0000       1.474538        40.1242 
 111   0.0000       1.504196        40.9313 
 112   0.0000       1.505418        40.9645 
 113   0.0000       1.552713        42.2515 
 114   0.0000       1.553659        42.2772 
 115   0.0000       1.555757        42.3343 
 116   0.0000       1.589041        43.2400 
 117   0.0000       1.590797        43.2878 
 118   0.0000       1.594347        43.3844 
 119   0.0000       1.614947        43.9449 
 120   0.0000       1.619026        44.0559 
 121   0.0000       1.638445        44.5844 
 122   0.0000       1.648263        44.8515 
 123   0.0000       1.650519        44.9129 
 124   0.0000       1.653348        44.9899 
 125   0.0000       1.653721        45.0000 
 126   0.0000       1.686074        45.8804 
 127   0.0000       1.692750        46.0621 
 128   0.0000       1.694403        46.1071 
 129   0.0000       1.695015        46.1237 
 130   0.0000       1.705516        46.4095 
 131   0.0000       1.711181        46.5636 
 132   0.0000       1.729522        47.0627 
 133   0.0000       1.733684        47.1759 
 134   0.0000       1.742297        47.4103 
 135   0.0000       1.761067        47.9211 
 136   0.0000       1.768746        48.1300 
 137   0.0000       1.776205        48.3330 
 138   0.0000       1.819632        49.5147 
 139   0.0000       1.846984        50.2590 
 140   0.0000       1.863198        50.7002 
 141   0.0000       1.901748        51.7492 
 142   0.0000       1.928509        52.4774 
 143   0.0000       1.958078        53.2820 
 144   0.0000       1.961686        53.3802 
 145   0.0000       1.982643        53.9504 
 146   0.0000       1.990315        54.1592 
 147   0.0000       1.999778        54.4167 
 148   0.0000       2.002580        54.4930 
 149   0.0000       2.044264        55.6273 
 150   0.0000       2.048479        55.7420 
 151   0.0000       2.051661        55.8285 
 152   0.0000       2.069272        56.3078 
 153   0.0000       2.104322        57.2615 
 154   0.0000       2.104643        57.2702 
 155   0.0000       2.132618        58.0315 
 156   0.0000       2.152931        58.5842 
 157   0.0000       2.355459        64.0953 
 158   0.0000       2.450207        66.6735 
 159   0.0000       2.519959        68.5716 
 160   0.0000       2.547253        69.3143 
 161   0.0000       2.553856        69.4940 
 162   0.0000       2.600098        70.7523 
 163   0.0000       2.616654        71.2028 
 164   0.0000       2.755291        74.9753 
 165   0.0000       3.067021        83.4579 
 166   0.0000       3.220410        87.6318 
 167   0.0000       3.237308        88.0916 
 168   0.0000       6.782386       184.5581 
 169   0.0000       6.789211       184.7438 
 170   0.0000       6.806022       185.2013 
 171   0.0000       6.824830       185.7131 
 172   0.0000       6.826577       185.7606 
 173   0.0000       6.832193       185.9134 
 174   0.0000       6.837694       186.0631 
 175   0.0000       6.839902       186.1232 
 176   0.0000       6.843452       186.2198 
 177   0.0000       6.860598       186.6864 
 178   0.0000       6.874865       187.0746 
 179   0.0000       6.875486       187.0915 
 180   0.0000       6.886711       187.3969 
 181   0.0000       6.890371       187.4965 
 182   0.0000       6.900126       187.7620 
 183   0.0000       6.939231       188.8261 
 184   0.0000       6.939252       188.8267 
 185   0.0000       6.974426       189.7838 
 186   0.0000       7.103946       193.3082 
 187   0.0000       7.127101       193.9383 
 188   0.0000       8.963016       243.8961 
 189   0.0000       9.034489       245.8409 
 190   0.0000       9.093258       247.4401 
 191   0.0000       9.096086       247.5171 
 192   0.0000       9.156901       249.1719 
 193   0.0000       9.164453       249.3775 
 194   0.0000       9.206565       250.5234 
 195   0.0000       9.296752       252.9775 
 196   0.0000       9.327301       253.8088 
 197   0.0000       9.377265       255.1684 
 198   0.0000       9.511906       258.8321 
 199   0.0000       9.548527       259.8286 
 200   0.0000      18.565065       505.1811 
 201   0.0000      19.154819       521.2291 
 202   0.0000      19.343093       526.3523 
 203   0.0000      19.536852       531.6248 

                    ********************************
                    * MULLIKEN POPULATION ANALYSIS *
                    ********************************

-----------------------
MULLIKEN ATOMIC CHARGES
-----------------------
   0 S :   -0.138098
   1 S :    0.138051
   2 S :    0.138074
   3 S :   -0.138026
Sum of atomic charges:   -0.0000000

--------------------------------
MULLIKEN REDUCED ORBITAL CHARGES
--------------------------------
  0 S s       :     5.933145  s :     5.933145
      pz      :     2.932140  p :    10.105439
      px      :     3.736698
      py      :     3.436601
      dz2     :     0.034806  d :     0.088697
      dxz     :     0.018224
      dyz     :     0.029425
      dx2y2   :     0.002717
      dxy     :     0.003526
      f0      :     0.004167  f :     0.010817
      f+1     :     0.003100
      f-1     :     0.003271
      f+2     :     0.000111
      f-2     :     0.000015
      f+3     :     0.000122
      f-3     :     0.000031
  1 S s       :     5.860003  s :     5.860003
      pz      :     3.118233  p :     9.727333
      px      :     3.187070
      py      :     3.422030
      dz2     :     0.039707  d :     0.257521
      dxz     :     0.088362
      dyz     :     0.076406
      dx2y2   :     0.029962
      dxy     :     0.023084
      f0      :     0.003329  f :     0.017093
      f+1     :     0.005581
      f-1     :     0.003725
      f+2     :     0.001039
      f-2     :     0.000403
      f+3     :     0.001518
      f-3     :     0.001496
  2 S s       :     5.859963  s :     5.859963
      pz      :     3.266502  p :     9.727371
      px      :     3.038845
      py      :     3.422024
      dz2     :     0.065915  d :     0.257500
      dxz     :     0.036288
      dyz     :     0.040830
      dx2y2   :     0.055806
      dxy     :     0.058660
      f0      :     0.004168  f :     0.017092
      f+1     :     0.002897
      f-1     :     0.002069
      f+2     :     0.002911
      f-2     :     0.002008
      f+3     :     0.001493
      f-3     :     0.001548
  3 S s       :     5.933247  s :     5.933247
      pz      :     3.151738  p :    10.105279
      px      :     3.516957
      py      :     3.436584
      dz2     :     0.022008  d :     0.088683
      dxz     :     0.028972
      dyz     :     0.026217
      dx2y2   :     0.004755
      dxy     :     0.006731
      f0      :     0.002455  f :     0.010816
      f+1     :     0.003178
      f-1     :     0.001532
      f+2     :     0.001649
      f-2     :     0.001624
      f+3     :     0.000218
      f-3     :     0.000161


                     *******************************
                     * LOEWDIN POPULATION ANALYSIS *
                     *******************************

----------------------
LOEWDIN ATOMIC CHARGES
----------------------
   0 S :    0.042570
   1 S :   -0.042573
   2 S :   -0.042570
   3 S :    0.042573

-------------------------------
LOEWDIN REDUCED ORBITAL CHARGES
-------------------------------
  0 S s       :     5.463825  s :     5.463825
      pz      :     3.131414  p :     9.993697
      px      :     3.557104
      py      :     3.305179
      dz2     :     0.199724  d :     0.467861
      dxz     :     0.098311
      dyz     :     0.108322
      dx2y2   :     0.048727
      dxy     :     0.012777
      f0      :     0.015104  f :     0.032047
      f+1     :     0.008011
      f-1     :     0.008375
      f+2     :     0.000180
      f-2     :     0.000012
      f+3     :     0.000311
      f-3     :     0.000055
  1 S s       :     5.340168  s :     5.340168
      pz      :     3.227240  p :     9.703892
      px      :     3.209758
      py      :     3.266894
      dz2     :     0.238865  d :     0.943535
      dxz     :     0.296693
      dyz     :     0.203195
      dx2y2   :     0.123782
      dxy     :     0.081000
      f0      :     0.014128  f :     0.054978
      f+1     :     0.017788
      f-1     :     0.010274
      f+2     :     0.003565
      f-2     :     0.000672
      f+3     :     0.005298
      f-3     :     0.003252
  2 S s       :     5.340167  s :     5.340167
      pz      :     3.327481  p :     9.703892
      px      :     3.109519
      py      :     3.266893
      dz2     :     0.243338  d :     0.943533
      dxz     :     0.217079
      dyz     :     0.113852
      dx2y2   :     0.198924
      dxy     :     0.170340
      f0      :     0.013719  f :     0.054977
      f+1     :     0.012495
      f-1     :     0.005608
      f+2     :     0.009667
      f-2     :     0.005979
      f+3     :     0.004897
      f-3     :     0.002611
  3 S s       :     5.463825  s :     5.463825
      pz      :     3.245989  p :     9.993698
      px      :     3.442535
      py      :     3.305174
      dz2     :     0.138527  d :     0.467856
      dxz     :     0.150068
      dyz     :     0.093460
      dx2y2   :     0.058165
      dxy     :     0.027636
      f0      :     0.007411  f :     0.032047
      f+1     :     0.010999
      f-1     :     0.003863
      f+2     :     0.004652
      f-2     :     0.004188
      f+3     :     0.000544
      f-3     :     0.000391


                      *****************************
                      * MAYER POPULATION ANALYSIS *
                      *****************************

  NA   - Mulliken gross atomic population
  ZA   - Total nuclear charge
  QA   - Mulliken gross atomic charge
  VA   - Mayer's total valence
  BVA  - Mayer's bonded valence
  FA   - Mayer's free valence

  ATOM       NA         ZA         QA         VA         BVA        FA
  0 S     16.1381    16.0000    -0.1381     2.1510     2.1510    -0.0000
  1 S     15.8619    16.0000     0.1381     2.9423     2.9423     0.0000
  2 S     15.8619    16.0000     0.1381     2.9422     2.9422    -0.0000
  3 S     16.1380    16.0000    -0.1380     2.1509     2.1509    -0.0000

  Mayer bond orders larger than 0.100000
B(  0-S ,  1-S ) :   1.5682 B(  0-S ,  2-S ) :   0.2774 B(  0-S ,  3-S ) :   0.3053 
B(  1-S ,  2-S ) :   1.0967 B(  1-S ,  3-S ) :   0.2774 B(  2-S ,  3-S ) :   1.5681 


-------
TIMINGS
-------

Total SCF time: 0 days 0 hours 1 min 26 sec 

Total time                  ....      86.510 sec
Sum of individual times     ....      84.259 sec  ( 97.4%)

Fock matrix formation       ....      78.695 sec  ( 91.0%)
  XC integration            ....      70.484 sec  ( 89.6% of F)
    Basis function eval.    ....       0.060 sec  (  0.1% of XC)
    Density eval.           ....       0.101 sec  (  0.1% of XC)
    XC-Functional eval.     ....       0.029 sec  (  0.0% of XC)
    XC-Potential eval.      ....       0.209 sec  (  0.3% of XC)
Diagonalization             ....       0.517 sec  (  0.6%)
Density matrix formation    ....       0.012 sec  (  0.0%)
Population analysis         ....       0.194 sec  (  0.2%)
Initial guess               ....       0.580 sec  (  0.7%)
Orbital Transformation      ....       0.000 sec  (  0.0%)
Orbital Orthonormalization  ....       0.000 sec  (  0.0%)
DIIS solution               ....       0.050 sec  (  0.1%)
SOSCF solution              ....       0.088 sec  (  0.1%)
Grid generation             ....       4.124 sec  (  4.8%)

-------------------------   --------------------
FINAL SINGLE POINT ENERGY     -1592.722322844020
-------------------------   --------------------


----------------------------------------------------------------------------
                           ORCA NUMERICAL GRADIENT
                              (28-process run)
----------------------------------------------------------------------------

I state                        ... 1
J state                        ... 0
Number of atoms                ... 4
Derivative's order of accuracy ... 2
Central differences            ... used
Number of displacements        ... 24
Numerical increment            ... 5.000e-03 bohr
Translation invariance         ... used

The output will be reduced. Please look at the following files:
SCF program output             ... >s4.lastscf
Integral program output        ... >s4.lastint
Gradient program output        ... >s4.lastgrad


     Note:   There are more processes than displacements to do
     ===>:   Reducing number of processes to   9

             <<<Displacing   2/coordinate 2 (+)>>>
             <<<Displacing   3/coordinate 1 (+)>>>
             <<<Displacing   4/coordinate 2 (+)>>>
             <<<Displacing   3/coordinate 3 (+)>>>
             <<<Displacing   4/coordinate 3 (+)>>>
             <<<Displacing   2/coordinate 3 (+)>>>
             <<<Displacing   3/coordinate 2 (+)>>>
             <<<Displacing   4/coordinate 1 (+)>>>
             <<<Displacing   2/coordinate 1 (+)>>>
             <<<Displacing   4/coordinate 2 (-)>>>
             <<<Displacing   4/coordinate 1 (-)>>>
             <<<Displacing   3/coordinate 1 (-)>>>
             <<<Displacing   2/coordinate 3 (-)>>>
             <<<Displacing   2/coordinate 2 (-)>>>
             <<<Displacing   3/coordinate 2 (-)>>>
             <<<Displacing   2/coordinate 1 (-)>>>
             <<<Displacing   3/coordinate 3 (-)>>>
             <<<Displacing   4/coordinate 3 (-)>>>

------------------------------
CARTESIAN GRADIENT (NUMERICAL)
-------------------------------
   1   S   :   -0.001099684   -0.000005636   -0.008617420
   2   S   :   -0.019105766    0.000003247    0.003366871
   3   S   :    0.014997782    0.000002030    0.012301583
   4   S   :    0.005207667    0.000000359   -0.007051034

Norm of the cartesian gradient     ...    0.030082133
RMS gradient                       ...    0.008683964
MAX gradient                       ...    0.019105766

-------
TIMINGS
-------

Total numerical gradient time      ...      191.021 sec


                            ***************************************
                            *     ORCA property calculations      *
                            ***************************************

                                    ---------------------
                                    Active property flags
                                    ---------------------
   (+) Dipole Moment


------------------------------------------------------------------------------
                       ORCA ELECTRIC PROPERTIES CALCULATION
------------------------------------------------------------------------------

Dipole Moment Calculation                       ... on
Quadrupole Moment Calculation                   ... off
Polarizability Calculation                      ... off
GBWName                                         ... s4.gbw
Electron density file                           ... s4.scfp
The origin for moment calculation is the CENTER OF MASS  = ( 2.395261,  0.000000  2.429734)

-------------
DIPOLE MOMENT
-------------
                                X             Y             Z
Electronic contribution:     -0.14435       0.00000       0.55019
Nuclear contribution   :     -0.00000       0.00000      -0.00000
                        -----------------------------------------
Total Dipole Moment    :     -0.14435       0.00000       0.55019
                        -----------------------------------------
Magnitude (a.u.)       :      0.56881
Magnitude (Debye)      :      1.44579



--------------------
Rotational spectrum 
--------------------
 
Rotational constants in cm-1:     0.154650     0.074028     0.050063 
Rotational constants in MHz :  4636.292141  2219.291488  1500.861814 

 Dipole components along the rotational axes: 
x,y,z [a.u.] :    -0.000013     0.568807     0.000000 
x,y,z [Debye]:    -0.000033     1.445793     0.000000 

 

Timings for individual modules:

Sum of individual times         ...      281.993 sec (=   4.700 min)
GTO integral calculation        ...        3.572 sec (=   0.060 min)   1.3 %
SCF iterations                  ...       87.399 sec (=   1.457 min)  31.0 %
SCF Gradient evaluation         ...      191.021 sec (=   3.184 min)  67.7 %
                             ****ORCA TERMINATED NORMALLY****
TOTAL RUN TIME: 0 days 0 hours 4 minutes 42 seconds 979 msec
