
                                 *****************
                                 * O   R   C   A *
                                 *****************

           --- An Ab Initio, DFT and Semiempirical electronic structure package ---

                  #######################################################
                  #                        -***-                        #
                  #          Department of theory and spectroscopy      #
                  #               Directorship: Frank Neese             #
                  #        Max Planck Institute fuer Kohlenforschung    #
                  #                Kaiser Wilhelm Platz 1               #
                  #                 D-45470 Muelheim/Ruhr               #
                  #                      Germany                        #
                  #                                                     #
                  #                  All rights reserved                #
                  #                        -***-                        #
                  #######################################################


                         Program Version 4.2.0 -  RELEASE  -


 With contributions from (in alphabetic order):
   Daniel Aravena         : Magnetic Suceptibility
   Michael Atanasov       : Ab Initio Ligand Field Theory (pilot matlab implementation)
   Alexander A. Auer      : GIAO ZORA, VPT2
   Ute Becker             : Parallelization
   Giovanni Bistoni       : ED, misc. LED, open-shell LED, HFLED
   Martin Brehm           : Molecular dynamics
   Dmytro Bykov           : SCF Hessian
   Vijay G. Chilkuri      : MRCI spin determinant printing, contributions to CSF-ICE
   Dipayan Datta          : RHF DLPNO-CCSD density
   Achintya Kumar Dutta   : EOM-CC, STEOM-CC
   Dmitry Ganyushin       : Spin-Orbit,Spin-Spin,Magnetic field MRCI
   Miquel Garcia          : C-PCM Hessian, Gaussian charge scheme
   Yang Guo               : DLPNO-NEVPT2, CIM, IAO-localization
   Andreas Hansen         : Spin unrestricted coupled pair/coupled cluster methods
   Benjamin Helmich-Paris : CASSCF linear response (MC-RPA)
   Lee Huntington         : MR-EOM, pCC
   Robert Izsak           : Overlap fitted RIJCOSX, COSX-SCS-MP3, EOM
   Christian Kollmar      : KDIIS, OOCD, Brueckner-CCSD(T), CCSD density
   Simone Kossmann        : Meta GGA functionals, TD-DFT gradient, OOMP2, MP2 Hessian
   Martin Krupicka        : AUTO-CI
   Lucas Lang             : DCDCAS
   Dagmar Lenk            : GEPOL surface, SMD
   Dimitrios Liakos       : Extrapolation schemes; Compound Job, initial MDCI parallelization
   Dimitrios Manganas     : Further ROCIS development; embedding schemes
   Dimitrios Pantazis     : SARC Basis sets
   Taras Petrenko         : DFT Hessian,TD-DFT gradient, ASA, ECA, R-Raman, ABS, FL, XAS/XES, NRVS
   Peter Pinski           : DLPNO-MP2, DLPNO-MP2 Gradient
   Christoph Reimann      : Effective Core Potentials
   Marius Retegan         : Local ZFS, SOC
   Christoph Riplinger    : Optimizer, TS searches, QM/MM, DLPNO-CCSD(T), (RO)-DLPNO pert. Triples
   Tobias Risthaus        : Range-separated hybrids, TD-DFT gradient, RPA, STAB
   Michael Roemelt        : Original ROCIS implementation
   Masaaki Saitow         : Open-shell DLPNO-CCSD energy and density
   Barbara Sandhoefer     : DKH picture change effects
   Avijit Sen             : IP-ROCIS
   Kantharuban Sivalingam : CASSCF convergence, NEVPT2, FIC-MRCI
   Bernardo de Souza      : ESD, SOC TD-DFT
   Georgi Stoychev        : AutoAux, RI-MP2 NMR
   Willem Van den Heuvel  : Paramagnetic NMR
   Boris Wezisla          : Elementary symmetry handling
   Frank Wennmohs         : Technical directorship


 We gratefully acknowledge several colleagues who have allowed us to
 interface, adapt or use parts of their codes:
   Stefan Grimme, W. Hujo, H. Kruse,             : VdW corrections, initial TS optimization,
                  C. Bannwarth                     DFT functionals, gCP, sTDA/sTD-DF
   Ed Valeev, F. Pavosevic, A. Kumar             : LibInt (2-el integral package), F12 methods
   Garnet Chan, S. Sharma, J. Yang, R. Olivares  : DMRG
   Ulf Ekstrom                                   : XCFun DFT Library
   Mihaly Kallay                                 : mrcc  (arbitrary order and MRCC methods)
   Andreas Klamt, Michael Diedenhofen            : otool_cosmo (COSMO solvation model)
   Jiri Pittner, Ondrej Demel                    : Mk-CCSD
   Frank Weinhold                                : gennbo (NPA and NBO analysis)
   Christopher J. Cramer and Donald G. Truhlar   : smd solvation model
   Lars Goerigk                                  : TD-DFT with DH, B97 family of functionals
   V. Asgeirsson, H. Jonsson                     : NEB implementation
   FAccTs GmbH                                   : IRC, NEB, NEB-TS, Multilevel, MM, QM/MM, CI optimization
   S Lehtola, MJT Oliveira, MAL Marques          : LibXC Library


 Your calculation uses the libint2 library for the computation of 2-el integrals
 For citations please refer to: http://libint.valeyev.net

 Your ORCA version has been built with support for libXC version: 4.2.3
 For citations please refer to: https://tddft.org/programs/libxc/

 This ORCA versions uses:
   CBLAS   interface :  Fast vector & matrix operations
   LAPACKE interface :  Fast linear algebra routines
   SCALAPACK package :  Parallel linear algebra routines


Your calculation utilizes the DFT-NL dispersion correction.
Cite in your paper:
Vydrov, O. A.; Van Voorhis, T. J. Chem. Phys. 2010, 133, 244103
Hujo, W.; Grimme, S. J. Chem. Theory Comput. 2011, 7, 3866 
   

----- Orbital basis set information -----
Your calculation utilizes the basis: def2-TZVPPD
   F. Weigend and R. Ahlrichs, Phys. Chem. Chem. Phys. 7, 3297 (2005).
   D. Rappoport and F. Furche, J. Chem. Phys. 133 134105 (2010).

----- AuxJK basis set information -----
Your calculation utilizes the auxiliary basis: def2/JK
   H-Ba, Hf-Rn: F. Weigend, J. Comput. Chem. 29, 167 (2008).

================================================================================
                                        WARNINGS
                       Please study these warnings very carefully!
================================================================================

INFO   : Found keyword 'NumGrad' for Energy calculation
  ===> : Setting RunTyp to EnGrad

WARNING: Numerical Gradient with sloppy Convergence Criteria    
         Your results may be not reliable!                      
         Please choose at least TightSCF!                       

WARNING: your system is open-shell and RHF/RKS was chosen
  ===> : WILL SWITCH to UHF/UKS


INFO   : the flag for use of LIBINT has been found!

================================================================================
                                       INPUT FILE
================================================================================
NAME = V.in
|  1> #
|  2> # V wB97M-V/Def2-TZVPPD
|  3> #
|  4> ! wb97m-v def2-tzvppd def2/jk grid4 nofinalgrid numgrad
|  5> 
|  6> *xyz 0 6
|  7> V          0.00000        0.00000        0.00000
|  8> *
|  9> 
| 10> %maxcore 5000
| 11> 
| 12> %pal
| 13> nprocs = 28
| 14> end
| 15> 
| 16> 
| 17>                          ****END OF INPUT****
================================================================================

                     *******************************
                     * Energy+Gradient Calculation *
                     *******************************

---------------------------------
CARTESIAN COORDINATES (ANGSTROEM)
---------------------------------
  V      0.000000    0.000000    0.000000

----------------------------
CARTESIAN COORDINATES (A.U.)
----------------------------
  NO LB      ZA    FRAG     MASS         X           Y           Z
   0 V    23.0000    0    50.940    0.000000    0.000000    0.000000

--------------------------------
INTERNAL COORDINATES (ANGSTROEM)
--------------------------------
 V      0   0   0     0.000000000000     0.00000000     0.00000000

---------------------------
INTERNAL COORDINATES (A.U.)
---------------------------
 V      0   0   0     0.000000000000     0.00000000     0.00000000

---------------------
BASIS SET INFORMATION
---------------------
There are 1 groups of distinct atoms

 Group   1 Type V   : 17s13p7d2f1g contracted to 6s6p4d2f1g pattern {842111/631111/4111/11/1}

Atom   0V    basis set group =>   1
----------------------------------
AUXILIARY/JK BASIS SET INFORMATION
----------------------------------
There are 1 groups of distinct atoms

 Group   1 Type V   : 19s14p12d10f7g3h1i contracted to 16s13p11d9f5g3h1i pattern {4111111111111111/2111111111111/21111111111/211111111/31111/111/1}

Atom   0V    basis set group =>   1


           ************************************************************
           *        Program running with 28 parallel MPI-processes    *
           *              working on a common directory               *
           ************************************************************
------------------------------------------------------------------------------
                           ORCA GTO INTEGRAL CALCULATION
------------------------------------------------------------------------------

                         BASIS SET STATISTICS AND STARTUP INFO

 # of primitive gaussian shells          ...   40
 # of primitive gaussian functions       ...  114
 # of contracted shells                  ...   19
 # of contracted basis functions         ...   67
 Highest angular momentum                ...    4
 Maximum contraction depth               ...    8
 Integral package used                   ... LIBINT
 Integral threshhold            Thresh   ...  1.000e-10
 Primitive cut-off              TCut     ...  1.000e-11


------------------------------ INTEGRAL EVALUATION ----------------------------


 * One electron integrals 
 Pre-screening matrix                    ... done
 Shell pair data                         ... done (   0.000 sec)



           ************************************************************
           *        Program running with 28 parallel MPI-processes    *
           *              working on a common directory               *
           ************************************************************
-------------------------------------------------------------------------------
                                 ORCA SCF
-------------------------------------------------------------------------------

------------
SCF SETTINGS
------------
Hamiltonian:
 Density Functional     Method          .... DFT(GTOs)
 Exchange Functional    Exchange        .... WB97M-V
 Correlation Functional Correlation     .... WB97M-V
 Gradients option       PostSCFGGA      .... off
 Hybrid DFT is turned on
   Fraction HF Exchange ScalHFX         ....  0.150000
   Scaling of DF-GGA-X  ScalDFX         ....  0.000000
   Scaling of DF-GGA-C  ScalDFC         ....  1.000000
   Scaling of DF-LDA-C  ScalLDAC        ....  1.000000
   Perturbative correction              ....  0.000000
   Density functional embedding theory  .... OFF
 Long-range corrected/Screened/Range-Separated Hybrid DFT is turned on
   Amount of maximum screened exact exchange              ....  0.850000
   Range separation parameter mu (erf(mu*r12)/r12)        ....  0.300000
   NL short-range parameter             ....  6.000000
   NL long-range parameter              ....  0.010000


General Settings:
 Integral files         IntName         .... V.in
 Hartree-Fock type      HFTyp           .... UHF
 Total Charge           Charge          ....    0
 Multiplicity           Mult            ....    6
 Number of Electrons    NEL             ....   23
 Basis Dimension        Dim             ....   67
 Nuclear Repulsion      ENuc            ....      0.0000000000 Eh

Convergence Acceleration:
 DIIS                   CNVDIIS         .... on
   Start iteration      DIISMaxIt       ....    12
   Startup error        DIISStart       ....  0.200000
   # of expansion vecs  DIISMaxEq       ....     5
   Bias factor          DIISBfac        ....   1.050
   Max. coefficient     DIISMaxC        ....  10.000
 Newton-Raphson         CNVNR           .... off
 SOSCF                  CNVSOSCF        .... off
 Level Shifting         CNVShift        .... on
   Level shift para.    LevelShift      ....    0.2500
   Turn off err/grad.   ShiftErr        ....    0.0010
 Zerner damping         CNVZerner       .... off
 Static damping         CNVDamp         .... on
   Fraction old density DampFac         ....    0.7000
   Max. Damping (<1)    DampMax         ....    0.9800
   Min. Damping (>=0)   DampMin         ....    0.0000
   Turn off err/grad.   DampErr         ....    0.1000
 Fernandez-Rico         CNVRico         .... off

SCF Procedure:
 Maximum # iterations   MaxIter         ....   125
 SCF integral mode      SCFMode         .... Direct
   Integral package                     .... LIBINT
 Reset frequency        DirectResetFreq ....    20
 Integral Threshold     Thresh          ....  1.000e-10 Eh
 Primitive CutOff       TCut            ....  1.000e-11 Eh

Convergence Tolerance:
 Convergence Check Mode ConvCheckMode   .... Total+1el-Energy
 Convergence forced     ConvForced      .... 0
 Energy Change          TolE            ....  1.000e-06 Eh
 1-El. energy change                    ....  1.000e-03 Eh
 DIIS Error             TolErr          ....  1.000e-06


Diagonalization of the overlap matrix:
Smallest eigenvalue                        ... 3.674e-02
Time for diagonalization                   ...    0.001 sec
Threshold for overlap eigenvalues          ... 1.000e-08
Number of eigenvalues below threshold      ... 0
Time for construction of square roots      ...    0.082 sec
Total time needed                          ...    0.083 sec

-------------------
DFT GRID GENERATION
-------------------

General Integration Accuracy     IntAcc      ...  4.670
Radial Grid Type                 RadialGrid  ... Gauss-Chebyshev
Angular Grid (max. acc.)         AngularGrid ... Lebedev-302
Angular grid pruning method      GridPruning ... 3 (G Style)
Weight generation scheme         WeightScheme... Becke
Basis function cutoff            BFCut       ...    1.0000e-10
Integration weight cutoff        WCut        ...    1.0000e-14
Grids for H and He will be reduced by one unit

# of grid points (after initial pruning)     ...   9664 (   0.0 sec)
# of grid points (after weights+screening)   ...   9664 (   0.0 sec)
Grid point division into batches done        ...    0.1 sec
Reduced shell lists constructed in    0.1 sec

Total number of grid points                  ...     9664
Total number of batches                      ...      152
Average number of points per batch           ...       63
Average number of grid points per atom       ...     9664
Average number of shells per batch           ...     3.43 (18.05%)
Average number of basis functions per batch  ...    10.29 (15.35%)
Average number of large shells per batch     ...     3.43 (100.00%)
Average number of large basis fcns per batch ...    10.29 (100.00%)
Maximum spatial batch extension              ...  22.27, 22.27, 22.27 au
Average spatial batch extension              ...   0.77,  0.76,  0.74 au

Time for grid setup =    2.299 sec

------------------------------
INITIAL GUESS: MODEL POTENTIAL
------------------------------
Loading Hartree-Fock densities                     ... done
Calculating cut-offs                               ... done
Setting up the integral package                    ... done
Initializing the effective Hamiltonian             ... done
Starting the Coulomb interaction                   ... done (   0.0 sec)
Reading the grid                                   ... done
Mapping shells                                     ... done
Starting the XC term evaluation                    ... done (   0.0 sec)
  promolecular density results
     # of electrons  =     23.000003052
     EX              =    -43.918520832
     EC              =     -0.944824995
     EX+EC           =    -44.863345827
Transforming the Hamiltonian                       ... done (   0.1 sec)
Diagonalizing the Hamiltonian                      ... done (   0.0 sec)
Back transforming the eigenvectors                 ... done (   0.0 sec)
Now organizing SCF variables                       ... done
                      ------------------
                      INITIAL GUESS DONE (   2.6 sec)
                      ------------------
--------------
SCF ITERATIONS
--------------
ITER       Energy         Delta-E        Max-DP      RMS-DP      [F,P]     Damp
               ***  Starting incremental Fock matrix formation  ***
  0   -943.6403476356   0.000000000000 1.08298487  0.03419466  0.2610074 0.7000
  1   -942.3566448552   1.283702780401 0.32489462  0.01026361  0.1082701 0.7000
                               ***Turning on DIIS***
  2   -942.8476215648  -0.490976709651 0.75809086  0.02383907  0.0368998 0.0000
  3   -943.7339983325  -0.886376767630 1.84637826  0.05638560  0.7102337 0.7000
  4   -942.4151134049   1.318884927612 4.34433740  0.13442386  0.0485430 0.0000
  5   -937.7145398189   4.700573586003 1.85720299  0.05723277  0.5206233 0.7000
  6   -939.9817222124  -2.267182393515 1.30005354  0.04006309  0.3166173 0.7000
  7   -941.3452061721  -1.363483959671 0.91003861  0.02804383  0.1740265 0.7000
  8   -942.1859555071  -0.840749335066 2.12341735  0.06543506  0.0739666 0.0000
  9   -943.7363125671  -1.550357059996 1.16076487  0.02843482  0.1594121 0.7000
 10   -941.3275256676   2.408786899551 0.82018310  0.02005508  0.1204233 0.7000
 11   -939.2605439498   2.066981717733 0.57620424  0.01407951  0.3144619 0.7000
 12   -937.6431477124   1.617396237423 0.39610068  0.00971213  0.4501733 0.7000
 13   -936.4323527871   1.210794925330 0.31085190  0.00747421  0.5454941 0.7000
 14   -935.5357156596   0.896637127434 0.97923742  0.02392376  0.6117369 0.7000
 15   -938.4707874986  -2.935071839004 0.68562277  0.01675858  0.3823643 0.7000
 16   -940.3054813774  -1.834693878758 0.47986438  0.01172438  0.2138010 0.7000
 17   -941.4588479351  -1.153366557734 1.11945737  0.02734306  0.0998806 0.0000
 18   -943.7317890376  -2.272941102418 1.43101605  0.03812023  0.1619531 0.7000
 19   -941.3334090974   2.398379940174 1.00258073  0.02675908  0.1156816 0.7000
               *** Restarting incremental Fock matrix formation ***
                                   *** Resetting DIIS ***
 20   -939.2799209215   2.053488175865 0.73005895  0.01964645  0.3074853 0.7000
 21   -940.8161072759  -1.536186354355 1.70353987  0.04540347  0.0508245 0.0000
 22   -943.4072845429  -2.591177266979 0.64001164  0.02702279  0.3166478 0.7000
 23   -942.2023095655   1.204974977392 0.19195999  0.00809248  0.1205915 0.7000
 24   -942.6240829040  -0.421773338492 1.82434618  0.05626649  0.1658430 0.7000
 25   -941.6151847490   1.008898154989 2.25699314  0.06647489  0.0209250 0.0000
 26   -943.4822870509  -1.867102301932 0.00124456  0.00003755  0.2821355 0.7000
 27   -943.4807022562   0.001584794676 0.00110623  0.00003429  0.2826056 0.7000
 28   -943.4789864964   0.001715759792 0.00080672  0.00002581  0.2831165 0.7000
 29   -943.4773438586   0.001642637818 0.00057328  0.00001851  0.2836132 0.7000
 30   -943.4760791816   0.001264677006 0.05895737  0.00264593  0.2839918 0.7000
 31   -943.6390078258  -0.162928644153 0.02444195  0.00112873  0.1263359 0.7000
 32   -943.7045605187  -0.065552692967 2.38745376  0.07759594  0.0706139 0.0000
 33   -932.1410921332  11.563468385516 0.01784041  0.00097659  1.0280000 0.7000
 34   -932.3102346759  -0.169142542659 0.01539684  0.00087126  1.0063819 0.7000
 35   -932.4864827932  -0.176248117288 0.01235079  0.00071738  0.9826336 0.7000
 36   -932.6337100806  -0.147227287404 0.00737811  0.00045217  0.9623267 0.7000
 37   -932.7441438547  -0.110433774105 0.71877126  0.02369060  0.9466967 0.7000
 38   -937.2900273689  -4.545883514192 0.50318708  0.01599432  0.3225989 0.7000
 39   -939.5905757499  -2.300548381016 1.17410246  0.03720997  0.0968525 0.0000
               *** Restarting incremental Fock matrix formation ***
                                   *** Resetting DIIS ***
 40   -943.2326511057  -3.642075355834 0.59895010  0.01264550  0.3752175 0.7000
 41   -943.3640643601  -0.131413254349 2.29449021  0.05988226  0.1009177 0.7000
 42   -940.0242687257   3.339795634375 1.59332108  0.04144045  0.3083891 0.7000
 43   -937.8588979431   2.165370782573 1.11576809  0.02910359  0.3480671 0.7000
 44   -936.5469113931   1.311986550041 0.78154115  0.02042060  0.4124250 0.7000
 45   -935.7194694465   0.827441946542 0.55698731  0.01472830  0.4632567 0.7000
 46   -935.1609287903   0.558540656244 1.90266671  0.04950405  0.5027953 0.7000
 47   -938.5372090639  -3.376280273616 1.33186573  0.03461433  0.2147418 0.7000
 48   -940.3909402821  -1.853731218198 3.10769254  0.08073722  0.0436106 0.0000
 49   -943.3376908309  -2.946750548763 0.00240745  0.00006612  0.3312324 0.7000
 50   -943.3403084259  -0.002617595025 0.00054948  0.00002615  0.3304930 0.7000
 51   -943.3424744172  -0.002165991361 0.00077104  0.00002977  0.3300390 0.7000
 52   -943.3440897121  -0.001615294873 0.00078223  0.00003550  0.3298001 0.7000
 53   -943.3432770543   0.000812657863 0.80467207  0.02864142  0.3306813 0.7000
 54   -942.1128208447   1.230456209508 0.80467212  0.02842455  0.0674177 0.0000
 55   -943.8024118699  -1.689591025204 0.73147364  0.02940588  0.1025530 0.7000
 56   -941.2555223034   2.546889566553 0.51395136  0.02074577  0.1618351 0.7000
 57   -939.1498463669   2.105675936492 0.36107163  0.01457894  0.3372669 0.7000
 58   -937.5444684391   1.605377927775 0.26300127  0.01056550  0.4565974 0.7000
 59   -936.3451235574   1.199344881759 0.19940497  0.00792434  0.5414035 0.7000
               *** Restarting incremental Fock matrix formation ***
                                   *** Resetting DIIS ***
 60   -935.3911829482   0.953940609131 0.61877066  0.02541305  0.6194338 0.7000
 61   -938.5407190998  -3.149536151576 0.43358684  0.01746932  0.1593724 0.7000
 62   -940.2508739265  -1.710154826651 1.01151131  0.04068286  0.0963762 0.0000
 63   -943.2985975189  -3.047723592389 1.47929152  0.04132417  0.3477981 0.7000
 64   -941.3461439118   1.952453607029 1.04820070  0.02974006  0.1101662 0.7000
 65   -939.5830007872   1.763143124596 1.81417995  0.05356518  0.0522428 0.0000
 66   -942.2064218308  -2.623421043552 0.01047546  0.00028095  0.1581292 0.7000
 67   -942.2084879826  -0.002066151819 0.92198292  0.02086266  0.1575994 0.7000
 68   -942.5438671226  -0.335379139993 0.64539462  0.01460430  0.2109471 0.7000
 69   -942.7768019932  -0.232934870640 0.45177608  0.01022301  0.2483139 0.7000
 70   -942.9375399215  -0.160737928254 0.31624276  0.00714841  0.2747275 0.7000
 71   -943.0905653344  -0.153025412925 0.22136997  0.00501116  0.2759412 0.7000
 72   -943.2195637756  -0.128998441186 0.15495811  0.00360541  0.2689326 0.7000
 73   -943.3738134361  -0.154249660552 0.10847094  0.00290903  0.2320192 0.7000
 74   -943.5367414607  -0.162928024546 0.07592611  0.00204335  0.1472688 0.7000
 75   -943.6345607485  -0.097819287767 0.17715731  0.00480580  0.0965511 0.0000
 76   -943.8359647645  -0.201404016080 4.59335242  0.13520872  0.0339998 0.0000
 77   -932.2469571355  11.589007629011 0.01664892  0.00075388  1.0176336 0.7000
 78   -932.3052345684  -0.058277432852 0.02322642  0.00103929  1.0100817 0.7000
 79   -932.3796836581  -0.074449089755 0.13835443  0.00558361  1.0006324 0.7000
               *** Restarting incremental Fock matrix formation ***
                                   *** Resetting DIIS ***
 80   -932.8321716351  -0.452487976917 1.34924265  0.03991071  0.9703905 0.7000
 81   -937.3915914132  -4.559419778149 0.94494640  0.02755920  0.3176236 0.7000
 82   -939.6796145125  -2.288023099319 0.66146568  0.01926983  0.1371645 0.7000
 83   -940.9963831136  -1.316768601085 0.46303061  0.01348625  0.1401969 0.7000
 84   -941.8231342911  -0.826751177490 0.32412207  0.00944100  0.1761764 0.7000
 85   -942.3672088193  -0.544074528157 0.22688407  0.00660730  0.1989960 0.7000
 86   -942.7134614148  -0.346252595539 0.15881764  0.00462695  0.2277936 0.7000
 87   -942.9305615125  -0.217100097727 0.11117242  0.00323999  0.2555666 0.7000
 88   -943.0706129133  -0.140051400783 0.07782227  0.00226758  0.2768185 0.7000
 89   -943.1788565181  -0.108243604796 0.05447646  0.00160635  0.2847349 0.7000
 90   -943.2817283698  -0.102871851672 0.03813323  0.00132996  0.2774749 0.7000
 91   -943.4117657134  -0.130037343668 0.04621379  0.00206210  0.2465459 0.7000
 92   -943.5815403147  -0.169774601306 0.02364195  0.00118815  0.1353639 0.7000
 93   -943.6684080767  -0.086867762004 0.04592192  0.00253532  0.0837659 0.0000
 94   -943.8365300966  -0.168122019819 0.00800526  0.00032881  0.0286726 0.0000
 95   -943.8388066378  -0.002276541239 0.00930313  0.00032892  0.0127640 0.0000
 96   -943.8406658605  -0.001859222737 0.00639029  0.00025301  0.0087369 0.0000
 97   -943.8421058107  -0.001439950174 0.00242342  0.00006556  0.0098400 0.0000
 98   -943.8421282950  -0.000022484293 0.00338190  0.00012494  0.0099732 0.0000
 99   -943.8428406478  -0.000712352788 0.00543597  0.00019292  0.0104819 0.0000
               *** Restarting incremental Fock matrix formation ***
                                   *** Resetting DIIS ***
100   -943.8440377186  -0.001197070779 0.01308852  0.00040393  0.0112790 0.0000
101   -943.8466220583  -0.002584339724 0.00629325  0.00012833  0.0124387 0.0000
102   -943.8470145793  -0.000392521032 0.00478217  0.00010639  0.0122719 0.0000
103   -943.8476160901  -0.000601510767 0.00309652  0.00006085  0.0123721 0.0000
104   -943.8478909874  -0.000274897325 0.00200727  0.00003796  0.0123918 0.0000
105   -943.8480637751  -0.000172787673 0.01124272  0.00027155  0.0124375 0.0000
106   -943.8500892490  -0.002025473934 0.00241849  0.00008530  0.0131877 0.0000
107   -943.8505204247  -0.000431175686 0.01699342  0.00042734  0.0138679 0.0000
108   -943.8538175381  -0.003297113354 0.00862596  0.00019185  0.0147476 0.0000
109   -943.8552719273  -0.001454389225 0.01677294  0.00036267  0.0149988 0.0000
110   -943.8523547473   0.002917179970 0.00383492  0.00008402  0.0138903 0.0000
111   -943.8517205310   0.000634216357 0.00426661  0.00009773  0.0136662 0.0000
112   -943.8524674535  -0.000746922486 0.02976623  0.00065561  0.0138855 0.0000
113   -943.8578180573  -0.005350603829 0.02044910  0.00046883  0.0155985 0.0000
114   -943.8616855203  -0.003867463041 0.00675113  0.00011586  0.0161070 0.0000
115   -943.8617180438  -0.000032523449 0.02982608  0.00061434  0.0158196 0.0000
116   -943.8565044392   0.005213604579 0.00600757  0.00011502  0.0144449 0.0000
117   -943.8572712481  -0.000766808874 0.02409887  0.00048572  0.0148621 0.0000
118   -943.8612802314  -0.004008983313 0.02900269  0.00059605  0.0156946 0.0000
119   -943.8663040304  -0.005023799009 0.02591971  0.00053780  0.0163189 0.0000
               *** Restarting incremental Fock matrix formation ***
                                   *** Resetting DIIS ***
120   -943.8707883189  -0.004484288557 0.02788267  0.00056669  0.0163376 0.0000
121   -943.8754670923  -0.004678773371 0.03423035  0.00067102  0.0161802 0.0000
122   -943.8808088295  -0.005341737179 0.07635365  0.00133089  0.0156254 0.0000
123   -943.8902371359  -0.009428306391 0.01767602  0.00042523  0.0144395 0.0000
124   -943.8926030402  -0.002365904307 0.12232640  0.00203325  0.0120944 0.0000

               *****************************************************
               *                      ERROR                        *
               *        SCF NOT CONVERGED AFTER 125 CYCLES         *
               *****************************************************


---------------
SCF CONVERGENCE
---------------

  Last Energy change         ...   -2.3659e-03  Tolerance :   1.0000e-06
  Last MAX-Density change    ...    1.2233e-01  Tolerance :   1.0000e-05
  Last RMS-Density change    ...    2.0332e-03  Tolerance :   1.0000e-06
  Last DIIS Error            ...    1.2094e-02  Tolerance :   1.0000e-06

     --------------------------------------------------------------------
                                      ERROR
     This wavefunction IS NOT CONVERGED! 
     And it is 'too far' from meeting the convergence thresholds.
     Aborting ...
     Please restart calculation (with larger maxiter?)
     --------------------------------------------------------------------


-------------------------------------------------------
Primary job  terminated normally, but 1 process returned
a non-zero exit code. Per user-direction, the job has been aborted.
-------------------------------------------------------
--------------------------------------------------------------------------
mpirun detected that one or more processes exited with non-zero status, thus causing
the job to be terminated. The first process to do so was:

  Process name: [[29005,1],21]
  Exit code:    125
--------------------------------------------------------------------------

ORCA finished by error termination in SCF
Calling Command: mpirun -np 28  /mnt/storage/software/apps/orca-4.2.0/orca_4_2_0_linux_x86-64_openmpi314/orca_scf_mpi V.in.gbw b V.in 
Check for SCF-logfiles
[file orca_main/run.cpp, line 10680]: ORCA finished with error return - aborting the run
[file orca_main/run.cpp, line 10680]: ORCA finished with error return - aborting the run
