
                                 *****************
                                 * O   R   C   A *
                                 *****************

           --- An Ab Initio, DFT and Semiempirical electronic structure package ---

                  #######################################################
                  #                        -***-                        #
                  #          Department of theory and spectroscopy      #
                  #               Directorship: Frank Neese             #
                  #        Max Planck Institute fuer Kohlenforschung    #
                  #                Kaiser Wilhelm Platz 1               #
                  #                 D-45470 Muelheim/Ruhr               #
                  #                      Germany                        #
                  #                                                     #
                  #                  All rights reserved                #
                  #                        -***-                        #
                  #######################################################


                         Program Version 4.2.0 -  RELEASE  -


 With contributions from (in alphabetic order):
   Daniel Aravena         : Magnetic Suceptibility
   Michael Atanasov       : Ab Initio Ligand Field Theory (pilot matlab implementation)
   Alexander A. Auer      : GIAO ZORA, VPT2
   Ute Becker             : Parallelization
   Giovanni Bistoni       : ED, misc. LED, open-shell LED, HFLED
   Martin Brehm           : Molecular dynamics
   Dmytro Bykov           : SCF Hessian
   Vijay G. Chilkuri      : MRCI spin determinant printing, contributions to CSF-ICE
   Dipayan Datta          : RHF DLPNO-CCSD density
   Achintya Kumar Dutta   : EOM-CC, STEOM-CC
   Dmitry Ganyushin       : Spin-Orbit,Spin-Spin,Magnetic field MRCI
   Miquel Garcia          : C-PCM Hessian, Gaussian charge scheme
   Yang Guo               : DLPNO-NEVPT2, CIM, IAO-localization
   Andreas Hansen         : Spin unrestricted coupled pair/coupled cluster methods
   Benjamin Helmich-Paris : CASSCF linear response (MC-RPA)
   Lee Huntington         : MR-EOM, pCC
   Robert Izsak           : Overlap fitted RIJCOSX, COSX-SCS-MP3, EOM
   Christian Kollmar      : KDIIS, OOCD, Brueckner-CCSD(T), CCSD density
   Simone Kossmann        : Meta GGA functionals, TD-DFT gradient, OOMP2, MP2 Hessian
   Martin Krupicka        : AUTO-CI
   Lucas Lang             : DCDCAS
   Dagmar Lenk            : GEPOL surface, SMD
   Dimitrios Liakos       : Extrapolation schemes; Compound Job, initial MDCI parallelization
   Dimitrios Manganas     : Further ROCIS development; embedding schemes
   Dimitrios Pantazis     : SARC Basis sets
   Taras Petrenko         : DFT Hessian,TD-DFT gradient, ASA, ECA, R-Raman, ABS, FL, XAS/XES, NRVS
   Peter Pinski           : DLPNO-MP2, DLPNO-MP2 Gradient
   Christoph Reimann      : Effective Core Potentials
   Marius Retegan         : Local ZFS, SOC
   Christoph Riplinger    : Optimizer, TS searches, QM/MM, DLPNO-CCSD(T), (RO)-DLPNO pert. Triples
   Tobias Risthaus        : Range-separated hybrids, TD-DFT gradient, RPA, STAB
   Michael Roemelt        : Original ROCIS implementation
   Masaaki Saitow         : Open-shell DLPNO-CCSD energy and density
   Barbara Sandhoefer     : DKH picture change effects
   Avijit Sen             : IP-ROCIS
   Kantharuban Sivalingam : CASSCF convergence, NEVPT2, FIC-MRCI
   Bernardo de Souza      : ESD, SOC TD-DFT
   Georgi Stoychev        : AutoAux, RI-MP2 NMR
   Willem Van den Heuvel  : Paramagnetic NMR
   Boris Wezisla          : Elementary symmetry handling
   Frank Wennmohs         : Technical directorship


 We gratefully acknowledge several colleagues who have allowed us to
 interface, adapt or use parts of their codes:
   Stefan Grimme, W. Hujo, H. Kruse,             : VdW corrections, initial TS optimization,
                  C. Bannwarth                     DFT functionals, gCP, sTDA/sTD-DF
   Ed Valeev, F. Pavosevic, A. Kumar             : LibInt (2-el integral package), F12 methods
   Garnet Chan, S. Sharma, J. Yang, R. Olivares  : DMRG
   Ulf Ekstrom                                   : XCFun DFT Library
   Mihaly Kallay                                 : mrcc  (arbitrary order and MRCC methods)
   Andreas Klamt, Michael Diedenhofen            : otool_cosmo (COSMO solvation model)
   Jiri Pittner, Ondrej Demel                    : Mk-CCSD
   Frank Weinhold                                : gennbo (NPA and NBO analysis)
   Christopher J. Cramer and Donald G. Truhlar   : smd solvation model
   Lars Goerigk                                  : TD-DFT with DH, B97 family of functionals
   V. Asgeirsson, H. Jonsson                     : NEB implementation
   FAccTs GmbH                                   : IRC, NEB, NEB-TS, Multilevel, MM, QM/MM, CI optimization
   S Lehtola, MJT Oliveira, MAL Marques          : LibXC Library


 Your calculation uses the libint2 library for the computation of 2-el integrals
 For citations please refer to: http://libint.valeyev.net

 Your ORCA version has been built with support for libXC version: 4.2.3
 For citations please refer to: https://tddft.org/programs/libxc/

 This ORCA versions uses:
   CBLAS   interface :  Fast vector & matrix operations
   LAPACKE interface :  Fast linear algebra routines
   SCALAPACK package :  Parallel linear algebra routines


Your calculation utilizes the DFT-NL dispersion correction.
Cite in your paper:
Vydrov, O. A.; Van Voorhis, T. J. Chem. Phys. 2010, 133, 244103
Hujo, W.; Grimme, S. J. Chem. Theory Comput. 2011, 7, 3866 
   

----- Orbital basis set information -----
Your calculation utilizes the basis: def2-TZVPPD
   F. Weigend and R. Ahlrichs, Phys. Chem. Chem. Phys. 7, 3297 (2005).
   D. Rappoport and F. Furche, J. Chem. Phys. 133 134105 (2010).

----- AuxJK basis set information -----
Your calculation utilizes the auxiliary basis: def2/JK
   H-Ba, Hf-Rn: F. Weigend, J. Comput. Chem. 29, 167 (2008).

================================================================================
                                        WARNINGS
                       Please study these warnings very carefully!
================================================================================

INFO   : Found keyword 'NumGrad' for Energy calculation
  ===> : Setting RunTyp to EnGrad

WARNING: Numerical Gradient with sloppy Convergence Criteria    
         Your results may be not reliable!                      
         Please choose at least TightSCF!                       

WARNING: your system is open-shell and RHF/RKS was chosen
  ===> : WILL SWITCH to UHF/UKS


INFO   : the flag for use of LIBINT has been found!

================================================================================
                                       INPUT FILE
================================================================================
NAME = VS.in
|  1> #
|  2> # VS wB97M-V/Def2-TZVPPD
|  3> #
|  4> ! wb97m-v def2-tzvppd def2/jk grid4 nofinalgrid numgrad
|  5> 
|  6> *xyz 0 4
|  7> V          0.00000        0.00000        0.00000
|  8> S          0.00000        0.00000        2.04800
|  9> *
| 10> 
| 11> %maxcore 5000
| 12> 
| 13> %pal
| 14> nprocs = 28
| 15> end
| 16> 
| 17> 
| 18>                          ****END OF INPUT****
================================================================================

                     *******************************
                     * Energy+Gradient Calculation *
                     *******************************

---------------------------------
CARTESIAN COORDINATES (ANGSTROEM)
---------------------------------
  V      0.000000    0.000000    0.000000
  S      0.000000    0.000000    2.048000

----------------------------
CARTESIAN COORDINATES (A.U.)
----------------------------
  NO LB      ZA    FRAG     MASS         X           Y           Z
   0 V    23.0000    0    50.940    0.000000    0.000000    0.000000
   1 S    16.0000    0    32.060    0.000000    0.000000    3.870159

--------------------------------
INTERNAL COORDINATES (ANGSTROEM)
--------------------------------
 V      0   0   0     0.000000000000     0.00000000     0.00000000
 S      1   0   0     2.048000000000     0.00000000     0.00000000

---------------------------
INTERNAL COORDINATES (A.U.)
---------------------------
 V      0   0   0     0.000000000000     0.00000000     0.00000000
 S      1   0   0     3.870159122271     0.00000000     0.00000000

---------------------
BASIS SET INFORMATION
---------------------
There are 2 groups of distinct atoms

 Group   1 Type V   : 17s13p7d2f1g contracted to 6s6p4d2f1g pattern {842111/631111/4111/11/1}
 Group   2 Type S   : 15s10p4d1f contracted to 6s6p4d1f pattern {732111/511111/1111/1}

Atom   0V    basis set group =>   1
Atom   1S    basis set group =>   2
----------------------------------
AUXILIARY/JK BASIS SET INFORMATION
----------------------------------
There are 2 groups of distinct atoms

 Group   1 Type V   : 19s14p12d10f7g3h1i contracted to 16s13p11d9f5g3h1i pattern {4111111111111111/2111111111111/21111111111/211111111/31111/111/1}
 Group   2 Type S   : 16s12p10d4f1g contracted to 13s11p9d4f1g pattern {4111111111111/21111111111/211111111/1111/1}

Atom   0V    basis set group =>   1
Atom   1S    basis set group =>   2


           ************************************************************
           *        Program running with 28 parallel MPI-processes    *
           *              working on a common directory               *
           ************************************************************
------------------------------------------------------------------------------
                           ORCA GTO INTEGRAL CALCULATION
------------------------------------------------------------------------------

                         BASIS SET STATISTICS AND STARTUP INFO

 # of primitive gaussian shells          ...   70
 # of primitive gaussian functions       ...  186
 # of contracted shells                  ...   36
 # of contracted basis functions         ...  118
 Highest angular momentum                ...    4
 Maximum contraction depth               ...    8
 Integral package used                   ... LIBINT
 Integral threshhold            Thresh   ...  1.000e-10
 Primitive cut-off              TCut     ...  1.000e-11


------------------------------ INTEGRAL EVALUATION ----------------------------


 * One electron integrals 
 Pre-screening matrix                    ... done
 Shell pair data                         ... done (   0.000 sec)



           ************************************************************
           *        Program running with 28 parallel MPI-processes    *
           *              working on a common directory               *
           ************************************************************
-------------------------------------------------------------------------------
                                 ORCA SCF
-------------------------------------------------------------------------------

------------
SCF SETTINGS
------------
Hamiltonian:
 Density Functional     Method          .... DFT(GTOs)
 Exchange Functional    Exchange        .... WB97M-V
 Correlation Functional Correlation     .... WB97M-V
 Gradients option       PostSCFGGA      .... off
 Hybrid DFT is turned on
   Fraction HF Exchange ScalHFX         ....  0.150000
   Scaling of DF-GGA-X  ScalDFX         ....  0.000000
   Scaling of DF-GGA-C  ScalDFC         ....  1.000000
   Scaling of DF-LDA-C  ScalLDAC        ....  1.000000
   Perturbative correction              ....  0.000000
   Density functional embedding theory  .... OFF
 Long-range corrected/Screened/Range-Separated Hybrid DFT is turned on
   Amount of maximum screened exact exchange              ....  0.850000
   Range separation parameter mu (erf(mu*r12)/r12)        ....  0.300000
   NL short-range parameter             ....  6.000000
   NL long-range parameter              ....  0.010000


General Settings:
 Integral files         IntName         .... VS
 Hartree-Fock type      HFTyp           .... UHF
 Total Charge           Charge          ....    0
 Multiplicity           Mult            ....    4
 Number of Electrons    NEL             ....   39
 Basis Dimension        Dim             ....  118
 Nuclear Repulsion      ENuc            ....     95.0865296164 Eh

Convergence Acceleration:
 DIIS                   CNVDIIS         .... on
   Start iteration      DIISMaxIt       ....    12
   Startup error        DIISStart       ....  0.200000
   # of expansion vecs  DIISMaxEq       ....     5
   Bias factor          DIISBfac        ....   1.050
   Max. coefficient     DIISMaxC        ....  10.000
 Newton-Raphson         CNVNR           .... off
 SOSCF                  CNVSOSCF        .... off
 Level Shifting         CNVShift        .... on
   Level shift para.    LevelShift      ....    0.2500
   Turn off err/grad.   ShiftErr        ....    0.0010
 Zerner damping         CNVZerner       .... off
 Static damping         CNVDamp         .... on
   Fraction old density DampFac         ....    0.7000
   Max. Damping (<1)    DampMax         ....    0.9800
   Min. Damping (>=0)   DampMin         ....    0.0000
   Turn off err/grad.   DampErr         ....    0.1000
 Fernandez-Rico         CNVRico         .... off

SCF Procedure:
 Maximum # iterations   MaxIter         ....   125
 SCF integral mode      SCFMode         .... Direct
   Integral package                     .... LIBINT
 Reset frequency        DirectResetFreq ....    20
 Integral Threshold     Thresh          ....  1.000e-10 Eh
 Primitive CutOff       TCut            ....  1.000e-11 Eh

Convergence Tolerance:
 Convergence Check Mode ConvCheckMode   .... Total+1el-Energy
 Convergence forced     ConvForced      .... 0
 Energy Change          TolE            ....  1.000e-06 Eh
 1-El. energy change                    ....  1.000e-03 Eh
 DIIS Error             TolErr          ....  1.000e-06


Diagonalization of the overlap matrix:
Smallest eigenvalue                        ... 6.697e-04
Time for diagonalization                   ...    0.003 sec
Threshold for overlap eigenvalues          ... 1.000e-08
Number of eigenvalues below threshold      ... 0
Time for construction of square roots      ...    0.097 sec
Total time needed                          ...    0.100 sec

-------------------
DFT GRID GENERATION
-------------------

General Integration Accuracy     IntAcc      ...  4.670
Radial Grid Type                 RadialGrid  ... Gauss-Chebyshev
Angular Grid (max. acc.)         AngularGrid ... Lebedev-302
Angular grid pruning method      GridPruning ... 3 (G Style)
Weight generation scheme         WeightScheme... Becke
Basis function cutoff            BFCut       ...    1.0000e-10
Integration weight cutoff        WCut        ...    1.0000e-14
Grids for H and He will be reduced by one unit

# of grid points (after initial pruning)     ...  16510 (   0.0 sec)
# of grid points (after weights+screening)   ...  16481 (   0.0 sec)
nearest neighbour list constructed           ...    0.0 sec
Grid point re-assignment to atoms done       ...    0.0 sec
Grid point division into batches done        ...    0.1 sec
Reduced shell lists constructed in    0.1 sec

Total number of grid points                  ...    16481
Total number of batches                      ...      259
Average number of points per batch           ...       63
Average number of grid points per atom       ...     8240
Average number of shells per batch           ...     7.00 (19.44%)
Average number of basis functions per batch  ...    20.09 (17.03%)
Average number of large shells per batch     ...     5.27 (75.32%)
Average number of large basis fcns per batch ...    14.91 (74.21%)
Maximum spatial batch extension              ...  24.49, 24.19, 17.58 au
Average spatial batch extension              ...   0.77,  0.76,  0.57 au

Time for grid setup =    1.712 sec

------------------------------
INITIAL GUESS: MODEL POTENTIAL
------------------------------
Loading Hartree-Fock densities                     ... done
Calculating cut-offs                               ... done
Setting up the integral package                    ... done
Initializing the effective Hamiltonian             ... done
Starting the Coulomb interaction                   ... done (   0.0 sec)
Reading the grid                                   ... done
Mapping shells                                     ... done
Starting the XC term evaluation                    ... done (   0.0 sec)
  promolecular density results
     # of electrons  =     39.000006689
     EX              =    -68.837329300
     EC              =     -1.569089620
     EX+EC           =    -70.406418921
Transforming the Hamiltonian                       ... done (   0.0 sec)
Diagonalizing the Hamiltonian                      ... done (   0.0 sec)
Back transforming the eigenvectors                 ... done (   0.0 sec)
Now organizing SCF variables                       ... done
                      ------------------
                      INITIAL GUESS DONE (   2.0 sec)
                      ------------------
--------------
SCF ITERATIONS
--------------
ITER       Energy         Delta-E        Max-DP      RMS-DP      [F,P]     Damp
               ***  Starting incremental Fock matrix formation  ***
  0  -1342.1536942246   0.000000000000 0.03693997  0.00070653  0.1188751 0.7000
  1  -1342.1850280890  -0.031333864370 0.02292098  0.00053864  0.0724826 0.7000
                               ***Turning on DIIS***
  2  -1342.2020498026  -0.017021713642 0.04403817  0.00107484  0.0373231 0.0000
  3  -1342.2318422160  -0.029792413315 0.02534027  0.00042591  0.0270208 0.0000
  4  -1342.2370736357  -0.005231419769 0.01224940  0.00019329  0.0085191 0.0000
  5  -1342.2382491773  -0.001175541593 0.00740409  0.00011927  0.0091917 0.0000
  6  -1342.2389857517  -0.000736574382 0.01005265  0.00015819  0.0039209 0.0000
  7  -1342.2397376265  -0.000751874755 0.00608001  0.00011950  0.0030126 0.0000
  8  -1342.2401744957  -0.000436869246 0.00240636  0.00007595  0.0016650 0.0000
  9  -1342.2403834999  -0.000209004173 0.00180778  0.00005600  0.0012260 0.0000
 10  -1342.2404962788  -0.000112778970 0.00188438  0.00006260  0.0008210 0.0000
 11  -1342.2405840907  -0.000087811859 0.00034351  0.00000968  0.0010308 0.0000
 12  -1342.2405917202  -0.000007629494 0.00099016  0.00003106  0.0007236 0.0000
 13  -1342.2406147008  -0.000022980627 0.00127255  0.00003786  0.0005997 0.0000
 14  -1342.2406289403  -0.000014239484 0.00097339  0.00002830  0.0002941 0.0000
 15  -1342.2406295402  -0.000000599865 0.00054828  0.00001596  0.0001782 0.0000
 16  -1342.2406240554   0.000005484728 0.00014283  0.00000309  0.0000522 0.0000
                 **** Energy Check signals convergence ****

               *****************************************************
               *                     SUCCESS                       *
               *           SCF CONVERGED AFTER  17 CYCLES          *
               *****************************************************


Setting up the DFT-NL grid :

General Integration Accuracy     IntAcc      ...  4.340
Radial Grid Type                 RadialGrid  ... Gauss-Chebyshev
Angular Grid (max. acc.)         AngularGrid ... Lebedev-110
Angular grid pruning method      GridPruning ... 3 (G Style)
Weight generation scheme         WeightScheme... Becke
Basis function cutoff            BFCut       ...    1.0000e-10
Integration weight cutoff        WCut        ...    1.0000e-14
Grids for H and He will be reduced by one unit

# of grid points (after initial pruning)     ...   4778 (   0.0 sec)
# of grid points (after weights+screening)   ...   4753 (   0.0 sec)
nearest neighbour list constructed           ...    0.0 sec
Grid point re-assignment to atoms done       ...    0.0 sec
Grid point division into batches done        ...    0.0 sec
Reduced shell lists constructed in    0.0 sec

Total number of grid points                  ...     4753
Total number of batches                      ...       75
Average number of points per batch           ...       63
Average number of grid points per atom       ...     2376
Average number of shells per batch           ...    11.25 (31.25%)
Average number of basis functions per batch  ...    36.75 (31.14%)
Average number of large shells per batch     ...     9.00 (80.00%)
Average number of large basis fcns per batch ...    25.50 (69.39%)
Maximum spatial batch extension              ...  18.98, 28.73, 16.15 au
Average spatial batch extension              ...   0.72,  1.02,  0.65 au

Final grid set up in    1.6 sec

-------------------------------------------------------------------------------
                         DFT-NL dispersion correction                          
-------------------------------------------------------------------------------

SC Energy -1342.240624347 
NL    Energy 0.162326425 
SC+NL Energy -1342.078297923 
NL done in    1.5 sec
-------------------------------------------------------------------------------

----------------
TOTAL SCF ENERGY
----------------

Total Energy       :        -1342.07829792 Eh          -36519.80712 eV

Components:
Nuclear Repulsion  :           95.08652962 Eh            2587.43601 eV
Electronic Energy  :        -1437.16482754 Eh          -39107.24313 eV
One Electron Energy:        -2036.69916046 Eh          -55421.40173 eV
Two Electron Energy:          599.53433292 Eh           16314.15859 eV

Virial components:
Potential Energy   :        -2682.07652843 Eh          -72983.01272 eV
Kinetic Energy     :         1339.99823051 Eh           36463.20561 eV
Virial Ratio       :            2.00155229


DFT components:
N(Alpha)           :       20.999999715063 electrons
N(Beta)            :       17.999999619646 electrons
N(Total)           :       38.999999334709 electrons
E(X)               :      -53.591399731035 Eh       
E(C)               :       -1.809056800395 Eh       
NL Energy, E(C,NL) :        0.162326424715 Eh       
E(XC)              :      -55.238130106715 Eh       
DFET-embed. en.    :        0.000000000000 Eh       

---------------
SCF CONVERGENCE
---------------

  Last Energy change         ...   -2.9178e-07  Tolerance :   1.0000e-06
  Last MAX-Density change    ...    1.3720e-04  Tolerance :   1.0000e-05
  Last RMS-Density change    ...    1.6445e-06  Tolerance :   1.0000e-06
  Last DIIS Error            ...    3.0518e-05  Tolerance :   1.0000e-06

             **** THE GBW FILE WAS UPDATED (VS.gbw) ****
             **** DENSITY FILE WAS UPDATED (VS.scfp) ****
             **** ENERGY FILE WAS UPDATED (VS.en.tmp) ****
----------------------
UHF SPIN CONTAMINATION
----------------------

Warning: in a DFT calculation there is little theoretical justification to 
         calculate <S**2> as in Hartree-Fock theory. We will do it anyways
         but you should keep in mind that the values have only limited relevance

Expectation value of <S**2>     :     3.855625
Ideal value S*(S+1) for S=1.5   :     3.750000
Deviation                       :     0.105625

             **** THE GBW FILE WAS UPDATED (VS.gbw) ****
             **** DENSITY FILE WAS UPDATED (VS.scfp) ****
----------------
ORBITAL ENERGIES
----------------
                 SPIN UP ORBITALS
  NO   OCC          E(Eh)            E(eV) 
   0   1.0000    -197.309009     -5369.0511 
   1   1.0000     -89.125843     -2425.2375 
   2   1.0000     -22.455631      -611.0488 
   3   1.0000     -18.881995      -513.8052 
   4   1.0000     -18.875602      -513.6312 
   5   1.0000     -18.875602      -513.6312 
   6   1.0000      -8.056088      -219.2173 
   7   1.0000      -5.961849      -162.2302 
   8   1.0000      -5.961326      -162.2159 
   9   1.0000      -5.961326      -162.2159 
  10   1.0000      -2.789922       -75.9176 
  11   1.0000      -1.816117       -49.4191 
  12   1.0000      -1.805281       -49.1242 
  13   1.0000      -1.805281       -49.1242 
  14   1.0000      -0.728110       -19.8129 
  15   1.0000      -0.385581       -10.4922 
  16   1.0000      -0.330417        -8.9911 
  17   1.0000      -0.330417        -8.9911 
  18   1.0000      -0.329301        -8.9607 
  19   1.0000      -0.329301        -8.9607 
  20   1.0000      -0.291780        -7.9397 
  21   0.0000      -0.038786        -1.0554 
  22   0.0000      -0.012662        -0.3446 
  23   0.0000      -0.012662        -0.3446 
  24   0.0000       0.031289         0.8514 
  25   0.0000       0.031289         0.8514 
  26   0.0000       0.040326         1.0973 
  27   0.0000       0.066301         1.8041 
  28   0.0000       0.085212         2.3187 
  29   0.0000       0.085212         2.3187 
  30   0.0000       0.113542         3.0896 
  31   0.0000       0.118298         3.2191 
  32   0.0000       0.118298         3.2191 
  33   0.0000       0.164572         4.4782 
  34   0.0000       0.164572         4.4782 
  35   0.0000       0.179381         4.8812 
  36   0.0000       0.209552         5.7022 
  37   0.0000       0.209552         5.7022 
  38   0.0000       0.217548         5.9198 
  39   0.0000       0.257982         7.0200 
  40   0.0000       0.257982         7.0200 
  41   0.0000       0.301430         8.2023 
  42   0.0000       0.309343         8.4176 
  43   0.0000       0.309343         8.4176 
  44   0.0000       0.330963         9.0060 
  45   0.0000       0.445874        12.1328 
  46   0.0000       0.445874        12.1328 
  47   0.0000       0.517525        14.0826 
  48   0.0000       0.579851        15.7785 
  49   0.0000       0.579851        15.7785 
  50   0.0000       0.605376        16.4731 
  51   0.0000       0.609926        16.5969 
  52   0.0000       0.609930        16.5970 
  53   0.0000       0.635084        17.2815 
  54   0.0000       0.635084        17.2815 
  55   0.0000       0.707667        19.2566 
  56   0.0000       0.707667        19.2566 
  57   0.0000       0.728235        19.8163 
  58   0.0000       0.796086        21.6626 
  59   0.0000       0.796086        21.6626 
  60   0.0000       0.843161        22.9436 
  61   0.0000       1.123200        30.5638 
  62   0.0000       1.185501        32.2591 
  63   0.0000       1.185501        32.2591 
  64   0.0000       1.198138        32.6030 
  65   0.0000       1.198140        32.6030 
  66   0.0000       1.364440        37.1283 
  67   0.0000       1.364440        37.1283 
  68   0.0000       1.592195        43.3258 
  69   0.0000       1.733175        47.1621 
  70   0.0000       1.733192        47.1625 
  71   0.0000       1.755233        47.7623 
  72   0.0000       1.755233        47.7623 
  73   0.0000       1.794382        48.8276 
  74   0.0000       1.794382        48.8276 
  75   0.0000       1.802082        49.0372 
  76   0.0000       1.807145        49.1749 
  77   0.0000       1.807145        49.1749 
  78   0.0000       1.877331        51.0848 
  79   0.0000       1.895895        51.5899 
  80   0.0000       1.895919        51.5906 
  81   0.0000       1.920107        52.2488 
  82   0.0000       2.059263        56.0354 
  83   0.0000       2.059263        56.0354 
  84   0.0000       2.148966        58.4763 
  85   0.0000       2.255384        61.3721 
  86   0.0000       2.255384        61.3721 
  87   0.0000       2.414102        65.6910 
  88   0.0000       2.505636        68.1818 
  89   0.0000       2.505639        68.1819 
  90   0.0000       2.611981        71.0756 
  91   0.0000       2.611981        71.0756 
  92   0.0000       3.317700        90.2792 
  93   0.0000       4.201519       114.3291 
  94   0.0000       4.201571       114.3305 
  95   0.0000       4.206826       114.4735 
  96   0.0000       4.206826       114.4735 
  97   0.0000       4.230464       115.1168 
  98   0.0000       4.230471       115.1170 
  99   0.0000       4.344381       118.2166 
 100   0.0000       4.349238       118.3488 
 101   0.0000       4.349238       118.3488 
 102   0.0000       4.678444       127.3069 
 103   0.0000       4.678444       127.3069 
 104   0.0000       4.711764       128.2136 
 105   0.0000       4.711777       128.2140 
 106   0.0000       4.872029       132.5746 
 107   0.0000       4.872029       132.5746 
 108   0.0000       5.011678       136.3747 
 109   0.0000       6.927228       188.4995 
 110   0.0000       6.927343       188.5026 
 111   0.0000       6.972378       189.7280 
 112   0.0000       6.972378       189.7280 
 113   0.0000       7.086997       192.8470 
 114   0.0000       9.177114       249.7220 
 115   0.0000       9.177114       249.7220 
 116   0.0000       9.416466       256.2351 
 117   0.0000      18.899791       514.2895 

                 SPIN DOWN ORBITALS
  NO   OCC          E(Eh)            E(eV) 
   0   1.0000    -197.308047     -5369.0249 
   1   1.0000     -89.128529     -2425.3106 
   2   1.0000     -22.414463      -609.9286 
   3   1.0000     -18.858816      -513.1745 
   4   1.0000     -18.837476      -512.5938 
   5   1.0000     -18.837476      -512.5938 
   6   1.0000      -8.058399      -219.2802 
   7   1.0000      -5.965816      -162.3381 
   8   1.0000      -5.965816      -162.3381 
   9   1.0000      -5.964935      -162.3141 
  10   1.0000      -2.685498       -73.0761 
  11   1.0000      -1.727051       -46.9954 
  12   1.0000      -1.673310       -45.5331 
  13   1.0000      -1.673310       -45.5331 
  14   1.0000      -0.738475       -20.0949 
  15   1.0000      -0.350481        -9.5371 
  16   1.0000      -0.328996        -8.9524 
  17   1.0000      -0.328996        -8.9524 
  18   0.0000      -0.101579        -2.7641 
  19   0.0000      -0.051114        -1.3909 
  20   0.0000      -0.051114        -1.3909 
  21   0.0000      -0.011858        -0.3227 
  22   0.0000       0.038146         1.0380 
  23   0.0000       0.038149         1.0381 
  24   0.0000       0.046438         1.2637 
  25   0.0000       0.046438         1.2637 
  26   0.0000       0.046918         1.2767 
  27   0.0000       0.053178         1.4471 
  28   0.0000       0.079522         2.1639 
  29   0.0000       0.079522         2.1639 
  30   0.0000       0.104978         2.8566 
  31   0.0000       0.104978         2.8566 
  32   0.0000       0.107222         2.9177 
  33   0.0000       0.155146         4.2217 
  34   0.0000       0.155149         4.2218 
  35   0.0000       0.165139         4.4937 
  36   0.0000       0.175990         4.7889 
  37   0.0000       0.175990         4.7889 
  38   0.0000       0.213791         5.8175 
  39   0.0000       0.249090         6.7781 
  40   0.0000       0.249091         6.7781 
  41   0.0000       0.287789         7.8311 
  42   0.0000       0.304183         8.2772 
  43   0.0000       0.304183         8.2772 
  44   0.0000       0.311938         8.4883 
  45   0.0000       0.432162        11.7597 
  46   0.0000       0.432162        11.7597 
  47   0.0000       0.516172        14.0457 
  48   0.0000       0.566836        15.4244 
  49   0.0000       0.566836        15.4244 
  50   0.0000       0.607609        16.5339 
  51   0.0000       0.607616        16.5341 
  52   0.0000       0.616583        16.7781 
  53   0.0000       0.633981        17.2515 
  54   0.0000       0.633981        17.2515 
  55   0.0000       0.708939        19.2912 
  56   0.0000       0.708940        19.2912 
  57   0.0000       0.726009        19.7557 
  58   0.0000       0.796533        21.6748 
  59   0.0000       0.796533        21.6748 
  60   0.0000       0.839481        22.8435 
  61   0.0000       1.113823        30.3087 
  62   0.0000       1.216674        33.1074 
  63   0.0000       1.216682        33.1076 
  64   0.0000       1.224785        33.3281 
  65   0.0000       1.224785        33.3281 
  66   0.0000       1.376249        37.4497 
  67   0.0000       1.376249        37.4497 
  68   0.0000       1.596299        43.4375 
  69   0.0000       1.716540        46.7094 
  70   0.0000       1.716552        46.7098 
  71   0.0000       1.743877        47.4533 
  72   0.0000       1.743877        47.4533 
  73   0.0000       1.790755        48.7289 
  74   0.0000       1.790755        48.7289 
  75   0.0000       1.819262        49.5046 
  76   0.0000       1.853316        50.4313 
  77   0.0000       1.853316        50.4313 
  78   0.0000       1.886641        51.3381 
  79   0.0000       1.886669        51.3389 
  80   0.0000       1.888426        51.3867 
  81   0.0000       1.954578        53.1868 
  82   0.0000       2.041642        55.5559 
  83   0.0000       2.041642        55.5559 
  84   0.0000       2.145334        58.3775 
  85   0.0000       2.252131        61.2836 
  86   0.0000       2.252131        61.2836 
  87   0.0000       2.485106        67.6232 
  88   0.0000       2.595139        70.6173 
  89   0.0000       2.595151        70.6176 
  90   0.0000       2.653989        72.2187 
  91   0.0000       2.653989        72.2187 
  92   0.0000       3.345727        91.0419 
  93   0.0000       4.265224       116.0627 
  94   0.0000       4.265224       116.0627 
  95   0.0000       4.280887       116.4888 
  96   0.0000       4.280896       116.4891 
  97   0.0000       4.297021       116.9279 
  98   0.0000       4.297070       116.9292 
  99   0.0000       4.404279       119.8465 
 100   0.0000       4.408619       119.9646 
 101   0.0000       4.408619       119.9646 
 102   0.0000       4.795916       130.5035 
 103   0.0000       4.795923       130.5037 
 104   0.0000       4.803928       130.7215 
 105   0.0000       4.803928       130.7215 
 106   0.0000       4.954309       134.8136 
 107   0.0000       4.954309       134.8136 
 108   0.0000       5.098514       138.7376 
 109   0.0000       6.923050       188.3858 
 110   0.0000       6.923165       188.3889 
 111   0.0000       6.969479       189.6492 
 112   0.0000       6.969479       189.6492 
 113   0.0000       7.085321       192.8014 
 114   0.0000       9.169048       249.5025 
 115   0.0000       9.169048       249.5025 
 116   0.0000       9.411551       256.1013 
 117   0.0000      18.896527       514.2006 

                    ********************************
                    * MULLIKEN POPULATION ANALYSIS *
                    ********************************

--------------------------------------------
MULLIKEN ATOMIC CHARGES AND SPIN POPULATIONS
--------------------------------------------
   0 V :    0.381296    3.415229
   1 S :   -0.381296   -0.415229
Sum of atomic charges         :    0.0000000
Sum of atomic spin populations:    3.0000000

-----------------------------------------------------
MULLIKEN REDUCED ORBITAL CHARGES AND SPIN POPULATIONS
-----------------------------------------------------
CHARGE
  0 V s       :     6.689438  s :     6.689438
      pz      :     4.057037  p :    12.215316
      px      :     4.079139
      py      :     4.079139
      dz2     :     0.939161  d :     3.702791
      dxz     :     0.383037
      dyz     :     0.383037
      dx2y2   :     0.998778
      dxy     :     0.998778
      f0      :     0.002082  f :     0.010623
      f+1     :     0.004183
      f-1     :     0.004183
      f+2     :     0.000087
      f-2     :     0.000087
      f+3     :     0.000000
      f-3     :     0.000000
      g0      :     0.000216  g :     0.000535
      g+1     :     0.000159
      g-1     :     0.000159
      g+2     :     0.000000
      g-2     :     0.000000
      g+3     :     0.000000
      g-3     :     0.000000
      g+4     :     0.000000
      g-4     :     0.000000
  1 S s       :     5.860972  s :     5.860972
      pz      :     3.435796  p :    10.469933
      px      :     3.517068
      py      :     3.517068
      dz2     :     0.012641  d :     0.044732
      dxz     :     0.015136
      dyz     :     0.015136
      dx2y2   :     0.000910
      dxy     :     0.000910
      f0      :     0.002656  f :     0.005659
      f+1     :     0.001277
      f-1     :     0.001277
      f+2     :     0.000224
      f-2     :     0.000224
      f+3     :     0.000000
      f-3     :     0.000000

SPIN
  0 V s       :     0.425586  s :     0.425586
      pz      :    -0.000794  p :    -0.011729
      px      :    -0.005467
      py      :    -0.005467
      dz2     :     0.682345  d :     3.001820
      dxz     :     0.160959
      dyz     :     0.160959
      dx2y2   :     0.998778
      dxy     :     0.998778
      f0      :    -0.000072  f :    -0.000435
      f+1     :    -0.000269
      f-1     :    -0.000269
      f+2     :     0.000087
      f-2     :     0.000087
      f+3     :    -0.000000
      f-3     :    -0.000000
      g0      :     0.000023  g :    -0.000013
      g+1     :    -0.000018
      g-1     :    -0.000018
      g+2     :     0.000000
      g-2     :     0.000000
      g+3     :    -0.000000
      g-3     :    -0.000000
      g+4     :    -0.000000
      g-4     :     0.000000
  1 S s       :    -0.017666  s :    -0.017666
      pz      :    -0.094977  p :    -0.420095
      px      :    -0.162559
      py      :    -0.162559
      dz2     :     0.004234  d :     0.019816
      dxz     :     0.006881
      dyz     :     0.006881
      dx2y2   :     0.000910
      dxy     :     0.000910
      f0      :     0.001321  f :     0.002716
      f+1     :     0.000474
      f-1     :     0.000474
      f+2     :     0.000224
      f-2     :     0.000224
      f+3     :    -0.000000
      f-3     :    -0.000000


                     *******************************
                     * LOEWDIN POPULATION ANALYSIS *
                     *******************************

-------------------------------------------
LOEWDIN ATOMIC CHARGES AND SPIN POPULATIONS
-------------------------------------------
   0 V :    0.048177    3.203932
   1 S :   -0.048177   -0.203932

----------------------------------------------------
LOEWDIN REDUCED ORBITAL CHARGES AND SPIN POPULATIONS
----------------------------------------------------
CHARGE
  0 V s       :     6.439024  s :     6.439024
      pz      :     4.218826  p :    12.435933
      px      :     4.108554
      py      :     4.108554
      dz2     :     1.109397  d :     4.024195
      dxz     :     0.462985
      dyz     :     0.462985
      dx2y2   :     0.994414
      dxy     :     0.994414
      f0      :     0.022770  f :     0.050981
      f+1     :     0.013965
      f-1     :     0.013965
      f+2     :     0.000140
      f-2     :     0.000140
      f+3     :     0.000000
      f-3     :     0.000000
      g0      :     0.000884  g :     0.001689
      g+1     :     0.000402
      g-1     :     0.000402
      g+2     :     0.000001
      g-2     :     0.000001
      g+3     :     0.000000
      g-3     :     0.000000
      g+4     :     0.000000
      g-4     :     0.000000
  1 S s       :     5.546616  s :     5.546616
      pz      :     3.564894  p :    10.354477
      px      :     3.394792
      py      :     3.394792
      dz2     :     0.086675  d :     0.132078
      dxz     :     0.017846
      dyz     :     0.017846
      dx2y2   :     0.004856
      dxy     :     0.004856
      f0      :     0.010914  f :     0.015006
      f+1     :     0.001456
      f-1     :     0.001456
      f+2     :     0.000590
      f-2     :     0.000589
      f+3     :     0.000000
      f-3     :     0.000000

SPIN
  0 V s       :     0.252672  s :     0.252672
      pz      :    -0.000423  p :    -0.016252
      px      :    -0.007914
      py      :    -0.007914
      dz2     :     0.676716  d :     2.973045
      dxz     :     0.153751
      dyz     :     0.153751
      dx2y2   :     0.994414
      dxy     :     0.994414
      f0      :    -0.001933  f :    -0.005352
      f+1     :    -0.001850
      f-1     :    -0.001850
      f+2     :     0.000140
      f-2     :     0.000140
      f+3     :    -0.000000
      f-3     :    -0.000000
      g0      :    -0.000054  g :    -0.000181
      g+1     :    -0.000064
      g-1     :    -0.000064
      g+2     :     0.000001
      g-2     :     0.000001
      g+3     :    -0.000000
      g-3     :    -0.000000
      g+4     :    -0.000000
      g-4     :     0.000000
  1 S s       :     0.031738  s :     0.031738
      pz      :     0.024439  p :    -0.278877
      px      :    -0.151658
      py      :    -0.151658
      dz2     :     0.014010  d :     0.037831
      dxz     :     0.007055
      dyz     :     0.007055
      dx2y2   :     0.004856
      dxy     :     0.004856
      f0      :     0.002835  f :     0.005376
      f+1     :     0.000681
      f-1     :     0.000681
      f+2     :     0.000590
      f-2     :     0.000589
      f+3     :    -0.000000
      f-3     :    -0.000000


                      *****************************
                      * MAYER POPULATION ANALYSIS *
                      *****************************

  NA   - Mulliken gross atomic population
  ZA   - Total nuclear charge
  QA   - Mulliken gross atomic charge
  VA   - Mayer's total valence
  BVA  - Mayer's bonded valence
  FA   - Mayer's free valence

  ATOM       NA         ZA         QA         VA         BVA        FA
  0 V     22.6187    23.0000     0.3813     5.3843     2.3575     3.0268
  1 S     16.3813    16.0000    -0.3813     2.4177     2.3575     0.0602

  Mayer bond orders larger than 0.100000
B(  0-V ,  1-S ) :   2.3575 

-------
TIMINGS
-------

Total SCF time: 0 days 0 hours 2 min 7 sec 

Total time                  ....     127.136 sec
Sum of individual times     ....     124.579 sec  ( 98.0%)

Fock matrix formation       ....     117.937 sec  ( 92.8%)
  XC integration            ....     112.008 sec  ( 95.0% of F)
    Basis function eval.    ....       0.036 sec  (  0.0% of XC)
    Density eval.           ....       0.092 sec  (  0.1% of XC)
    XC-Functional eval.     ....       0.033 sec  (  0.0% of XC)
    XC-Potential eval.      ....       0.193 sec  (  0.2% of XC)
Diagonalization             ....       2.282 sec  (  1.8%)
Density matrix formation    ....       0.011 sec  (  0.0%)
Population analysis         ....       0.576 sec  (  0.5%)
Initial guess               ....       0.255 sec  (  0.2%)
Orbital Transformation      ....       0.000 sec  (  0.0%)
Orbital Orthonormalization  ....       0.000 sec  (  0.0%)
DIIS solution               ....       0.232 sec  (  0.2%)
Grid generation             ....       3.285 sec  (  2.6%)

-------------------------   --------------------
FINAL SINGLE POINT ENERGY     -1342.078297922505
-------------------------   --------------------


----------------------------------------------------------------------------
                           ORCA NUMERICAL GRADIENT
                              (28-process run)
----------------------------------------------------------------------------

I state                        ... 1
J state                        ... 0
Number of atoms                ... 2
Derivative's order of accuracy ... 2
Central differences            ... used
Number of displacements        ... 12
Numerical increment            ... 5.000e-03 bohr
Translation invariance         ... used

The output will be reduced. Please look at the following files:
SCF program output             ... >VS.lastscf
Integral program output        ... >VS.lastint
Gradient program output        ... >VS.lastgrad


     Note:   There are more processes than displacements to do
     ===>:   Reducing number of processes to   3

             <<<Displacing   2/coordinate 1 (+)>>>
             <<<Displacing   2/coordinate 2 (+)>>>
             <<<Displacing   2/coordinate 3 (+)>>>
             <<<Displacing   2/coordinate 2 (-)>>>
             <<<Displacing   2/coordinate 1 (-)>>>
             <<<Displacing   2/coordinate 3 (-)>>>

------------------------------
CARTESIAN GRADIENT (NUMERICAL)
-------------------------------
   1   V   :    0.000001753    0.000000584    0.001215419
   2   S   :   -0.000001753   -0.000000584   -0.001215419

Norm of the cartesian gradient     ...    0.001718865
RMS gradient                       ...    0.000701724
MAX gradient                       ...    0.001215419

-------
TIMINGS
-------

Total numerical gradient time      ...       90.948 sec


                            ***************************************
                            *     ORCA property calculations      *
                            ***************************************

                                    ---------------------
                                    Active property flags
                                    ---------------------
   (+) Dipole Moment


------------------------------------------------------------------------------
                       ORCA ELECTRIC PROPERTIES CALCULATION
------------------------------------------------------------------------------

Dipole Moment Calculation                       ... on
Quadrupole Moment Calculation                   ... off
Polarizability Calculation                      ... off
GBWName                                         ... VS.gbw
Electron density file                           ... VS.scfp
The origin for moment calculation is the CENTER OF MASS  = ( 0.000000,  0.000000  1.494907)

-------------
DIPOLE MOMENT
-------------
                                X             Y             Z
Electronic contribution:      0.00000      -0.00000      -6.16302
Nuclear contribution   :      0.00000       0.00000       3.62116
                        -----------------------------------------
Total Dipole Moment    :      0.00000      -0.00000      -2.54185
                        -----------------------------------------
Magnitude (a.u.)       :      2.54185
Magnitude (Debye)      :      6.46088



--------------------
Rotational spectrum 
--------------------
 
Rotational constants in cm-1:     0.000000     0.204264     0.204264 
Rotational constants in MHz :     0.000000  6123.691915  6123.691915 

 Dipole components along the rotational axes: 
x,y,z [a.u.] :    -2.541854    -0.000000     0.000000 
x,y,z [Debye]:    -6.460879    -0.000000     0.000000 

 

Timings for individual modules:

Sum of individual times         ...      222.647 sec (=   3.711 min)
GTO integral calculation        ...        3.844 sec (=   0.064 min)   1.7 %
SCF iterations                  ...      127.856 sec (=   2.131 min)  57.4 %
SCF Gradient evaluation         ...       90.948 sec (=   1.516 min)  40.8 %
                             ****ORCA TERMINATED NORMALLY****
TOTAL RUN TIME: 0 days 0 hours 4 minutes 6 seconds 469 msec
