
                                 *****************
                                 * O   R   C   A *
                                 *****************

           --- An Ab Initio, DFT and Semiempirical electronic structure package ---

                  #######################################################
                  #                        -***-                        #
                  #          Department of theory and spectroscopy      #
                  #               Directorship: Frank Neese             #
                  #        Max Planck Institute fuer Kohlenforschung    #
                  #                Kaiser Wilhelm Platz 1               #
                  #                 D-45470 Muelheim/Ruhr               #
                  #                      Germany                        #
                  #                                                     #
                  #                  All rights reserved                #
                  #                        -***-                        #
                  #######################################################


                         Program Version 4.2.0 -  RELEASE  -


 With contributions from (in alphabetic order):
   Daniel Aravena         : Magnetic Suceptibility
   Michael Atanasov       : Ab Initio Ligand Field Theory (pilot matlab implementation)
   Alexander A. Auer      : GIAO ZORA, VPT2
   Ute Becker             : Parallelization
   Giovanni Bistoni       : ED, misc. LED, open-shell LED, HFLED
   Martin Brehm           : Molecular dynamics
   Dmytro Bykov           : SCF Hessian
   Vijay G. Chilkuri      : MRCI spin determinant printing, contributions to CSF-ICE
   Dipayan Datta          : RHF DLPNO-CCSD density
   Achintya Kumar Dutta   : EOM-CC, STEOM-CC
   Dmitry Ganyushin       : Spin-Orbit,Spin-Spin,Magnetic field MRCI
   Miquel Garcia          : C-PCM Hessian, Gaussian charge scheme
   Yang Guo               : DLPNO-NEVPT2, CIM, IAO-localization
   Andreas Hansen         : Spin unrestricted coupled pair/coupled cluster methods
   Benjamin Helmich-Paris : CASSCF linear response (MC-RPA)
   Lee Huntington         : MR-EOM, pCC
   Robert Izsak           : Overlap fitted RIJCOSX, COSX-SCS-MP3, EOM
   Christian Kollmar      : KDIIS, OOCD, Brueckner-CCSD(T), CCSD density
   Simone Kossmann        : Meta GGA functionals, TD-DFT gradient, OOMP2, MP2 Hessian
   Martin Krupicka        : AUTO-CI
   Lucas Lang             : DCDCAS
   Dagmar Lenk            : GEPOL surface, SMD
   Dimitrios Liakos       : Extrapolation schemes; Compound Job, initial MDCI parallelization
   Dimitrios Manganas     : Further ROCIS development; embedding schemes
   Dimitrios Pantazis     : SARC Basis sets
   Taras Petrenko         : DFT Hessian,TD-DFT gradient, ASA, ECA, R-Raman, ABS, FL, XAS/XES, NRVS
   Peter Pinski           : DLPNO-MP2, DLPNO-MP2 Gradient
   Christoph Reimann      : Effective Core Potentials
   Marius Retegan         : Local ZFS, SOC
   Christoph Riplinger    : Optimizer, TS searches, QM/MM, DLPNO-CCSD(T), (RO)-DLPNO pert. Triples
   Tobias Risthaus        : Range-separated hybrids, TD-DFT gradient, RPA, STAB
   Michael Roemelt        : Original ROCIS implementation
   Masaaki Saitow         : Open-shell DLPNO-CCSD energy and density
   Barbara Sandhoefer     : DKH picture change effects
   Avijit Sen             : IP-ROCIS
   Kantharuban Sivalingam : CASSCF convergence, NEVPT2, FIC-MRCI
   Bernardo de Souza      : ESD, SOC TD-DFT
   Georgi Stoychev        : AutoAux, RI-MP2 NMR
   Willem Van den Heuvel  : Paramagnetic NMR
   Boris Wezisla          : Elementary symmetry handling
   Frank Wennmohs         : Technical directorship


 We gratefully acknowledge several colleagues who have allowed us to
 interface, adapt or use parts of their codes:
   Stefan Grimme, W. Hujo, H. Kruse,             : VdW corrections, initial TS optimization,
                  C. Bannwarth                     DFT functionals, gCP, sTDA/sTD-DF
   Ed Valeev, F. Pavosevic, A. Kumar             : LibInt (2-el integral package), F12 methods
   Garnet Chan, S. Sharma, J. Yang, R. Olivares  : DMRG
   Ulf Ekstrom                                   : XCFun DFT Library
   Mihaly Kallay                                 : mrcc  (arbitrary order and MRCC methods)
   Andreas Klamt, Michael Diedenhofen            : otool_cosmo (COSMO solvation model)
   Jiri Pittner, Ondrej Demel                    : Mk-CCSD
   Frank Weinhold                                : gennbo (NPA and NBO analysis)
   Christopher J. Cramer and Donald G. Truhlar   : smd solvation model
   Lars Goerigk                                  : TD-DFT with DH, B97 family of functionals
   V. Asgeirsson, H. Jonsson                     : NEB implementation
   FAccTs GmbH                                   : IRC, NEB, NEB-TS, Multilevel, MM, QM/MM, CI optimization
   S Lehtola, MJT Oliveira, MAL Marques          : LibXC Library


 Your calculation uses the libint2 library for the computation of 2-el integrals
 For citations please refer to: http://libint.valeyev.net

 Your ORCA version has been built with support for libXC version: 4.2.3
 For citations please refer to: https://tddft.org/programs/libxc/

 This ORCA versions uses:
   CBLAS   interface :  Fast vector & matrix operations
   LAPACKE interface :  Fast linear algebra routines
   SCALAPACK package :  Parallel linear algebra routines


Your calculation utilizes the atom-pairwise dispersion correction
with the Becke-Johnson damping scheme (D3BJ)
Cite in your paper:
S.Grimme, S.Ehrlich, L.Goerigk, J Comput Chem, (2011), 32, 1456–1465 
S.Grimme, J.Antony, S.Ehrlich and H.Krieg, J.Chem.Phys., 132, (2010), 154104 
   

----- Orbital basis set information -----
Your calculation utilizes the basis: def2-TZVPPD
   F. Weigend and R. Ahlrichs, Phys. Chem. Chem. Phys. 7, 3297 (2005).
   D. Rappoport and F. Furche, J. Chem. Phys. 133 134105 (2010).

----- AuxJ basis set information -----
Your calculation utilizes the auxiliary basis: def2/J
   F. Weigend, Phys. Chem. Chem. Phys. 8, 1057 (2006).

================================================================================
                                        WARNINGS
                       Please study these warnings very carefully!
================================================================================


INFO   : the flag for use of LIBINT has been found!

================================================================================
                                       INPUT FILE
================================================================================
NAME = cl2.in
|  1> #
|  2> # cl2 TPSS-D3BJ/Def2-TZVPPD
|  3> #
|  4> ! tpss d3bj def2-tzvppd def2/j grid4 nofinalgrid
|  5> 
|  6> *xyz 0 1
|  7> Cl         0.00000        0.00000        1.02117
|  8> Cl         0.00000        0.00000       -1.02117
|  9> *
| 10> 
| 11> %maxcore 5000
| 12> 
| 13> %pal
| 14> nprocs = 28
| 15> end
| 16> 
| 17> 
| 18>                          ****END OF INPUT****
================================================================================

                       ****************************
                       * Single Point Calculation *
                       ****************************

---------------------------------
CARTESIAN COORDINATES (ANGSTROEM)
---------------------------------
  Cl     0.000000    0.000000    1.021170
  Cl     0.000000    0.000000   -1.021170

----------------------------
CARTESIAN COORDINATES (A.U.)
----------------------------
  NO LB      ZA    FRAG     MASS         X           Y           Z
   0 Cl   17.0000    0    35.453    0.000000    0.000000    1.929732
   1 Cl   17.0000    0    35.453    0.000000    0.000000   -1.929732

--------------------------------
INTERNAL COORDINATES (ANGSTROEM)
--------------------------------
 Cl     0   0   0     0.000000000000     0.00000000     0.00000000
 Cl     1   0   0     2.042340000000     0.00000000     0.00000000

---------------------------
INTERNAL COORDINATES (A.U.)
---------------------------
 Cl     0   0   0     0.000000000000     0.00000000     0.00000000
 Cl     1   0   0     3.859463272353     0.00000000     0.00000000

---------------------
BASIS SET INFORMATION
---------------------
There are 1 groups of distinct atoms

 Group   1 Type Cl  : 15s10p4d1f contracted to 6s6p4d1f pattern {732111/511111/1111/1}

Atom   0Cl   basis set group =>   1
Atom   1Cl   basis set group =>   1
---------------------------------
AUXILIARY/J BASIS SET INFORMATION
---------------------------------
There are 1 groups of distinct atoms

 Group   1 Type Cl  : 14s5p5d2f1g contracted to 8s4p3d1f1g pattern {71111111/2111/311/2/1}

Atom   0Cl   basis set group =>   1
Atom   1Cl   basis set group =>   1


           ************************************************************
           *        Program running with 28 parallel MPI-processes    *
           *              working on a common directory               *
           ************************************************************
------------------------------------------------------------------------------
                           ORCA GTO INTEGRAL CALCULATION
                           -- RI-GTO INTEGRALS CHOSEN --
------------------------------------------------------------------------------

                         BASIS SET STATISTICS AND STARTUP INFO

Gaussian basis set:
 # of primitive gaussian shells          ...   60
 # of primitive gaussian functions       ...  144
 # of contracted shells                  ...   34
 # of contracted basis functions         ...  102
 Highest angular momentum                ...    3
 Maximum contraction depth               ...    7
Auxiliary gaussian basis set:
 # of primitive gaussian shells          ...   54
 # of primitive gaussian functions       ...  154
 # of contracted shells                  ...   34
 # of contracted aux-basis functions     ...  102
 Highest angular momentum                ...    4
 Maximum contraction depth               ...    7
Ratio of auxiliary to basis functions    ...  1.00
Integral package used                  ... LIBINT
 One Electron integrals                  ... done
 Ordering auxiliary basis shells         ... done
 Integral threshhold             Thresh  ...  1.000e-10
 Primitive cut-off               TCut    ...  1.000e-11
 Pre-screening matrix                    ... done
 Shell pair data                         ... 
 Ordering of the shell pairs             ... done (   0.000 sec) 574 of 595 pairs
 Determination of significant pairs      ... done (   0.000 sec)
 Creation of shell pair data             ... done (   0.000 sec)
 Storage of shell pair data              ... done (   0.052 sec)
 Shell pair data done in (   0.052 sec)
 Computing two index integrals           ... done
 Cholesky decomposition of the V-matrix  ... done


Timings:
 Total evaluation time                   ...   0.613 sec (  0.010 min)
 One electron matrix time                ...   0.237 sec (  0.004 min) = 38.6%
 Schwartz matrix evaluation time         ...   0.114 sec (  0.002 min) = 18.5%
 Two index repulsion integral time       ...   0.100 sec (  0.002 min) = 16.4%
 Cholesky decomposition of V             ...   0.030 sec (  0.001 min) =  4.9%
 Three index repulsion integral time     ...   0.000 sec (  0.000 min) =  0.0%



           ************************************************************
           *        Program running with 28 parallel MPI-processes    *
           *              working on a common directory               *
           ************************************************************
-------------------------------------------------------------------------------
                                 ORCA SCF
-------------------------------------------------------------------------------

------------
SCF SETTINGS
------------
Hamiltonian:
 Density Functional     Method          .... DFT(GTOs)
 Exchange Functional    Exchange        .... TPSS
 Correlation Functional Correlation     .... TPSS
 LDA part of GGA corr.  LDAOpt          .... PW91-LDA
 Gradients option       PostSCFGGA      .... off
   Density functional embedding theory  .... OFF
   NL short-range parameter             ....  5.000000
 RI-approximation to the Coulomb term is turned on
   Number of auxiliary basis functions  .... 102


General Settings:
 Integral files         IntName         .... cl2
 Hartree-Fock type      HFTyp           .... RHF
 Total Charge           Charge          ....    0
 Multiplicity           Mult            ....    1
 Number of Electrons    NEL             ....   34
 Basis Dimension        Dim             ....  102
 Nuclear Repulsion      ENuc            ....     74.8808784035 Eh

Convergence Acceleration:
 DIIS                   CNVDIIS         .... on
   Start iteration      DIISMaxIt       ....    12
   Startup error        DIISStart       ....  0.200000
   # of expansion vecs  DIISMaxEq       ....     5
   Bias factor          DIISBfac        ....   1.050
   Max. coefficient     DIISMaxC        ....  10.000
 Newton-Raphson         CNVNR           .... off
 SOSCF                  CNVSOSCF        .... on
   Start iteration      SOSCFMaxIt      ....   150
   Startup grad/error   SOSCFStart      ....  0.003300
 Level Shifting         CNVShift        .... on
   Level shift para.    LevelShift      ....    0.2500
   Turn off err/grad.   ShiftErr        ....    0.0010
 Zerner damping         CNVZerner       .... off
 Static damping         CNVDamp         .... on
   Fraction old density DampFac         ....    0.7000
   Max. Damping (<1)    DampMax         ....    0.9800
   Min. Damping (>=0)   DampMin         ....    0.0000
   Turn off err/grad.   DampErr         ....    0.1000
 Fernandez-Rico         CNVRico         .... off

SCF Procedure:
 Maximum # iterations   MaxIter         ....   125
 SCF integral mode      SCFMode         .... Direct
   Integral package                     .... LIBINT
 Reset frequency        DirectResetFreq ....    20
 Integral Threshold     Thresh          ....  1.000e-10 Eh
 Primitive CutOff       TCut            ....  1.000e-11 Eh

Convergence Tolerance:
 Convergence Check Mode ConvCheckMode   .... Total+1el-Energy
 Convergence forced     ConvForced      .... 0
 Energy Change          TolE            ....  1.000e-06 Eh
 1-El. energy change                    ....  1.000e-03 Eh
 Orbital Gradient       TolG            ....  5.000e-05
 Orbital Rotation angle TolX            ....  5.000e-05
 DIIS Error             TolErr          ....  1.000e-06


Diagonalization of the overlap matrix:
Smallest eigenvalue                        ... 1.979e-03
Time for diagonalization                   ...    0.002 sec
Threshold for overlap eigenvalues          ... 1.000e-08
Number of eigenvalues below threshold      ... 0
Time for construction of square roots      ...    0.116 sec
Total time needed                          ...    0.118 sec

-------------------
DFT GRID GENERATION
-------------------

General Integration Accuracy     IntAcc      ...  4.670
Radial Grid Type                 RadialGrid  ... Gauss-Chebyshev
Angular Grid (max. acc.)         AngularGrid ... Lebedev-302
Angular grid pruning method      GridPruning ... 3 (G Style)
Weight generation scheme         WeightScheme... Becke
Basis function cutoff            BFCut       ...    1.0000e-10
Integration weight cutoff        WCut        ...    1.0000e-14
Grids for H and He will be reduced by one unit

# of grid points (after initial pruning)     ...  13476 (   0.0 sec)
# of grid points (after weights+screening)   ...  13450 (   0.0 sec)
nearest neighbour list constructed           ...    0.0 sec
Grid point re-assignment to atoms done       ...    0.0 sec
Grid point division into batches done        ...    0.1 sec
Reduced shell lists constructed in    0.1 sec

Total number of grid points                  ...    13450
Total number of batches                      ...      212
Average number of points per batch           ...       63
Average number of grid points per atom       ...     6725
Average number of shells per batch           ...     6.33 (18.63%)
Average number of basis functions per batch  ...    19.00 (18.63%)
Average number of large shells per batch     ...     4.33 (68.42%)
Average number of large basis fcns per batch ...    12.78 (67.25%)
Maximum spatial batch extension              ...  19.50, 19.55, 12.87 au
Average spatial batch extension              ...   0.60,  0.57,  0.41 au

Time for grid setup =    2.498 sec

------------------------------
INITIAL GUESS: MODEL POTENTIAL
------------------------------
Loading Hartree-Fock densities                     ... done
Calculating cut-offs                               ... done
Setting up the integral package                    ... done
Initializing the effective Hamiltonian             ... done
Starting the Coulomb interaction                   ... done (   0.0 sec)
Reading the grid                                   ... done
Mapping shells                                     ... done
Starting the XC term evaluation                    ... done (   0.0 sec)
  promolecular density results
     # of electrons  =     33.999987645
     EX              =    -54.745800668
     EC              =     -1.327709044
     EX+EC           =    -56.073509712
Transforming the Hamiltonian                       ... done (   0.1 sec)
Diagonalizing the Hamiltonian                      ... done (   0.0 sec)
Back transforming the eigenvectors                 ... done (   0.0 sec)
Now organizing SCF variables                       ... done
                      ------------------
                      INITIAL GUESS DONE (   3.5 sec)
                      ------------------
--------------
SCF ITERATIONS
--------------
ITER       Energy         Delta-E        Max-DP      RMS-DP      [F,P]     Damp
               ***  Starting incremental Fock matrix formation  ***
  0   -920.4336496806   0.000000000000 0.01172972  0.00031078  0.0423690 0.7000
                      *** Initiating the SOSCF procedure ***
                      *** Re-Reading the Fockian *** 
                      *** Removing any level shift *** 
ITER      Energy       Delta-E        Grad      Rot      Max-DP    RMS-DP
  1   -920.43489089  -0.0012412057  0.001659  0.001659  0.030042  0.000801
               *** Restarting incremental Fock matrix formation ***
  2   -920.43705596  -0.0021650690  0.004316  0.007830  0.005842  0.000287
  3   -920.43695409   0.0001018649  0.006575  0.005069  0.003259  0.000154
  4   -920.43725506  -0.0003009701  0.000379  0.000462  0.001958  0.000047
  5   -920.43725631  -0.0000012456  0.000267  0.000188  0.000869  0.000021
  6   -920.43725754  -0.0000012313  0.000021  0.000017  0.000023  0.000001
                 **** Energy Check signals convergence ****
              ***Rediagonalizing the Fockian in SOSCF/NRSCF***

               *****************************************************
               *                     SUCCESS                       *
               *           SCF CONVERGED AFTER   7 CYCLES          *
               *****************************************************


----------------
TOTAL SCF ENERGY
----------------

Total Energy       :         -920.43725756 Eh          -25046.37111 eV

Components:
Nuclear Repulsion  :           74.88087840 Eh            2037.61229 eV
Electronic Energy  :         -995.31813596 Eh          -27083.98340 eV
One Electron Energy:        -1419.38404269 Eh          -38623.40338 eV
Two Electron Energy:          424.06590673 Eh           11539.41997 eV

Virial components:
Potential Energy   :        -1839.26301001 Eh          -50048.89094 eV
Kinetic Energy     :          918.82575246 Eh           25002.51983 eV
Virial Ratio       :            2.00175387


DFT components:
N(Alpha)           :       16.999994956085 electrons
N(Beta)            :       16.999994956085 electrons
N(Total)           :       33.999989912169 electrons
E(X)               :      -55.165531775791 Eh       
E(C)               :       -1.333595939604 Eh       
E(XC)              :      -56.499127715395 Eh       
DFET-embed. en.    :        0.000000000000 Eh       

---------------
SCF CONVERGENCE
---------------

  Last Energy change         ...   -1.9699e-08  Tolerance :   1.0000e-06
  Last MAX-Density change    ...    5.5336e-06  Tolerance :   1.0000e-05
  Last RMS-Density change    ...    2.4910e-07  Tolerance :   1.0000e-06
  Last Orbital Gradient      ...    6.4942e-06  Tolerance :   5.0000e-05
  Last Orbital Rotation      ...    4.2198e-06  Tolerance :   5.0000e-05

             **** THE GBW FILE WAS UPDATED (cl2.gbw) ****
             **** DENSITY FILE WAS UPDATED (cl2.scfp) ****
             **** ENERGY FILE WAS UPDATED (cl2.en.tmp) ****
             **** THE GBW FILE WAS UPDATED (cl2.gbw) ****
             **** DENSITY FILE WAS UPDATED (cl2.scfp) ****
----------------
ORBITAL ENERGIES
----------------

  NO   OCC          E(Eh)            E(eV) 
   0   2.0000    -101.048667     -2749.6740 
   1   2.0000    -101.048658     -2749.6738 
   2   2.0000      -9.295196      -252.9351 
   3   2.0000      -9.295191      -252.9350 
   4   2.0000      -7.078919      -192.6272 
   5   2.0000      -7.078834      -192.6249 
   6   2.0000      -7.062489      -192.1801 
   7   2.0000      -7.062489      -192.1801 
   8   2.0000      -7.062487      -192.1800 
   9   2.0000      -7.062487      -192.1800 
  10   2.0000      -0.862999       -23.4834 
  11   2.0000      -0.721403       -19.6304 
  12   2.0000      -0.439734       -11.9658 
  13   2.0000      -0.367142        -9.9904 
  14   2.0000      -0.367142        -9.9904 
  15   2.0000      -0.277603        -7.5540 
  16   2.0000      -0.277603        -7.5540 
  17   0.0000      -0.167787        -4.5657 
  18   0.0000       0.028619         0.7788 
  19   0.0000       0.029666         0.8073 
  20   0.0000       0.042246         1.1496 
  21   0.0000       0.042246         1.1496 
  22   0.0000       0.054473         1.4823 
  23   0.0000       0.073138         1.9902 
  24   0.0000       0.073138         1.9902 
  25   0.0000       0.121048         3.2939 
  26   0.0000       0.121056         3.2941 
  27   0.0000       0.143994         3.9183 
  28   0.0000       0.143994         3.9183 
  29   0.0000       0.182567         4.9679 
  30   0.0000       0.217664         5.9229 
  31   0.0000       0.217667         5.9230 
  32   0.0000       0.223495         6.0816 
  33   0.0000       0.246764         6.7148 
  34   0.0000       0.282000         7.6736 
  35   0.0000       0.282000         7.6736 
  36   0.0000       0.425878        11.5887 
  37   0.0000       0.425878        11.5887 
  38   0.0000       0.456281        12.4160 
  39   0.0000       0.461795        12.5661 
  40   0.0000       0.461795        12.5661 
  41   0.0000       0.504966        13.7408 
  42   0.0000       0.504969        13.7409 
  43   0.0000       0.552354        15.0303 
  44   0.0000       0.552361        15.0305 
  45   0.0000       0.567604        15.4453 
  46   0.0000       0.567604        15.4453 
  47   0.0000       0.570891        15.5347 
  48   0.0000       0.614637        16.7251 
  49   0.0000       0.614637        16.7251 
  50   0.0000       0.646353        17.5882 
  51   0.0000       0.694924        18.9099 
  52   0.0000       0.810535        22.0558 
  53   0.0000       1.233241        33.5582 
  54   0.0000       1.712810        46.6079 
  55   0.0000       1.712810        46.6079 
  56   0.0000       1.758148        47.8416 
  57   0.0000       1.758191        47.8428 
  58   0.0000       1.814829        49.3840 
  59   0.0000       1.852311        50.4039 
  60   0.0000       1.852311        50.4039 
  61   0.0000       1.852581        50.4113 
  62   0.0000       1.852613        50.4122 
  63   0.0000       1.857129        50.5350 
  64   0.0000       1.884210        51.2720 
  65   0.0000       1.884210        51.2720 
  66   0.0000       1.912091        52.0306 
  67   0.0000       1.912110        52.0312 
  68   0.0000       2.011288        54.7299 
  69   0.0000       2.011288        54.7299 
  70   0.0000       2.045156        55.6515 
  71   0.0000       2.045156        55.6515 
  72   0.0000       2.156496        58.6812 
  73   0.0000       2.156545        58.6826 
  74   0.0000       2.195494        59.7424 
  75   0.0000       2.226266        60.5798 
  76   0.0000       2.226266        60.5798 
  77   0.0000       2.281454        62.0815 
  78   0.0000       2.302594        62.6568 
  79   0.0000       2.302594        62.6568 
  80   0.0000       2.350450        63.9590 
  81   0.0000       2.652650        72.1823 
  82   0.0000       2.652650        72.1823 
  83   0.0000       3.667737        99.8042 
  84   0.0000       7.973970       216.9828 
  85   0.0000       7.974043       216.9847 
  86   0.0000       7.995822       217.5774 
  87   0.0000       7.995822       217.5774 
  88   0.0000       8.010916       217.9881 
  89   0.0000       8.010987       217.9900 
  90   0.0000       8.025612       218.3880 
  91   0.0000       8.035427       218.6551 
  92   0.0000       8.035427       218.6551 
  93   0.0000       8.148028       221.7191 
  94   0.0000      10.576549       287.8025 
  95   0.0000      10.576549       287.8025 
  96   0.0000      10.694757       291.0191 
  97   0.0000      10.694757       291.0191 
  98   0.0000      10.707646       291.3699 
  99   0.0000      11.120384       302.6010 
 100   0.0000      24.514042       667.0610 
 101   0.0000      25.171908       684.9625 

                    ********************************
                    * MULLIKEN POPULATION ANALYSIS *
                    ********************************

-----------------------
MULLIKEN ATOMIC CHARGES
-----------------------
   0 Cl:    0.000000
   1 Cl:   -0.000000
Sum of atomic charges:   -0.0000000

--------------------------------
MULLIKEN REDUCED ORBITAL CHARGES
--------------------------------
  0 Cls       :     5.989053  s :     5.989053
      pz      :     2.988831  p :    10.933954
      px      :     3.972562
      py      :     3.972562
      dz2     :     0.019472  d :     0.071371
      dxz     :     0.025949
      dyz     :     0.025949
      dx2y2   :     0.000000
      dxy     :     0.000000
      f0      :     0.002644  f :     0.005621
      f+1     :     0.001489
      f-1     :     0.001489
      f+2     :     0.000000
      f-2     :     0.000000
      f+3     :     0.000000
      f-3     :     0.000000
  1 Cls       :     5.989053  s :     5.989053
      pz      :     2.988831  p :    10.933954
      px      :     3.972562
      py      :     3.972562
      dz2     :     0.019473  d :     0.071371
      dxz     :     0.025949
      dyz     :     0.025949
      dx2y2   :     0.000000
      dxy     :     0.000000
      f0      :     0.002644  f :     0.005621
      f+1     :     0.001489
      f-1     :     0.001489
      f+2     :    -0.000000
      f-2     :     0.000000
      f+3     :     0.000000
      f-3     :     0.000000


                     *******************************
                     * LOEWDIN POPULATION ANALYSIS *
                     *******************************

----------------------
LOEWDIN ATOMIC CHARGES
----------------------
   0 Cl:   -0.000000
   1 Cl:    0.000000

-------------------------------
LOEWDIN REDUCED ORBITAL CHARGES
-------------------------------
  0 Cls       :     5.717682  s :     5.717682
      pz      :     3.117547  p :    10.888372
      px      :     3.885413
      py      :     3.885413
      dz2     :     0.157729  d :     0.380170
      dxz     :     0.111221
      dyz     :     0.111221
      dx2y2   :     0.000000
      dxy     :     0.000000
      f0      :     0.007042  f :     0.013776
      f+1     :     0.003367
      f-1     :     0.003367
      f+2     :     0.000000
      f-2     :     0.000000
      f+3     :     0.000000
      f-3     :     0.000000
  1 Cls       :     5.717682  s :     5.717682
      pz      :     3.117547  p :    10.888372
      px      :     3.885413
      py      :     3.885413
      dz2     :     0.157729  d :     0.380170
      dxz     :     0.111221
      dyz     :     0.111221
      dx2y2   :     0.000000
      dxy     :     0.000000
      f0      :     0.007042  f :     0.013776
      f+1     :     0.003367
      f-1     :     0.003367
      f+2     :     0.000000
      f-2     :     0.000000
      f+3     :     0.000000
      f-3     :     0.000000


                      *****************************
                      * MAYER POPULATION ANALYSIS *
                      *****************************

  NA   - Mulliken gross atomic population
  ZA   - Total nuclear charge
  QA   - Mulliken gross atomic charge
  VA   - Mayer's total valence
  BVA  - Mayer's bonded valence
  FA   - Mayer's free valence

  ATOM       NA         ZA         QA         VA         BVA        FA
  0 Cl    17.0000    17.0000     0.0000     1.0324     1.0324     0.0000
  1 Cl    17.0000    17.0000    -0.0000     1.0324     1.0324    -0.0000

  Mayer bond orders larger than 0.100000
B(  0-Cl,  1-Cl) :   1.0324 

-------
TIMINGS
-------

Total SCF time: 0 days 0 hours 1 min 55 sec 

Total time                  ....     115.385 sec
Sum of individual times     ....     114.401 sec  ( 99.1%)

Fock matrix formation       ....     110.009 sec  ( 95.3%)
  Split-RI-J                ....       0.861 sec  (  0.8% of F)
  XC integration            ....     108.198 sec  ( 98.4% of F)
    Basis function eval.    ....       0.010 sec  (  0.0% of XC)
    Density eval.           ....       0.016 sec  (  0.0% of XC)
    XC-Functional eval.     ....       0.013 sec  (  0.0% of XC)
    XC-Potential eval.      ....       0.026 sec  (  0.0% of XC)
Diagonalization             ....       0.264 sec  (  0.2%)
Density matrix formation    ....       0.006 sec  (  0.0%)
Population analysis         ....       0.462 sec  (  0.4%)
Initial guess               ....       0.999 sec  (  0.9%)
Orbital Transformation      ....       0.000 sec  (  0.0%)
Orbital Orthonormalization  ....       0.000 sec  (  0.0%)
DIIS solution               ....       0.001 sec  (  0.0%)
SOSCF solution              ....       0.162 sec  (  0.1%)
Grid generation             ....       2.498 sec  (  2.2%)


-------------------------------------------------------------------------------
                          DFT DISPERSION CORRECTION                            
                                                                               
                              DFTD3 V3.1  Rev 1                                
                          USING Becke-Johnson damping                          
-------------------------------------------------------------------------------
The TPSS functional is recognized
Active option DFTDOPT                   ...         4   

molecular C6(AA) [au] = 361.743709 


            DFT-D V3
 parameters
 s6 scaling factor         :     1.0000 
 a1 scaling factor         :     0.4535 
 s8 scaling factor         :     1.9435 
 a2 scaling factor         :     4.4752 
 ad hoc parameters k1-k3   :    16.0000     1.3333    -4.0000 

 Edisp/kcal,au: -0.844073438494  -0.001345116502 
 E6   /kcal   :  -0.337562674 
 E8   /kcal   :  -0.506510765 
 % E8         :  60.007902372 

-------------------------   ----------------
Dispersion correction           -0.001345117
-------------------------   ----------------


-------------------------   --------------------
FINAL SINGLE POINT ENERGY      -920.438602673515
-------------------------   --------------------


                            ***************************************
                            *     ORCA property calculations      *
                            ***************************************

                                    ---------------------
                                    Active property flags
                                    ---------------------
   (+) Dipole Moment


------------------------------------------------------------------------------
                       ORCA ELECTRIC PROPERTIES CALCULATION
------------------------------------------------------------------------------

Dipole Moment Calculation                       ... on
Quadrupole Moment Calculation                   ... off
Polarizability Calculation                      ... off
GBWName                                         ... cl2.gbw
Electron density file                           ... cl2.scfp
The origin for moment calculation is the CENTER OF MASS  = ( 0.000000,  0.000000  0.000000)

-------------
DIPOLE MOMENT
-------------
                                X             Y             Z
Electronic contribution:     -0.00000      -0.00000      -0.00000
Nuclear contribution   :      0.00000       0.00000       0.00000
                        -----------------------------------------
Total Dipole Moment    :     -0.00000      -0.00000      -0.00000
                        -----------------------------------------
Magnitude (a.u.)       :      0.00000
Magnitude (Debye)      :      0.00000



--------------------
Rotational spectrum 
--------------------
 
Rotational constants in cm-1:     0.000000     0.227991     0.227991 
Rotational constants in MHz :     0.000000  6835.000056  6835.000056 

 Dipole components along the rotational axes: 
x,y,z [a.u.] :    -0.000000    -0.000000    -0.000000 
x,y,z [Debye]:    -0.000000    -0.000000    -0.000000 

 

Timings for individual modules:

Sum of individual times         ...      121.558 sec (=   2.026 min)
GTO integral calculation        ...        5.514 sec (=   0.092 min)   4.5 %
SCF iterations                  ...      116.044 sec (=   1.934 min)  95.5 %
                             ****ORCA TERMINATED NORMALLY****
TOTAL RUN TIME: 0 days 0 hours 3 minutes 48 seconds 223 msec
