
                                 *****************
                                 * O   R   C   A *
                                 *****************

           --- An Ab Initio, DFT and Semiempirical electronic structure package ---

                  #######################################################
                  #                        -***-                        #
                  #          Department of theory and spectroscopy      #
                  #               Directorship: Frank Neese             #
                  #        Max Planck Institute fuer Kohlenforschung    #
                  #                Kaiser Wilhelm Platz 1               #
                  #                 D-45470 Muelheim/Ruhr               #
                  #                      Germany                        #
                  #                                                     #
                  #                  All rights reserved                #
                  #                        -***-                        #
                  #######################################################


                         Program Version 4.2.0 -  RELEASE  -


 With contributions from (in alphabetic order):
   Daniel Aravena         : Magnetic Suceptibility
   Michael Atanasov       : Ab Initio Ligand Field Theory (pilot matlab implementation)
   Alexander A. Auer      : GIAO ZORA, VPT2
   Ute Becker             : Parallelization
   Giovanni Bistoni       : ED, misc. LED, open-shell LED, HFLED
   Martin Brehm           : Molecular dynamics
   Dmytro Bykov           : SCF Hessian
   Vijay G. Chilkuri      : MRCI spin determinant printing, contributions to CSF-ICE
   Dipayan Datta          : RHF DLPNO-CCSD density
   Achintya Kumar Dutta   : EOM-CC, STEOM-CC
   Dmitry Ganyushin       : Spin-Orbit,Spin-Spin,Magnetic field MRCI
   Miquel Garcia          : C-PCM Hessian, Gaussian charge scheme
   Yang Guo               : DLPNO-NEVPT2, CIM, IAO-localization
   Andreas Hansen         : Spin unrestricted coupled pair/coupled cluster methods
   Benjamin Helmich-Paris : CASSCF linear response (MC-RPA)
   Lee Huntington         : MR-EOM, pCC
   Robert Izsak           : Overlap fitted RIJCOSX, COSX-SCS-MP3, EOM
   Christian Kollmar      : KDIIS, OOCD, Brueckner-CCSD(T), CCSD density
   Simone Kossmann        : Meta GGA functionals, TD-DFT gradient, OOMP2, MP2 Hessian
   Martin Krupicka        : AUTO-CI
   Lucas Lang             : DCDCAS
   Dagmar Lenk            : GEPOL surface, SMD
   Dimitrios Liakos       : Extrapolation schemes; Compound Job, initial MDCI parallelization
   Dimitrios Manganas     : Further ROCIS development; embedding schemes
   Dimitrios Pantazis     : SARC Basis sets
   Taras Petrenko         : DFT Hessian,TD-DFT gradient, ASA, ECA, R-Raman, ABS, FL, XAS/XES, NRVS
   Peter Pinski           : DLPNO-MP2, DLPNO-MP2 Gradient
   Christoph Reimann      : Effective Core Potentials
   Marius Retegan         : Local ZFS, SOC
   Christoph Riplinger    : Optimizer, TS searches, QM/MM, DLPNO-CCSD(T), (RO)-DLPNO pert. Triples
   Tobias Risthaus        : Range-separated hybrids, TD-DFT gradient, RPA, STAB
   Michael Roemelt        : Original ROCIS implementation
   Masaaki Saitow         : Open-shell DLPNO-CCSD energy and density
   Barbara Sandhoefer     : DKH picture change effects
   Avijit Sen             : IP-ROCIS
   Kantharuban Sivalingam : CASSCF convergence, NEVPT2, FIC-MRCI
   Bernardo de Souza      : ESD, SOC TD-DFT
   Georgi Stoychev        : AutoAux, RI-MP2 NMR
   Willem Van den Heuvel  : Paramagnetic NMR
   Boris Wezisla          : Elementary symmetry handling
   Frank Wennmohs         : Technical directorship


 We gratefully acknowledge several colleagues who have allowed us to
 interface, adapt or use parts of their codes:
   Stefan Grimme, W. Hujo, H. Kruse,             : VdW corrections, initial TS optimization,
                  C. Bannwarth                     DFT functionals, gCP, sTDA/sTD-DF
   Ed Valeev, F. Pavosevic, A. Kumar             : LibInt (2-el integral package), F12 methods
   Garnet Chan, S. Sharma, J. Yang, R. Olivares  : DMRG
   Ulf Ekstrom                                   : XCFun DFT Library
   Mihaly Kallay                                 : mrcc  (arbitrary order and MRCC methods)
   Andreas Klamt, Michael Diedenhofen            : otool_cosmo (COSMO solvation model)
   Jiri Pittner, Ondrej Demel                    : Mk-CCSD
   Frank Weinhold                                : gennbo (NPA and NBO analysis)
   Christopher J. Cramer and Donald G. Truhlar   : smd solvation model
   Lars Goerigk                                  : TD-DFT with DH, B97 family of functionals
   V. Asgeirsson, H. Jonsson                     : NEB implementation
   FAccTs GmbH                                   : IRC, NEB, NEB-TS, Multilevel, MM, QM/MM, CI optimization
   S Lehtola, MJT Oliveira, MAL Marques          : LibXC Library


 Your calculation uses the libint2 library for the computation of 2-el integrals
 For citations please refer to: http://libint.valeyev.net

 Your ORCA version has been built with support for libXC version: 4.2.3
 For citations please refer to: https://tddft.org/programs/libxc/

 This ORCA versions uses:
   CBLAS   interface :  Fast vector & matrix operations
   LAPACKE interface :  Fast linear algebra routines
   SCALAPACK package :  Parallel linear algebra routines


Your calculation utilizes the atom-pairwise dispersion correction
with the Becke-Johnson damping scheme (D3BJ)
Cite in your paper:
S.Grimme, S.Ehrlich, L.Goerigk, J Comput Chem, (2011), 32, 1456–1465 
S.Grimme, J.Antony, S.Ehrlich and H.Krieg, J.Chem.Phys., 132, (2010), 154104 
   

----- Orbital basis set information -----
Your calculation utilizes the basis: def2-TZVPPD
   F. Weigend and R. Ahlrichs, Phys. Chem. Chem. Phys. 7, 3297 (2005).
   D. Rappoport and F. Furche, J. Chem. Phys. 133 134105 (2010).

----- AuxJ basis set information -----
Your calculation utilizes the auxiliary basis: def2/J
   F. Weigend, Phys. Chem. Chem. Phys. 8, 1057 (2006).

================================================================================
                                        WARNINGS
                       Please study these warnings very carefully!
================================================================================


INFO   : the flag for use of LIBINT has been found!

================================================================================
                                       INPUT FILE
================================================================================
NAME = CO.in
|  1> #
|  2> # CO TPSS-D3BJ/Def2-TZVPPD
|  3> #
|  4> ! tpss d3bj def2-tzvppd def2/j grid4 nofinalgrid
|  5> 
|  6> *xyz 0 1
|  7> O          0.00000        0.00000        0.00000
|  8> C          0.00000        0.00000        1.12961
|  9> *
| 10> 
| 11> %maxcore 5000
| 12> 
| 13> %pal
| 14> nprocs = 28
| 15> end
| 16> 
| 17> 
| 18>                          ****END OF INPUT****
================================================================================

                       ****************************
                       * Single Point Calculation *
                       ****************************

---------------------------------
CARTESIAN COORDINATES (ANGSTROEM)
---------------------------------
  O      0.000000    0.000000    0.000000
  C      0.000000    0.000000    1.129610

----------------------------
CARTESIAN COORDINATES (A.U.)
----------------------------
  NO LB      ZA    FRAG     MASS         X           Y           Z
   0 O     8.0000    0    15.999    0.000000    0.000000    0.000000
   1 C     6.0000    0    12.011    0.000000    0.000000    2.134654

--------------------------------
INTERNAL COORDINATES (ANGSTROEM)
--------------------------------
 O      0   0   0     0.000000000000     0.00000000     0.00000000
 C      1   0   0     1.129610000000     0.00000000     0.00000000

---------------------------
INTERNAL COORDINATES (A.U.)
---------------------------
 O      0   0   0     0.000000000000     0.00000000     0.00000000
 C      1   0   0     2.134653538139     0.00000000     0.00000000

---------------------
BASIS SET INFORMATION
---------------------
There are 2 groups of distinct atoms

 Group   1 Type O   : 12s7p3d1f contracted to 6s4p3d1f pattern {621111/4111/111/1}
 Group   2 Type C   : 12s6p3d1f contracted to 6s3p3d1f pattern {621111/411/111/1}

Atom   0O    basis set group =>   1
Atom   1C    basis set group =>   2
---------------------------------
AUXILIARY/J BASIS SET INFORMATION
---------------------------------
There are 2 groups of distinct atoms

 Group   1 Type O   : 12s5p4d2f1g contracted to 6s4p3d1f1g pattern {711111/2111/211/2/1}
 Group   2 Type C   : 12s5p4d2f1g contracted to 6s4p3d1f1g pattern {711111/2111/211/2/1}

Atom   0O    basis set group =>   1
Atom   1C    basis set group =>   2


           ************************************************************
           *        Program running with 28 parallel MPI-processes    *
           *              working on a common directory               *
           ************************************************************
------------------------------------------------------------------------------
                           ORCA GTO INTEGRAL CALCULATION
                           -- RI-GTO INTEGRALS CHOSEN --
------------------------------------------------------------------------------

                         BASIS SET STATISTICS AND STARTUP INFO

Gaussian basis set:
 # of primitive gaussian shells          ...   45
 # of primitive gaussian functions       ...  107
 # of contracted shells                  ...   27
 # of contracted basis functions         ...   77
 Highest angular momentum                ...    3
 Maximum contraction depth               ...    6
Auxiliary gaussian basis set:
 # of primitive gaussian shells          ...   48
 # of primitive gaussian functions       ...  140
 # of contracted shells                  ...   30
 # of contracted aux-basis functions     ...   98
 Highest angular momentum                ...    4
 Maximum contraction depth               ...    7
Ratio of auxiliary to basis functions    ...  1.27
Integral package used                  ... LIBINT
 One Electron integrals                  ... done
 Ordering auxiliary basis shells         ... done
 Integral threshhold             Thresh  ...  1.000e-10
 Primitive cut-off               TCut    ...  1.000e-11
 Pre-screening matrix                    ... done
 Shell pair data                         ... 
 Ordering of the shell pairs             ... done (   0.000 sec) 377 of 378 pairs
 Determination of significant pairs      ... done (   0.000 sec)
 Creation of shell pair data             ... done (   0.000 sec)
 Storage of shell pair data              ... done (   0.036 sec)
 Shell pair data done in (   0.037 sec)
 Computing two index integrals           ... done
 Cholesky decomposition of the V-matrix  ... done


Timings:
 Total evaluation time                   ...   0.473 sec (  0.008 min)
 One electron matrix time                ...   0.175 sec (  0.003 min) = 37.0%
 Schwartz matrix evaluation time         ...   0.108 sec (  0.002 min) = 22.8%
 Two index repulsion integral time       ...   0.033 sec (  0.001 min) =  7.0%
 Cholesky decomposition of V             ...   0.032 sec (  0.001 min) =  6.7%
 Three index repulsion integral time     ...   0.000 sec (  0.000 min) =  0.0%



           ************************************************************
           *        Program running with 28 parallel MPI-processes    *
           *              working on a common directory               *
           ************************************************************
-------------------------------------------------------------------------------
                                 ORCA SCF
-------------------------------------------------------------------------------

------------
SCF SETTINGS
------------
Hamiltonian:
 Density Functional     Method          .... DFT(GTOs)
 Exchange Functional    Exchange        .... TPSS
 Correlation Functional Correlation     .... TPSS
 LDA part of GGA corr.  LDAOpt          .... PW91-LDA
 Gradients option       PostSCFGGA      .... off
   Density functional embedding theory  .... OFF
   NL short-range parameter             ....  5.000000
 RI-approximation to the Coulomb term is turned on
   Number of auxiliary basis functions  .... 98


General Settings:
 Integral files         IntName         .... CO
 Hartree-Fock type      HFTyp           .... RHF
 Total Charge           Charge          ....    0
 Multiplicity           Mult            ....    1
 Number of Electrons    NEL             ....   14
 Basis Dimension        Dim             ....   77
 Nuclear Repulsion      ENuc            ....     22.4860845764 Eh

Convergence Acceleration:
 DIIS                   CNVDIIS         .... on
   Start iteration      DIISMaxIt       ....    12
   Startup error        DIISStart       ....  0.200000
   # of expansion vecs  DIISMaxEq       ....     5
   Bias factor          DIISBfac        ....   1.050
   Max. coefficient     DIISMaxC        ....  10.000
 Newton-Raphson         CNVNR           .... off
 SOSCF                  CNVSOSCF        .... on
   Start iteration      SOSCFMaxIt      ....   150
   Startup grad/error   SOSCFStart      ....  0.003300
 Level Shifting         CNVShift        .... on
   Level shift para.    LevelShift      ....    0.2500
   Turn off err/grad.   ShiftErr        ....    0.0010
 Zerner damping         CNVZerner       .... off
 Static damping         CNVDamp         .... on
   Fraction old density DampFac         ....    0.7000
   Max. Damping (<1)    DampMax         ....    0.9800
   Min. Damping (>=0)   DampMin         ....    0.0000
   Turn off err/grad.   DampErr         ....    0.1000
 Fernandez-Rico         CNVRico         .... off

SCF Procedure:
 Maximum # iterations   MaxIter         ....   125
 SCF integral mode      SCFMode         .... Direct
   Integral package                     .... LIBINT
 Reset frequency        DirectResetFreq ....    20
 Integral Threshold     Thresh          ....  1.000e-10 Eh
 Primitive CutOff       TCut            ....  1.000e-11 Eh

Convergence Tolerance:
 Convergence Check Mode ConvCheckMode   .... Total+1el-Energy
 Convergence forced     ConvForced      .... 0
 Energy Change          TolE            ....  1.000e-06 Eh
 1-El. energy change                    ....  1.000e-03 Eh
 Orbital Gradient       TolG            ....  5.000e-05
 Orbital Rotation angle TolX            ....  5.000e-05
 DIIS Error             TolErr          ....  1.000e-06


Diagonalization of the overlap matrix:
Smallest eigenvalue                        ... 2.171e-04
Time for diagonalization                   ...    0.002 sec
Threshold for overlap eigenvalues          ... 1.000e-08
Number of eigenvalues below threshold      ... 0
Time for construction of square roots      ...    0.117 sec
Total time needed                          ...    0.119 sec

-------------------
DFT GRID GENERATION
-------------------

General Integration Accuracy     IntAcc      ...  4.670
Radial Grid Type                 RadialGrid  ... Gauss-Chebyshev
Angular Grid (max. acc.)         AngularGrid ... Lebedev-302
Angular grid pruning method      GridPruning ... 3 (G Style)
Weight generation scheme         WeightScheme... Becke
Basis function cutoff            BFCut       ...    1.0000e-10
Integration weight cutoff        WCut        ...    1.0000e-14
Grids for H and He will be reduced by one unit

# of grid points (after initial pruning)     ...  12424 (   0.0 sec)
# of grid points (after weights+screening)   ...  12393 (   0.0 sec)
nearest neighbour list constructed           ...    0.0 sec
Grid point re-assignment to atoms done       ...    0.0 sec
Grid point division into batches done        ...    0.1 sec
Reduced shell lists constructed in    0.1 sec

Total number of grid points                  ...    12393
Total number of batches                      ...      195
Average number of points per batch           ...       63
Average number of grid points per atom       ...     6196
Average number of shells per batch           ...     7.75 (28.70%)
Average number of basis functions per batch  ...    20.00 (25.97%)
Average number of large shells per batch     ...     5.62 (72.58%)
Average number of large basis fcns per batch ...    15.38 (76.88%)
Maximum spatial batch extension              ...  16.88, 16.05, 11.99 au
Average spatial batch extension              ...   0.53,  0.52,  0.34 au

Time for grid setup =    2.732 sec

------------------------------
INITIAL GUESS: MODEL POTENTIAL
------------------------------
Loading Hartree-Fock densities                     ... done
Calculating cut-offs                               ... done
Setting up the integral package                    ... done
Initializing the effective Hamiltonian             ... done
Starting the Coulomb interaction                   ... done (   0.0 sec)
Reading the grid                                   ... done
Mapping shells                                     ... done
Starting the XC term evaluation                    ... done (   0.0 sec)
  promolecular density results
     # of electrons  =     13.999992337
     EX              =    -13.173551571
     EC              =     -0.445333524
     EX+EC           =    -13.618885095
Transforming the Hamiltonian                       ... done (   0.0 sec)
Diagonalizing the Hamiltonian                      ... done (   0.0 sec)
Back transforming the eigenvectors                 ... done (   0.0 sec)
Now organizing SCF variables                       ... done
                      ------------------
                      INITIAL GUESS DONE (   3.5 sec)
                      ------------------
--------------
SCF ITERATIONS
--------------
ITER       Energy         Delta-E        Max-DP      RMS-DP      [F,P]     Damp
               ***  Starting incremental Fock matrix formation  ***
  0   -113.3406262025   0.000000000000 0.03977993  0.00153205  0.1970063 0.7000
  1   -113.3588318832  -0.018205680681 0.01705836  0.00071656  0.0494471 0.7000
                               ***Turning on DIIS***
  2   -113.3620960245  -0.003264141302 0.03080110  0.00094545  0.0297516 0.0000
  3   -113.3745456307  -0.012449606230 0.01107660  0.00033513  0.0129844 0.0000
  4   -113.3748354469  -0.000289816242 0.00248318  0.00012759  0.0087842 0.0000
                      *** Initiating the SOSCF procedure ***
                           *** Shutting down DIIS ***
                      *** Re-Reading the Fockian *** 
                      *** Removing any level shift *** 
ITER      Energy       Delta-E        Grad      Rot      Max-DP    RMS-DP
  5   -113.37491435  -0.0000789076  0.000349  0.000349  0.001326  0.000051
               *** Restarting incremental Fock matrix formation ***
  6   -113.37491550  -0.0000011458  0.000101  0.000174  0.000321  0.000011
  7   -113.37491536   0.0000001430  0.000229  0.000191  0.000141  0.000006
  8   -113.37491557  -0.0000002083  0.000054  0.000103  0.000159  0.000006
                 **** Energy Check signals convergence ****
              ***Rediagonalizing the Fockian in SOSCF/NRSCF***

               *****************************************************
               *                     SUCCESS                       *
               *           SCF CONVERGED AFTER   9 CYCLES          *
               *****************************************************


----------------
TOTAL SCF ENERGY
----------------

Total Energy       :         -113.37491558 Eh           -3085.08830 eV

Components:
Nuclear Repulsion  :           22.48608458 Eh             611.87747 eV
Electronic Energy  :         -135.86100016 Eh           -3696.96576 eV
One Electron Energy:         -198.33806299 Eh           -5397.05307 eV
Two Electron Energy:           62.47706283 Eh            1700.08731 eV

Virial components:
Potential Energy   :         -226.36876416 Eh           -6159.80723 eV
Kinetic Energy     :          112.99384858 Eh            3074.71894 eV
Virial Ratio       :            2.00337246


DFT components:
N(Alpha)           :        6.999997637722 electrons
N(Beta)            :        6.999997637722 electrons
N(Total)           :       13.999995275443 electrons
E(X)               :      -13.465052056118 Eh       
E(C)               :       -0.453013192110 Eh       
E(XC)              :      -13.918065248228 Eh       
DFET-embed. en.    :        0.000000000000 Eh       

---------------
SCF CONVERGENCE
---------------

  Last Energy change         ...   -1.5848e-08  Tolerance :   1.0000e-06
  Last MAX-Density change    ...    6.8742e-05  Tolerance :   1.0000e-05
  Last RMS-Density change    ...    2.7922e-06  Tolerance :   1.0000e-06
  Last Orbital Gradient      ...    3.6332e-05  Tolerance :   5.0000e-05
  Last Orbital Rotation      ...    4.8038e-05  Tolerance :   5.0000e-05

             **** THE GBW FILE WAS UPDATED (CO.gbw) ****
             **** DENSITY FILE WAS UPDATED (CO.scfp) ****
             **** ENERGY FILE WAS UPDATED (CO.en.tmp) ****
             **** THE GBW FILE WAS UPDATED (CO.gbw) ****
             **** DENSITY FILE WAS UPDATED (CO.scfp) ****
----------------
ORBITAL ENERGIES
----------------

  NO   OCC          E(Eh)            E(eV) 
   0   2.0000     -18.989686      -516.7356 
   1   2.0000     -10.099573      -274.8234 
   2   2.0000      -1.094947       -29.7950 
   3   2.0000      -0.527208       -14.3461 
   4   2.0000      -0.436121       -11.8675 
   5   2.0000      -0.436121       -11.8675 
   6   2.0000      -0.340017        -9.2523 
   7   0.0000      -0.066352        -1.8055 
   8   0.0000      -0.066352        -1.8055 
   9   0.0000       0.022890         0.6229 
  10   0.0000       0.063656         1.7322 
  11   0.0000       0.063762         1.7351 
  12   0.0000       0.063762         1.7351 
  13   0.0000       0.115826         3.1518 
  14   0.0000       0.187468         5.1013 
  15   0.0000       0.187468         5.1013 
  16   0.0000       0.230790         6.2801 
  17   0.0000       0.230790         6.2801 
  18   0.0000       0.259370         7.0578 
  19   0.0000       0.315412         8.5828 
  20   0.0000       0.315412         8.5828 
  21   0.0000       0.345775         9.4090 
  22   0.0000       0.361853         9.8465 
  23   0.0000       0.414474        11.2784 
  24   0.0000       0.432657        11.7732 
  25   0.0000       0.432657        11.7732 
  26   0.0000       0.457350        12.4451 
  27   0.0000       0.457350        12.4451 
  28   0.0000       0.691445        18.8152 
  29   0.0000       0.769182        20.9305 
  30   0.0000       0.789588        21.4858 
  31   0.0000       0.789588        21.4858 
  32   0.0000       0.799461        21.7544 
  33   0.0000       0.799461        21.7544 
  34   0.0000       0.964877        26.2556 
  35   0.0000       0.981761        26.7151 
  36   0.0000       0.981761        26.7151 
  37   0.0000       1.231986        33.5240 
  38   0.0000       1.466480        39.9049 
  39   0.0000       1.523098        41.4456 
  40   0.0000       1.523098        41.4456 
  41   0.0000       1.647508        44.8310 
  42   0.0000       1.647508        44.8310 
  43   0.0000       1.826006        49.6881 
  44   0.0000       1.880595        51.1736 
  45   0.0000       1.880595        51.1736 
  46   0.0000       2.247316        61.1526 
  47   0.0000       2.615555        71.1729 
  48   0.0000       2.615555        71.1729 
  49   0.0000       2.714228        73.8579 
  50   0.0000       2.714228        73.8579 
  51   0.0000       2.811192        76.4964 
  52   0.0000       2.811193        76.4964 
  53   0.0000       3.023850        82.2831 
  54   0.0000       3.023851        82.2832 
  55   0.0000       3.029164        82.4277 
  56   0.0000       3.151423        85.7546 
  57   0.0000       3.160110        85.9910 
  58   0.0000       3.160110        85.9910 
  59   0.0000       3.647517        99.2540 
  60   0.0000       3.647517        99.2540 
  61   0.0000       4.110179       111.8437 
  62   0.0000       4.253700       115.7491 
  63   0.0000       5.061970       137.7432 
  64   0.0000       5.061970       137.7432 
  65   0.0000       5.488912       149.3609 
  66   0.0000       5.488919       149.3611 
  67   0.0000       6.174233       168.0094 
  68   0.0000       6.174233       168.0094 
  69   0.0000       6.302023       171.4868 
  70   0.0000       6.302099       171.4888 
  71   0.0000       6.475030       176.1945 
  72   0.0000       6.693717       182.1453 
  73   0.0000       6.693717       182.1453 
  74   0.0000       7.100678       193.2193 
  75   0.0000      22.027415       599.3964 
  76   0.0000      43.670343      1188.3304 

                    ********************************
                    * MULLIKEN POPULATION ANALYSIS *
                    ********************************

-----------------------
MULLIKEN ATOMIC CHARGES
-----------------------
   0 O :   -0.056646
   1 C :    0.056646
Sum of atomic charges:   -0.0000000

--------------------------------
MULLIKEN REDUCED ORBITAL CHARGES
--------------------------------
  0 O s       :     3.858172  s :     3.858172
      pz      :     1.296242  p :     4.162824
      px      :     1.433291
      py      :     1.433291
      dz2     :     0.006522  d :     0.033857
      dxz     :     0.013668
      dyz     :     0.013668
      dx2y2   :    -0.000000
      dxy     :    -0.000000
      f0      :     0.000296  f :     0.001793
      f+1     :     0.000748
      f-1     :     0.000748
      f+2     :    -0.000000
      f-2     :    -0.000000
      f+3     :     0.000000
      f-3     :     0.000000
  1 C s       :     3.817769  s :     3.817769
      pz      :     0.991044  p :     2.019951
      px      :     0.514453
      py      :     0.514453
      dz2     :     0.026452  d :     0.093070
      dxz     :     0.033309
      dyz     :     0.033309
      dx2y2   :     0.000000
      dxy     :     0.000000
      f0      :     0.003505  f :     0.012565
      f+1     :     0.004530
      f-1     :     0.004530
      f+2     :     0.000000
      f-2     :     0.000000
      f+3     :     0.000000
      f-3     :     0.000000


                     *******************************
                     * LOEWDIN POPULATION ANALYSIS *
                     *******************************

----------------------
LOEWDIN ATOMIC CHARGES
----------------------
   0 O :    0.023933
   1 C :   -0.023933

-------------------------------
LOEWDIN REDUCED ORBITAL CHARGES
-------------------------------
  0 O s       :     3.476741  s :     3.476741
      pz      :     1.685006  p :     4.310314
      px      :     1.312654
      py      :     1.312654
      dz2     :     0.138506  d :     0.182990
      dxz     :     0.022242
      dyz     :     0.022242
      dx2y2   :     0.000000
      dxy     :     0.000000
      f0      :     0.003612  f :     0.006022
      f+1     :     0.001205
      f-1     :     0.001205
      f+2     :     0.000000
      f-2     :     0.000000
      f+3     :     0.000000
      f-3     :     0.000000
  1 C s       :     3.304345  s :     3.304345
      pz      :     1.178973  p :     2.255435
      px      :     0.538231
      py      :     0.538231
      dz2     :     0.186309  d :     0.378128
      dxz     :     0.095910
      dyz     :     0.095910
      dx2y2   :     0.000000
      dxy     :     0.000000
      f0      :     0.026506  f :     0.086024
      f+1     :     0.029759
      f-1     :     0.029759
      f+2     :     0.000000
      f-2     :     0.000000
      f+3     :     0.000000
      f-3     :     0.000000


                      *****************************
                      * MAYER POPULATION ANALYSIS *
                      *****************************

  NA   - Mulliken gross atomic population
  ZA   - Total nuclear charge
  QA   - Mulliken gross atomic charge
  VA   - Mayer's total valence
  BVA  - Mayer's bonded valence
  FA   - Mayer's free valence

  ATOM       NA         ZA         QA         VA         BVA        FA
  0 O      8.0566     8.0000    -0.0566     2.3809     2.3809    -0.0000
  1 C      5.9434     6.0000     0.0566     2.3809     2.3809    -0.0000

  Mayer bond orders larger than 0.100000
B(  0-O ,  1-C ) :   2.3809 

-------
TIMINGS
-------

Total SCF time: 0 days 0 hours 2 min 19 sec 

Total time                  ....     139.262 sec
Sum of individual times     ....     138.224 sec  ( 99.3%)

Fock matrix formation       ....     133.367 sec  ( 95.8%)
  Split-RI-J                ....       1.116 sec  (  0.8% of F)
  XC integration            ....     131.085 sec  ( 98.3% of F)
    Basis function eval.    ....       0.010 sec  (  0.0% of XC)
    Density eval.           ....       0.013 sec  (  0.0% of XC)
    XC-Functional eval.     ....       0.016 sec  (  0.0% of XC)
    XC-Potential eval.      ....       0.023 sec  (  0.0% of XC)
Diagonalization             ....       0.615 sec  (  0.4%)
Density matrix formation    ....       0.098 sec  (  0.1%)
Population analysis         ....       0.378 sec  (  0.3%)
Initial guess               ....       0.806 sec  (  0.6%)
Orbital Transformation      ....       0.000 sec  (  0.0%)
Orbital Orthonormalization  ....       0.000 sec  (  0.0%)
DIIS solution               ....       0.025 sec  (  0.0%)
SOSCF solution              ....       0.203 sec  (  0.1%)
Grid generation             ....       2.732 sec  (  2.0%)


-------------------------------------------------------------------------------
                          DFT DISPERSION CORRECTION                            
                                                                               
                              DFTD3 V3.1  Rev 1                                
                          USING Becke-Johnson damping                          
-------------------------------------------------------------------------------
The TPSS functional is recognized
Active option DFTDOPT                   ...         4   

molecular C6(AA) [au] = 100.821882 


            DFT-D V3
 parameters
 s6 scaling factor         :     1.0000 
 a1 scaling factor         :     0.4535 
 s8 scaling factor         :     1.9435 
 a2 scaling factor         :     4.4752 
 ad hoc parameters k1-k3   :    16.0000     1.3333    -4.0000 

 Edisp/kcal,au: -0.317342878302  -0.000505718013 
 E6   /kcal   :  -0.155133324 
 E8   /kcal   :  -0.162209554 
 % E8         :  51.114918654 

-------------------------   ----------------
Dispersion correction           -0.000505718
-------------------------   ----------------


-------------------------   --------------------
FINAL SINGLE POINT ENERGY      -113.375421299576
-------------------------   --------------------


                            ***************************************
                            *     ORCA property calculations      *
                            ***************************************

                                    ---------------------
                                    Active property flags
                                    ---------------------
   (+) Dipole Moment


------------------------------------------------------------------------------
                       ORCA ELECTRIC PROPERTIES CALCULATION
------------------------------------------------------------------------------

Dipole Moment Calculation                       ... on
Quadrupole Moment Calculation                   ... off
Polarizability Calculation                      ... off
GBWName                                         ... CO.gbw
Electron density file                           ... CO.scfp
The origin for moment calculation is the CENTER OF MASS  = ( 0.000000,  0.000000  0.915363)

-------------
DIPOLE MOMENT
-------------
                                X             Y             Z
Electronic contribution:      0.00000      -0.00000      -0.06679
Nuclear contribution   :      0.00000       0.00000      -0.00716
                        -----------------------------------------
Total Dipole Moment    :      0.00000      -0.00000      -0.07395
                        -----------------------------------------
Magnitude (a.u.)       :      0.07395
Magnitude (Debye)      :      0.18796



--------------------
Rotational spectrum 
--------------------
 
Rotational constants in cm-1:     0.000000     1.925666     1.925666 
Rotational constants in MHz :     0.000000 57730.012385 57730.012385 

 Dipole components along the rotational axes: 
x,y,z [a.u.] :    -0.073949    -0.000000     0.000000 
x,y,z [Debye]:    -0.187964    -0.000000     0.000000 

 

Timings for individual modules:

Sum of individual times         ...      145.407 sec (=   2.423 min)
GTO integral calculation        ...        5.347 sec (=   0.089 min)   3.7 %
SCF iterations                  ...      140.060 sec (=   2.334 min)  96.3 %
                             ****ORCA TERMINATED NORMALLY****
TOTAL RUN TIME: 0 days 0 hours 3 minutes 57 seconds 80 msec
