
                                 *****************
                                 * O   R   C   A *
                                 *****************

           --- An Ab Initio, DFT and Semiempirical electronic structure package ---

                  #######################################################
                  #                        -***-                        #
                  #          Department of theory and spectroscopy      #
                  #               Directorship: Frank Neese             #
                  #        Max Planck Institute fuer Kohlenforschung    #
                  #                Kaiser Wilhelm Platz 1               #
                  #                 D-45470 Muelheim/Ruhr               #
                  #                      Germany                        #
                  #                                                     #
                  #                  All rights reserved                #
                  #                        -***-                        #
                  #######################################################


                         Program Version 4.2.0 -  RELEASE  -


 With contributions from (in alphabetic order):
   Daniel Aravena         : Magnetic Suceptibility
   Michael Atanasov       : Ab Initio Ligand Field Theory (pilot matlab implementation)
   Alexander A. Auer      : GIAO ZORA, VPT2
   Ute Becker             : Parallelization
   Giovanni Bistoni       : ED, misc. LED, open-shell LED, HFLED
   Martin Brehm           : Molecular dynamics
   Dmytro Bykov           : SCF Hessian
   Vijay G. Chilkuri      : MRCI spin determinant printing, contributions to CSF-ICE
   Dipayan Datta          : RHF DLPNO-CCSD density
   Achintya Kumar Dutta   : EOM-CC, STEOM-CC
   Dmitry Ganyushin       : Spin-Orbit,Spin-Spin,Magnetic field MRCI
   Miquel Garcia          : C-PCM Hessian, Gaussian charge scheme
   Yang Guo               : DLPNO-NEVPT2, CIM, IAO-localization
   Andreas Hansen         : Spin unrestricted coupled pair/coupled cluster methods
   Benjamin Helmich-Paris : CASSCF linear response (MC-RPA)
   Lee Huntington         : MR-EOM, pCC
   Robert Izsak           : Overlap fitted RIJCOSX, COSX-SCS-MP3, EOM
   Christian Kollmar      : KDIIS, OOCD, Brueckner-CCSD(T), CCSD density
   Simone Kossmann        : Meta GGA functionals, TD-DFT gradient, OOMP2, MP2 Hessian
   Martin Krupicka        : AUTO-CI
   Lucas Lang             : DCDCAS
   Dagmar Lenk            : GEPOL surface, SMD
   Dimitrios Liakos       : Extrapolation schemes; Compound Job, initial MDCI parallelization
   Dimitrios Manganas     : Further ROCIS development; embedding schemes
   Dimitrios Pantazis     : SARC Basis sets
   Taras Petrenko         : DFT Hessian,TD-DFT gradient, ASA, ECA, R-Raman, ABS, FL, XAS/XES, NRVS
   Peter Pinski           : DLPNO-MP2, DLPNO-MP2 Gradient
   Christoph Reimann      : Effective Core Potentials
   Marius Retegan         : Local ZFS, SOC
   Christoph Riplinger    : Optimizer, TS searches, QM/MM, DLPNO-CCSD(T), (RO)-DLPNO pert. Triples
   Tobias Risthaus        : Range-separated hybrids, TD-DFT gradient, RPA, STAB
   Michael Roemelt        : Original ROCIS implementation
   Masaaki Saitow         : Open-shell DLPNO-CCSD energy and density
   Barbara Sandhoefer     : DKH picture change effects
   Avijit Sen             : IP-ROCIS
   Kantharuban Sivalingam : CASSCF convergence, NEVPT2, FIC-MRCI
   Bernardo de Souza      : ESD, SOC TD-DFT
   Georgi Stoychev        : AutoAux, RI-MP2 NMR
   Willem Van den Heuvel  : Paramagnetic NMR
   Boris Wezisla          : Elementary symmetry handling
   Frank Wennmohs         : Technical directorship


 We gratefully acknowledge several colleagues who have allowed us to
 interface, adapt or use parts of their codes:
   Stefan Grimme, W. Hujo, H. Kruse,             : VdW corrections, initial TS optimization,
                  C. Bannwarth                     DFT functionals, gCP, sTDA/sTD-DF
   Ed Valeev, F. Pavosevic, A. Kumar             : LibInt (2-el integral package), F12 methods
   Garnet Chan, S. Sharma, J. Yang, R. Olivares  : DMRG
   Ulf Ekstrom                                   : XCFun DFT Library
   Mihaly Kallay                                 : mrcc  (arbitrary order and MRCC methods)
   Andreas Klamt, Michael Diedenhofen            : otool_cosmo (COSMO solvation model)
   Jiri Pittner, Ondrej Demel                    : Mk-CCSD
   Frank Weinhold                                : gennbo (NPA and NBO analysis)
   Christopher J. Cramer and Donald G. Truhlar   : smd solvation model
   Lars Goerigk                                  : TD-DFT with DH, B97 family of functionals
   V. Asgeirsson, H. Jonsson                     : NEB implementation
   FAccTs GmbH                                   : IRC, NEB, NEB-TS, Multilevel, MM, QM/MM, CI optimization
   S Lehtola, MJT Oliveira, MAL Marques          : LibXC Library


 Your calculation uses the libint2 library for the computation of 2-el integrals
 For citations please refer to: http://libint.valeyev.net

 Your ORCA version has been built with support for libXC version: 4.2.3
 For citations please refer to: https://tddft.org/programs/libxc/

 This ORCA versions uses:
   CBLAS   interface :  Fast vector & matrix operations
   LAPACKE interface :  Fast linear algebra routines
   SCALAPACK package :  Parallel linear algebra routines


Your calculation utilizes the atom-pairwise dispersion correction
with the Becke-Johnson damping scheme (D3BJ)
Cite in your paper:
S.Grimme, S.Ehrlich, L.Goerigk, J Comput Chem, (2011), 32, 1456–1465 
S.Grimme, J.Antony, S.Ehrlich and H.Krieg, J.Chem.Phys., 132, (2010), 154104 
   

----- Orbital basis set information -----
Your calculation utilizes the basis: def2-TZVPPD
   F. Weigend and R. Ahlrichs, Phys. Chem. Chem. Phys. 7, 3297 (2005).
   D. Rappoport and F. Furche, J. Chem. Phys. 133 134105 (2010).

----- AuxJ basis set information -----
Your calculation utilizes the auxiliary basis: def2/J
   F. Weigend, Phys. Chem. Chem. Phys. 8, 1057 (2006).

================================================================================
                                        WARNINGS
                       Please study these warnings very carefully!
================================================================================


WARNING: your system is open-shell and RHF/RKS was chosen
  ===> : WILL SWITCH to UHF/UKS


INFO   : the flag for use of LIBINT has been found!

================================================================================
                                       INPUT FILE
================================================================================
NAME = Fe.in
|  1> #
|  2> # Fe TPSS-D3BJ/Def2-TZVPPD
|  3> #
|  4> ! tpss d3bj def2-tzvppd def2/j grid4 nofinalgrid
|  5> 
|  6> *xyz 0 5
|  7> Fe         0.00000        0.00000        0.00000
|  8> *
|  9> 
| 10> %maxcore 5000
| 11> 
| 12> %pal
| 13> nprocs = 28
| 14> end
| 15> 
| 16> 
| 17>                          ****END OF INPUT****
================================================================================

                       ****************************
                       * Single Point Calculation *
                       ****************************

---------------------------------
CARTESIAN COORDINATES (ANGSTROEM)
---------------------------------
  Fe     0.000000    0.000000    0.000000

----------------------------
CARTESIAN COORDINATES (A.U.)
----------------------------
  NO LB      ZA    FRAG     MASS         X           Y           Z
   0 Fe   26.0000    0    55.850    0.000000    0.000000    0.000000

--------------------------------
INTERNAL COORDINATES (ANGSTROEM)
--------------------------------
 Fe     0   0   0     0.000000000000     0.00000000     0.00000000

---------------------------
INTERNAL COORDINATES (A.U.)
---------------------------
 Fe     0   0   0     0.000000000000     0.00000000     0.00000000

---------------------
BASIS SET INFORMATION
---------------------
There are 1 groups of distinct atoms

 Group   1 Type Fe  : 17s13p7d2f1g contracted to 6s6p4d2f1g pattern {842111/631111/4111/11/1}

Atom   0Fe   basis set group =>   1
---------------------------------
AUXILIARY/J BASIS SET INFORMATION
---------------------------------
There are 1 groups of distinct atoms

 Group   1 Type Fe  : 19s5p5d3f3g contracted to 8s5p5d2f3g pattern {121111111/11111/11111/21/111}

Atom   0Fe   basis set group =>   1


           ************************************************************
           *        Program running with 28 parallel MPI-processes    *
           *              working on a common directory               *
           ************************************************************
------------------------------------------------------------------------------
                           ORCA GTO INTEGRAL CALCULATION
                           -- RI-GTO INTEGRALS CHOSEN --
------------------------------------------------------------------------------

                         BASIS SET STATISTICS AND STARTUP INFO

Gaussian basis set:
 # of primitive gaussian shells          ...   40
 # of primitive gaussian functions       ...  114
 # of contracted shells                  ...   19
 # of contracted basis functions         ...   67
 Highest angular momentum                ...    4
 Maximum contraction depth               ...    8
Auxiliary gaussian basis set:
 # of primitive gaussian shells          ...   35
 # of primitive gaussian functions       ...  107
 # of contracted shells                  ...   23
 # of contracted aux-basis functions     ...   89
 Highest angular momentum                ...    4
 Maximum contraction depth               ...   12
Ratio of auxiliary to basis functions    ...  1.33
Integral package used                  ... LIBINT
 One Electron integrals                  ... done
 Ordering auxiliary basis shells         ... done
 Integral threshhold             Thresh  ...  1.000e-10
 Primitive cut-off               TCut    ...  1.000e-11
 Pre-screening matrix                    ... done
 Shell pair data                         ... 
 Ordering of the shell pairs             ... done (   0.000 sec) 190 of 190 pairs
 Determination of significant pairs      ... done (   0.000 sec)
 Creation of shell pair data             ... done (   0.000 sec)
 Storage of shell pair data              ... done (   0.033 sec)
 Shell pair data done in (   0.033 sec)
 Computing two index integrals           ... done
 Cholesky decomposition of the V-matrix  ... done


Timings:
 Total evaluation time                   ...   0.564 sec (  0.009 min)
 One electron matrix time                ...   0.168 sec (  0.003 min) = 29.7%
 Schwartz matrix evaluation time         ...   0.124 sec (  0.002 min) = 21.9%
 Two index repulsion integral time       ...   0.075 sec (  0.001 min) = 13.4%
 Cholesky decomposition of V             ...   0.049 sec (  0.001 min) =  8.7%
 Three index repulsion integral time     ...   0.000 sec (  0.000 min) =  0.0%



           ************************************************************
           *        Program running with 28 parallel MPI-processes    *
           *              working on a common directory               *
           ************************************************************
-------------------------------------------------------------------------------
                                 ORCA SCF
-------------------------------------------------------------------------------

------------
SCF SETTINGS
------------
Hamiltonian:
 Density Functional     Method          .... DFT(GTOs)
 Exchange Functional    Exchange        .... TPSS
 Correlation Functional Correlation     .... TPSS
 LDA part of GGA corr.  LDAOpt          .... PW91-LDA
 Gradients option       PostSCFGGA      .... off
   Density functional embedding theory  .... OFF
   NL short-range parameter             ....  5.000000
 RI-approximation to the Coulomb term is turned on
   Number of auxiliary basis functions  .... 89


General Settings:
 Integral files         IntName         .... Fe
 Hartree-Fock type      HFTyp           .... UHF
 Total Charge           Charge          ....    0
 Multiplicity           Mult            ....    5
 Number of Electrons    NEL             ....   26
 Basis Dimension        Dim             ....   67
 Nuclear Repulsion      ENuc            ....      0.0000000000 Eh

Convergence Acceleration:
 DIIS                   CNVDIIS         .... on
   Start iteration      DIISMaxIt       ....    12
   Startup error        DIISStart       ....  0.200000
   # of expansion vecs  DIISMaxEq       ....     5
   Bias factor          DIISBfac        ....   1.050
   Max. coefficient     DIISMaxC        ....  10.000
 Newton-Raphson         CNVNR           .... off
 SOSCF                  CNVSOSCF        .... off
 Level Shifting         CNVShift        .... on
   Level shift para.    LevelShift      ....    0.2500
   Turn off err/grad.   ShiftErr        ....    0.0010
 Zerner damping         CNVZerner       .... off
 Static damping         CNVDamp         .... on
   Fraction old density DampFac         ....    0.7000
   Max. Damping (<1)    DampMax         ....    0.9800
   Min. Damping (>=0)   DampMin         ....    0.0000
   Turn off err/grad.   DampErr         ....    0.1000
 Fernandez-Rico         CNVRico         .... off

SCF Procedure:
 Maximum # iterations   MaxIter         ....   125
 SCF integral mode      SCFMode         .... Direct
   Integral package                     .... LIBINT
 Reset frequency        DirectResetFreq ....    20
 Integral Threshold     Thresh          ....  1.000e-10 Eh
 Primitive CutOff       TCut            ....  1.000e-11 Eh

Convergence Tolerance:
 Convergence Check Mode ConvCheckMode   .... Total+1el-Energy
 Convergence forced     ConvForced      .... 0
 Energy Change          TolE            ....  1.000e-06 Eh
 1-El. energy change                    ....  1.000e-03 Eh
 DIIS Error             TolErr          ....  1.000e-06


Diagonalization of the overlap matrix:
Smallest eigenvalue                        ... 4.159e-02
Time for diagonalization                   ...    0.002 sec
Threshold for overlap eigenvalues          ... 1.000e-08
Number of eigenvalues below threshold      ... 0
Time for construction of square roots      ...    0.063 sec
Total time needed                          ...    0.064 sec

-------------------
DFT GRID GENERATION
-------------------

General Integration Accuracy     IntAcc      ...  4.670
Radial Grid Type                 RadialGrid  ... Gauss-Chebyshev
Angular Grid (max. acc.)         AngularGrid ... Lebedev-302
Angular grid pruning method      GridPruning ... 3 (G Style)
Weight generation scheme         WeightScheme... Becke
Basis function cutoff            BFCut       ...    1.0000e-10
Integration weight cutoff        WCut        ...    1.0000e-14
Grids for H and He will be reduced by one unit

# of grid points (after initial pruning)     ...   9640 (   0.0 sec)
# of grid points (after weights+screening)   ...   9640 (   0.0 sec)
Grid point division into batches done        ...    0.1 sec
Reduced shell lists constructed in    0.1 sec

Total number of grid points                  ...     9640
Total number of batches                      ...      151
Average number of points per batch           ...       63
Average number of grid points per atom       ...     9640
Average number of shells per batch           ...     3.43 (18.05%)
Average number of basis functions per batch  ...    10.29 (15.35%)
Average number of large shells per batch     ...     1.71 (50.00%)
Average number of large basis fcns per batch ...     3.43 (33.33%)
Maximum spatial batch extension              ...  22.27, 22.27, 22.27 au
Average spatial batch extension              ...   0.78,  0.77,  0.74 au

Time for grid setup =    2.573 sec

------------------------------
INITIAL GUESS: MODEL POTENTIAL
------------------------------
Loading Hartree-Fock densities                     ... done
Calculating cut-offs                               ... done
Setting up the integral package                    ... done
Initializing the effective Hamiltonian             ... done
Starting the Coulomb interaction                   ... done (   0.0 sec)
Reading the grid                                   ... done
Mapping shells                                     ... done
Starting the XC term evaluation                    ... done (   0.0 sec)
  promolecular density results
     # of electrons  =     25.999994076
     EX              =    -54.062020226
     EC              =     -1.134426117
     EX+EC           =    -55.196446344
Transforming the Hamiltonian                       ... done (   0.1 sec)
Diagonalizing the Hamiltonian                      ... done (   0.0 sec)
Back transforming the eigenvectors                 ... done (   0.0 sec)
Now organizing SCF variables                       ... done
                      ------------------
                      INITIAL GUESS DONE (   3.5 sec)
                      ------------------
--------------
SCF ITERATIONS
--------------
ITER       Energy         Delta-E        Max-DP      RMS-DP      [F,P]     Damp
               ***  Starting incremental Fock matrix formation  ***
  0  -1263.6412272449   0.000000000000 0.03693180  0.00116715  0.2319307 0.7000
  1  -1263.6641393904  -0.022912145462 0.02385169  0.00055562  0.0342995 0.7000
                               ***Turning on DIIS***
  2  -1263.6702089020  -0.006069511643 0.03245445  0.00107543  0.0280978 0.0000
  3  -1263.6911439486  -0.020935046589 0.01424889  0.00041077  0.0271614 0.0000
  4  -1263.6930631490  -0.001919200394 0.00926124  0.00024349  0.0135927 0.0000
  5  -1263.6941329205  -0.001069771490 0.00865932  0.00022271  0.0070083 0.0000
  6  -1263.6949237688  -0.000790848307 0.00799171  0.00019416  0.0059757 0.0000
  7  -1263.6955261921  -0.000602423338 0.00712177  0.00017582  0.0052763 0.0000
  8  -1263.6959957360  -0.000469543820 0.00701662  0.00017325  0.0043863 0.0000
  9  -1263.6963776687  -0.000381932765 0.00506705  0.00012035  0.0037907 0.0000
 10  -1263.6966187711  -0.000241102414 0.00561493  0.00014174  0.0030454 0.0000
 11  -1263.6968083210  -0.000189549886 0.00401827  0.00009581  0.0056671 0.0000
 12  -1263.6969521940  -0.000143872971 0.00339297  0.00008208  0.0025961 0.0000
 13  -1263.6970370133  -0.000084819304 0.00254131  0.00006204  0.0027361 0.0000
 14  -1263.6970935348  -0.000056521460 0.00203819  0.00005081  0.0015483 0.0000
 15  -1263.6971295586  -0.000036023812 0.00160630  0.00003896  0.0011355 0.0000
 16  -1263.6971526530  -0.000023094404 0.41812742  0.00822058  0.0009071 0.0000
 17  -1263.5702904468   0.126862206143 0.00001547  0.00000051  0.3507598 0.7000
 18  -1263.5703160971  -0.000025650215 0.00004021  0.00000097  0.3507202 0.7000
 19  -1263.5703773936  -0.000061296563 0.00013870  0.00000373  0.3506230 0.7000
               *** Restarting incremental Fock matrix formation ***
                                   *** Resetting DIIS ***
 20  -1263.5701703779   0.000207015731 0.12407566  0.00305900  0.3509747 0.7000
 21  -1263.6473046219  -0.077134244049 0.28974320  0.00624249  0.0447244 0.0000
 22  -1263.5731124734   0.074192148494 0.00736142  0.00017580  0.3757657 0.7000
 23  -1263.5874898368  -0.014377363379 0.00984047  0.00019732  0.3529523 0.7000
 24  -1263.6008750492  -0.013385212381 0.00977736  0.00018163  0.3307643 0.7000
 25  -1263.6113055646  -0.010430515409 0.00577198  0.00012361  0.3126893 0.7000
 26  -1263.6176294963  -0.006323931665 0.05307238  0.00105868  0.3013211 0.7000
 27  -1263.6626379116  -0.045008415345 0.04797037  0.00074811  0.1592453 0.7000
 28  -1263.6786175583  -0.015979646658 0.11495890  0.00170182  0.0933796 0.0000
 29  -1263.6971928114  -0.018575253084 0.00642581  0.00017984  0.0269558 0.0000
 30  -1263.6978994317  -0.000706620308 0.00404479  0.00011711  0.0104371 0.0000
 31  -1263.6980805911  -0.000181159474 0.00393782  0.00010407  0.0047622 0.0000
 32  -1263.6981884870  -0.000107895890 0.00389849  0.00010314  0.0032016 0.0000
 33  -1263.6982887269  -0.000100239834 0.00401054  0.00010693  0.0027679 0.0000
 34  -1263.6983939362  -0.000105209369 0.00416220  0.00011215  0.0025947 0.0000
 35  -1263.6985036935  -0.000109757224 0.00390015  0.00010929  0.0027390 0.0000
 36  -1263.6986100762  -0.000106382725 0.00404461  0.00011407  0.0027412 0.0000
 37  -1263.6987214202  -0.000111344018 0.00371036  0.00010805  0.0028355 0.0000
 38  -1263.6988236813  -0.000102261102 0.00405956  0.00010667  0.0026313 0.0000
 39  -1263.6988589760  -0.000035294704 0.00373171  0.00010373  0.0087512 0.0000
               *** Restarting incremental Fock matrix formation ***
                                   *** Resetting DIIS ***
 40  -1263.6989073810  -0.000048404944 0.00830297  0.00021760  0.0118464 0.0000
 41  -1263.6987585864   0.000148794568 0.00442850  0.00013547  0.0209799 0.0000
 42  -1263.6991559871  -0.000397400761 0.00350382  0.00010725  0.0033185 0.0000
 43  -1263.6992536132  -0.000097626099 0.00324987  0.00010518  0.0027251 0.0000
 44  -1263.6993446426  -0.000091029324 0.00331779  0.00010419  0.0030525 0.0000
 45  -1263.6994335931  -0.000088950483 0.00327420  0.00010071  0.0025876 0.0000
 46  -1263.6995157632  -0.000082170185 0.00385172  0.00011906  0.0021328 0.0000
 47  -1263.6995846721  -0.000068908857 0.00321462  0.00009161  0.0034343 0.0000
 48  -1263.6996555060  -0.000070833938 0.00363971  0.00010798  0.0026571 0.0000
 49  -1263.6997216629  -0.000066156856 0.00296243  0.00008463  0.0028131 0.0000
 50  -1263.6997817457  -0.000060082778 0.00359243  0.00010261  0.0021492 0.0000
 51  -1263.6998070934  -0.000025347701 0.00291615  0.00007830  0.0052496 0.0000
 52  -1263.6998765100  -0.000069416632 0.00341063  0.00010085  0.0017104 0.0000
 53  -1263.6998864730  -0.000009963024 0.00239996  0.00006730  0.0056619 0.0000
 54  -1263.6999486009  -0.000062127919 0.00294765  0.00008126  0.0020731 0.0000
 55  -1263.6999510999  -0.000002498979 0.00284396  0.00007454  0.0055464 0.0000
 56  -1263.7000008899  -0.000049790012 0.00271262  0.00008176  0.0025740 0.0000
 57  -1263.7000144153  -0.000013525366 0.00175515  0.00004864  0.0038280 0.0000
 58  -1263.7000437844  -0.000029369116 0.00214288  0.00005614  0.0017499 0.0000
 59  -1263.7000458314  -0.000002046955 0.00211218  0.00005388  0.0040817 0.0000
               *** Restarting incremental Fock matrix formation ***
                                   *** Resetting DIIS ***
 60  -1263.7000812640  -0.000035432584 0.00107816  0.00003762  0.0016927 0.0000
 61  -1263.7000891232  -0.000007859220 0.00149403  0.00003850  0.0019852 0.0000
 62  -1263.7001002916  -0.000011168432 0.00134939  0.00003408  0.0012971 0.0000
 63  -1263.7001090653  -0.000008773682 0.00133417  0.00003304  0.0010016 0.0000
 64  -1263.7001158942  -0.000006828875 0.01825803  0.00047316  0.0006534 0.0000
 65  -1263.6998635738   0.000252320322 0.00008777  0.00000200  0.0171667 0.0000
 66  -1263.6998714397  -0.000007865839 0.00009071  0.00000179  0.0169289 0.0000
 67  -1263.6998768921  -0.000005452396 0.00027305  0.00000677  0.0167729 0.0000
 68  -1263.6998505538   0.000026338292 0.00048598  0.00001061  0.0175815 0.0000
 69  -1263.6998102334   0.000040320418 0.01080860  0.00031208  0.0187277 0.0000
 70  -1263.6996278297   0.000182403631 0.00229252  0.00011061  0.0268650 0.0000
 71  -1263.7000556235  -0.000427793719 0.00219550  0.00004646  0.0107417 0.0000
 72  -1263.7001328624  -0.000077238906 0.00162223  0.00002784  0.0043484 0.0000
 73  -1263.7001444788  -0.000011616405 0.00090081  0.00001492  0.0016355 0.0000
 74  -1263.7001452760  -0.000000797251 0.00078438  0.00001788  0.0004598 0.0000
 75  -1263.7001446268   0.000000649186 0.00024931  0.00000592  0.0004741 0.0000
 76  -1263.7001460674  -0.000001440533 0.00017954  0.00000557  0.0001113 0.0000
 77  -1263.7001469591  -0.000000891700 0.00018181  0.00000461  0.0001000 0.0000
 78  -1263.7001468022   0.000000156886 0.00045104  0.00001139  0.0000556 0.0000
                 **** Energy Check signals convergence ****

               *****************************************************
               *                     SUCCESS                       *
               *           SCF CONVERGED AFTER  79 CYCLES          *
               *****************************************************


----------------
TOTAL SCF ENERGY
----------------

Total Energy       :        -1263.70014667 Eh          -34387.02919 eV

Components:
Nuclear Repulsion  :            0.00000000 Eh               0.00000 eV
Electronic Energy  :        -1263.70014667 Eh          -34387.02919 eV
One Electron Energy:        -1746.66737489 Eh          -47529.23561 eV
Two Electron Energy:          482.96722821 Eh           13142.20642 eV

Virial components:
Potential Energy   :        -2525.28232821 Eh          -68716.42563 eV
Kinetic Energy     :         1261.58218154 Eh           34329.39643 eV
Virial Ratio       :            2.00167882


DFT components:
N(Alpha)           :       15.000000441177 electrons
N(Beta)            :       11.000000470810 electrons
N(Total)           :       26.000000911987 electrons
E(X)               :      -54.563897565304 Eh       
E(C)               :       -1.125719619340 Eh       
E(XC)              :      -55.689617184644 Eh       
DFET-embed. en.    :        0.000000000000 Eh       

---------------
SCF CONVERGENCE
---------------

  Last Energy change         ...    1.2829e-07  Tolerance :   1.0000e-06
  Last MAX-Density change    ...    1.6430e-04  Tolerance :   1.0000e-05
  Last RMS-Density change    ...    4.0886e-06  Tolerance :   1.0000e-06
  Last DIIS Error            ...    1.4221e-04  Tolerance :   1.0000e-06

             **** THE GBW FILE WAS UPDATED (Fe.gbw) ****
             **** DENSITY FILE WAS UPDATED (Fe.scfp) ****
             **** ENERGY FILE WAS UPDATED (Fe.en.tmp) ****
----------------------
UHF SPIN CONTAMINATION
----------------------

Warning: in a DFT calculation there is little theoretical justification to 
         calculate <S**2> as in Hartree-Fock theory. We will do it anyways
         but you should keep in mind that the values have only limited relevance

Expectation value of <S**2>     :     6.004365
Ideal value S*(S+1) for S=2.0   :     6.000000
Deviation                       :     0.004365

             **** THE GBW FILE WAS UPDATED (Fe.gbw) ****
             **** DENSITY FILE WAS UPDATED (Fe.scfp) ****
----------------
ORBITAL ENERGIES
----------------
                 SPIN UP ORBITALS
  NO   OCC          E(Eh)            E(eV) 
   0   1.0000    -255.216721     -6944.8000 
   1   1.0000     -29.620221      -806.0072 
   2   1.0000     -25.496169      -693.7860 
   3   1.0000     -25.490346      -693.6276 
   4   1.0000     -25.490116      -693.6213 
   5   1.0000      -3.338434       -90.8434 
   6   1.0000      -2.146080       -58.3978 
   7   1.0000      -2.128215       -57.9117 
   8   1.0000      -2.127798       -57.9003 
   9   1.0000      -0.236082        -6.4241 
  10   1.0000      -0.235991        -6.4216 
  11   1.0000      -0.226271        -6.1571 
  12   1.0000      -0.215511        -5.8644 
  13   1.0000      -0.188303        -5.1240 
  14   1.0000      -0.176346        -4.7986 
  15   0.0000      -0.046860        -1.2751 
  16   0.0000      -0.037093        -1.0094 
  17   0.0000      -0.037047        -1.0081 
  18   0.0000       0.084964         2.3120 
  19   0.0000       0.092686         2.5221 
  20   0.0000       0.092721         2.5231 
  21   0.0000       0.094790         2.5794 
  22   0.0000       0.163730         4.4553 
  23   0.0000       0.164267         4.4699 
  24   0.0000       0.164279         4.4703 
  25   0.0000       0.169546         4.6136 
  26   0.0000       0.171640         4.6705 
  27   0.0000       0.506161        13.7733 
  28   0.0000       0.522557        14.2195 
  29   0.0000       0.522592        14.2205 
  30   0.0000       0.836993        22.7757 
  31   0.0000       0.837010        22.7762 
  32   0.0000       0.840715        22.8770 
  33   0.0000       0.849415        23.1138 
  34   0.0000       0.861131        23.4326 
  35   0.0000       2.262472        61.5650 
  36   0.0000       2.264043        61.6077 
  37   0.0000       2.264075        61.6086 
  38   0.0000       2.267374        61.6984 
  39   0.0000       2.276662        61.9511 
  40   0.0000       2.297470        62.5173 
  41   0.0000       2.297479        62.5176 
  42   0.0000       2.309466        62.8438 
  43   0.0000       2.334917        63.5363 
  44   0.0000       2.335044        63.5398 
  45   0.0000       2.435067        66.2615 
  46   0.0000       3.358843        91.3988 
  47   0.0000       3.358902        91.4004 
  48   0.0000       3.370981        91.7290 
  49   0.0000       3.374232        91.8175 
  50   0.0000       3.399379        92.5018 
  51   0.0000       8.417291       229.0461 
  52   0.0000       8.422943       229.1999 
  53   0.0000       8.423062       229.2032 
  54   0.0000       8.434041       229.5019 
  55   0.0000       8.439725       229.6566 
  56   0.0000       8.442765       229.7393 
  57   0.0000       8.442996       229.7456 
  58   0.0000       8.464102       230.3199 
  59   0.0000       8.466925       230.3967 
  60   0.0000       9.020528       245.4610 
  61   0.0000       9.043836       246.0953 
  62   0.0000       9.043926       246.0977 
  63   0.0000       9.052858       246.3408 
  64   0.0000       9.060004       246.5352 
  65   0.0000       9.075154       246.9475 
  66   0.0000       9.075463       246.9559 

                 SPIN DOWN ORBITALS
  NO   OCC          E(Eh)            E(eV) 
   0   1.0000    -255.215467     -6944.7659 
   1   1.0000     -29.569220      -804.6194 
   2   1.0000     -25.451298      -692.5650 
   3   1.0000     -25.450783      -692.5510 
   4   1.0000     -25.450628      -692.5468 
   5   1.0000      -3.205465       -87.2251 
   6   1.0000      -2.007682       -54.6318 
   7   1.0000      -1.996444       -54.3260 
   8   1.0000      -1.996369       -54.3240 
   9   1.0000      -0.138611        -3.7718 
  10   1.0000      -0.137613        -3.7447 
  11   0.0000      -0.122084        -3.3221 
  12   0.0000      -0.077515        -2.1093 
  13   0.0000      -0.077247        -2.1020 
  14   0.0000      -0.065992        -1.7957 
  15   0.0000      -0.017036        -0.4636 
  16   0.0000      -0.016925        -0.4606 
  17   0.0000      -0.006217        -0.1692 
  18   0.0000       0.111765         3.0413 
  19   0.0000       0.111875         3.0443 
  20   0.0000       0.121440         3.3046 
  21   0.0000       0.125815         3.4236 
  22   0.0000       0.182761         4.9732 
  23   0.0000       0.197141         5.3645 
  24   0.0000       0.197418         5.3720 
  25   0.0000       0.197601         5.3770 
  26   0.0000       0.198212         5.3936 
  27   0.0000       0.559328        15.2201 
  28   0.0000       0.559418        15.2225 
  29   0.0000       0.565858        15.3978 
  30   0.0000       0.885864        24.1056 
  31   0.0000       0.894235        24.3334 
  32   0.0000       0.921271        25.0691 
  33   0.0000       0.921438        25.0736 
  34   0.0000       0.923918        25.1411 
  35   0.0000       2.353099        64.0311 
  36   0.0000       2.353133        64.0320 
  37   0.0000       2.355987        64.1097 
  38   0.0000       2.371229        64.5244 
  39   0.0000       2.377060        64.6831 
  40   0.0000       2.377185        64.6865 
  41   0.0000       2.408012        65.5253 
  42   0.0000       2.416628        65.7598 
  43   0.0000       2.418229        65.8034 
  44   0.0000       2.418326        65.8060 
  45   0.0000       2.544077        69.2279 
  46   0.0000       3.454977        94.0147 
  47   0.0000       3.455928        94.0406 
  48   0.0000       3.491195        95.0003 
  49   0.0000       3.491435        95.0068 
  50   0.0000       3.499461        95.2252 
  51   0.0000       8.549423       232.6416 
  52   0.0000       8.550888       232.6815 
  53   0.0000       8.550991       232.6843 
  54   0.0000       8.558133       232.8786 
  55   0.0000       8.571085       233.2311 
  56   0.0000       8.571851       233.2519 
  57   0.0000       8.574768       233.3313 
  58   0.0000       8.574785       233.3318 
  59   0.0000       8.575356       233.3473 
  60   0.0000       9.203962       250.4525 
  61   0.0000       9.208028       250.5632 
  62   0.0000       9.208155       250.5666 
  63   0.0000       9.227991       251.1064 
  64   0.0000       9.238050       251.3801 
  65   0.0000       9.238138       251.3825 
  66   0.0000       9.256119       251.8718 

                    ********************************
                    * MULLIKEN POPULATION ANALYSIS *
                    ********************************

--------------------------------------------
MULLIKEN ATOMIC CHARGES AND SPIN POPULATIONS
--------------------------------------------
   0 Fe:   -0.000000    4.000000
Sum of atomic charges         :   -0.0000000
Sum of atomic spin populations:    4.0000000

-----------------------------------------------------
MULLIKEN REDUCED ORBITAL CHARGES AND SPIN POPULATIONS
-----------------------------------------------------
CHARGE
  0 Fes       :     7.324979  s :     7.324979
      pz      :     3.999959  p :    11.999820
      px      :     3.999931
      py      :     3.999931
      dz2     :     1.655710  d :     6.674968
      dxz     :     1.013647
      dyz     :     1.015196
      dx2y2   :     1.984929
      dxy     :     1.005486
      f0      :     0.000040  f :     0.000180
      f+1     :     0.000024
      f-1     :     0.000024
      f+2     :     0.000002
      f-2     :     0.000000
      f+3     :     0.000045
      f-3     :     0.000045
      g0      :     0.000011  g :     0.000052
      g+1     :     0.000002
      g-1     :     0.000002
      g+2     :     0.000012
      g-2     :     0.000003
      g+3     :     0.000002
      g-3     :     0.000002
      g+4     :     0.000018
      g-4     :     0.000000

SPIN
  0 Fes       :     0.674976  s :     0.674976
      pz      :     0.000037  p :     0.000076
      px      :     0.000019
      py      :     0.000019
      dz2     :     0.344314  d :     3.325023
      dxz     :     0.986348
      dyz     :     0.984799
      dx2y2   :     0.015053
      dxy     :     0.994507
      f0      :    -0.000035  f :    -0.000076
      f+1     :     0.000005
      f-1     :     0.000005
      f+2     :    -0.000000
      f-2     :    -0.000000
      f+3     :    -0.000025
      f-3     :    -0.000025
      g0      :    -0.000006  g :     0.000002
      g+1     :     0.000001
      g-1     :     0.000001
      g+2     :     0.000005
      g-2     :     0.000003
      g+3     :     0.000001
      g-3     :     0.000001
      g+4     :    -0.000005
      g-4     :    -0.000000


                     *******************************
                     * LOEWDIN POPULATION ANALYSIS *
                     *******************************

-------------------------------------------
LOEWDIN ATOMIC CHARGES AND SPIN POPULATIONS
-------------------------------------------
   0 Fe:   -0.000000    4.000000

----------------------------------------------------
LOEWDIN REDUCED ORBITAL CHARGES AND SPIN POPULATIONS
----------------------------------------------------
CHARGE
  0 Fes       :     7.324979  s :     7.324979
      pz      :     3.999959  p :    11.999820
      px      :     3.999931
      py      :     3.999931
      dz2     :     1.655710  d :     6.674968
      dxz     :     1.013647
      dyz     :     1.015196
      dx2y2   :     1.984929
      dxy     :     1.005486
      f0      :     0.000040  f :     0.000180
      f+1     :     0.000024
      f-1     :     0.000024
      f+2     :     0.000002
      f-2     :     0.000000
      f+3     :     0.000045
      f-3     :     0.000045
      g0      :     0.000011  g :     0.000052
      g+1     :     0.000002
      g-1     :     0.000002
      g+2     :     0.000012
      g-2     :     0.000003
      g+3     :     0.000002
      g-3     :     0.000002
      g+4     :     0.000018
      g-4     :     0.000000

SPIN
  0 Fes       :     0.674976  s :     0.674976
      pz      :     0.000037  p :     0.000076
      px      :     0.000019
      py      :     0.000019
      dz2     :     0.344314  d :     3.325023
      dxz     :     0.986348
      dyz     :     0.984799
      dx2y2   :     0.015053
      dxy     :     0.994507
      f0      :    -0.000035  f :    -0.000076
      f+1     :     0.000005
      f-1     :     0.000005
      f+2     :    -0.000000
      f-2     :    -0.000000
      f+3     :    -0.000025
      f-3     :    -0.000025
      g0      :    -0.000006  g :     0.000002
      g+1     :     0.000001
      g-1     :     0.000001
      g+2     :     0.000005
      g-2     :     0.000003
      g+3     :     0.000001
      g-3     :     0.000001
      g+4     :    -0.000005
      g-4     :    -0.000000


                      *****************************
                      * MAYER POPULATION ANALYSIS *
                      *****************************

  NA   - Mulliken gross atomic population
  ZA   - Total nuclear charge
  QA   - Mulliken gross atomic charge
  VA   - Mayer's total valence
  BVA  - Mayer's bonded valence
  FA   - Mayer's free valence

  ATOM       NA         ZA         QA         VA         BVA        FA
  0 Fe    26.0000    26.0000    -0.0000     4.0087     0.0000     4.0087

  Mayer bond orders larger than 0.100000


-------
TIMINGS
-------

Total SCF time: 0 days 0 hours 4 min 24 sec 

Total time                  ....     264.510 sec
Sum of individual times     ....     262.280 sec  ( 99.2%)

Fock matrix formation       ....     253.817 sec  ( 96.0%)
  Split-RI-J                ....       8.334 sec  (  3.3% of F)
  XC integration            ....     238.085 sec  ( 93.8% of F)
    Basis function eval.    ....       0.053 sec  (  0.0% of XC)
    Density eval.           ....       0.124 sec  (  0.1% of XC)
    XC-Functional eval.     ....       0.120 sec  (  0.1% of XC)
    XC-Potential eval.      ....       0.210 sec  (  0.1% of XC)
Diagonalization             ....       4.009 sec  (  1.5%)
Density matrix formation    ....       0.094 sec  (  0.0%)
Population analysis         ....       0.068 sec  (  0.0%)
Initial guess               ....       0.912 sec  (  0.3%)
Orbital Transformation      ....       0.000 sec  (  0.0%)
Orbital Orthonormalization  ....       0.000 sec  (  0.0%)
DIIS solution               ....       0.808 sec  (  0.3%)
Grid generation             ....       2.573 sec  (  1.0%)


-------------------------------------------------------------------------------
                          DFT DISPERSION CORRECTION                            
                                                                               
                              DFTD3 V3.1  Rev 1                                
                          USING Becke-Johnson damping                          
-------------------------------------------------------------------------------
The TPSS functional is recognized
Active option DFTDOPT                   ...         4   

molecular C6(AA) [au] = 491.327720 


            DFT-D V3
 parameters
 s6 scaling factor         :     1.0000 
 a1 scaling factor         :     0.4535 
 s8 scaling factor         :     1.9435 
 a2 scaling factor         :     4.4752 
 ad hoc parameters k1-k3   :    16.0000     1.3333    -4.0000 

 Edisp/kcal,au: -0.000000000000  -0.000000000000 
 E6   /kcal   :  -0.000000000 
 E8   /kcal   :  -0.000000000 
 % E8         :          -nan 

-------------------------   ----------------
Dispersion correction            0.000000000
-------------------------   ----------------


-------------------------   --------------------
FINAL SINGLE POINT ENERGY     -1263.700146673887
-------------------------   --------------------


                            ***************************************
                            *     ORCA property calculations      *
                            ***************************************

                                    ---------------------
                                    Active property flags
                                    ---------------------
   (+) Dipole Moment


------------------------------------------------------------------------------
                       ORCA ELECTRIC PROPERTIES CALCULATION
------------------------------------------------------------------------------

Dipole Moment Calculation                       ... on
Quadrupole Moment Calculation                   ... off
Polarizability Calculation                      ... off
GBWName                                         ... Fe.gbw
Electron density file                           ... Fe.scfp
The origin for moment calculation is the CENTER OF MASS  = ( 0.000000,  0.000000  0.000000)

-------------
DIPOLE MOMENT
-------------
                                X             Y             Z
Electronic contribution:     -0.00000      -0.00000       0.00000
Nuclear contribution   :      0.00000       0.00000       0.00000
                        -----------------------------------------
Total Dipole Moment    :     -0.00000      -0.00000       0.00000
                        -----------------------------------------
Magnitude (a.u.)       :      0.00000
Magnitude (Debye)      :      0.00000



--------------------
Rotational spectrum 
--------------------
 
Rotational constants in cm-1:     0.000000     0.000000     0.000000 
Rotational constants in MHz :     0.000000     0.000000     0.000000 

 Dipole components along the rotational axes: 
x,y,z [a.u.] :    -0.000000    -0.000000     0.000000 
x,y,z [Debye]:    -0.000000    -0.000000     0.000000 

 

Timings for individual modules:

Sum of individual times         ...      270.551 sec (=   4.509 min)
GTO integral calculation        ...        5.426 sec (=   0.090 min)   2.0 %
SCF iterations                  ...      265.125 sec (=   4.419 min)  98.0 %
                             ****ORCA TERMINATED NORMALLY****
TOTAL RUN TIME: 0 days 0 hours 4 minutes 31 seconds 439 msec
