
                                 *****************
                                 * O   R   C   A *
                                 *****************

           --- An Ab Initio, DFT and Semiempirical electronic structure package ---

                  #######################################################
                  #                        -***-                        #
                  #          Department of theory and spectroscopy      #
                  #               Directorship: Frank Neese             #
                  #        Max Planck Institute fuer Kohlenforschung    #
                  #                Kaiser Wilhelm Platz 1               #
                  #                 D-45470 Muelheim/Ruhr               #
                  #                      Germany                        #
                  #                                                     #
                  #                  All rights reserved                #
                  #                        -***-                        #
                  #######################################################


                         Program Version 4.2.0 -  RELEASE  -


 With contributions from (in alphabetic order):
   Daniel Aravena         : Magnetic Suceptibility
   Michael Atanasov       : Ab Initio Ligand Field Theory (pilot matlab implementation)
   Alexander A. Auer      : GIAO ZORA, VPT2
   Ute Becker             : Parallelization
   Giovanni Bistoni       : ED, misc. LED, open-shell LED, HFLED
   Martin Brehm           : Molecular dynamics
   Dmytro Bykov           : SCF Hessian
   Vijay G. Chilkuri      : MRCI spin determinant printing, contributions to CSF-ICE
   Dipayan Datta          : RHF DLPNO-CCSD density
   Achintya Kumar Dutta   : EOM-CC, STEOM-CC
   Dmitry Ganyushin       : Spin-Orbit,Spin-Spin,Magnetic field MRCI
   Miquel Garcia          : C-PCM Hessian, Gaussian charge scheme
   Yang Guo               : DLPNO-NEVPT2, CIM, IAO-localization
   Andreas Hansen         : Spin unrestricted coupled pair/coupled cluster methods
   Benjamin Helmich-Paris : CASSCF linear response (MC-RPA)
   Lee Huntington         : MR-EOM, pCC
   Robert Izsak           : Overlap fitted RIJCOSX, COSX-SCS-MP3, EOM
   Christian Kollmar      : KDIIS, OOCD, Brueckner-CCSD(T), CCSD density
   Simone Kossmann        : Meta GGA functionals, TD-DFT gradient, OOMP2, MP2 Hessian
   Martin Krupicka        : AUTO-CI
   Lucas Lang             : DCDCAS
   Dagmar Lenk            : GEPOL surface, SMD
   Dimitrios Liakos       : Extrapolation schemes; Compound Job, initial MDCI parallelization
   Dimitrios Manganas     : Further ROCIS development; embedding schemes
   Dimitrios Pantazis     : SARC Basis sets
   Taras Petrenko         : DFT Hessian,TD-DFT gradient, ASA, ECA, R-Raman, ABS, FL, XAS/XES, NRVS
   Peter Pinski           : DLPNO-MP2, DLPNO-MP2 Gradient
   Christoph Reimann      : Effective Core Potentials
   Marius Retegan         : Local ZFS, SOC
   Christoph Riplinger    : Optimizer, TS searches, QM/MM, DLPNO-CCSD(T), (RO)-DLPNO pert. Triples
   Tobias Risthaus        : Range-separated hybrids, TD-DFT gradient, RPA, STAB
   Michael Roemelt        : Original ROCIS implementation
   Masaaki Saitow         : Open-shell DLPNO-CCSD energy and density
   Barbara Sandhoefer     : DKH picture change effects
   Avijit Sen             : IP-ROCIS
   Kantharuban Sivalingam : CASSCF convergence, NEVPT2, FIC-MRCI
   Bernardo de Souza      : ESD, SOC TD-DFT
   Georgi Stoychev        : AutoAux, RI-MP2 NMR
   Willem Van den Heuvel  : Paramagnetic NMR
   Boris Wezisla          : Elementary symmetry handling
   Frank Wennmohs         : Technical directorship


 We gratefully acknowledge several colleagues who have allowed us to
 interface, adapt or use parts of their codes:
   Stefan Grimme, W. Hujo, H. Kruse,             : VdW corrections, initial TS optimization,
                  C. Bannwarth                     DFT functionals, gCP, sTDA/sTD-DF
   Ed Valeev, F. Pavosevic, A. Kumar             : LibInt (2-el integral package), F12 methods
   Garnet Chan, S. Sharma, J. Yang, R. Olivares  : DMRG
   Ulf Ekstrom                                   : XCFun DFT Library
   Mihaly Kallay                                 : mrcc  (arbitrary order and MRCC methods)
   Andreas Klamt, Michael Diedenhofen            : otool_cosmo (COSMO solvation model)
   Jiri Pittner, Ondrej Demel                    : Mk-CCSD
   Frank Weinhold                                : gennbo (NPA and NBO analysis)
   Christopher J. Cramer and Donald G. Truhlar   : smd solvation model
   Lars Goerigk                                  : TD-DFT with DH, B97 family of functionals
   V. Asgeirsson, H. Jonsson                     : NEB implementation
   FAccTs GmbH                                   : IRC, NEB, NEB-TS, Multilevel, MM, QM/MM, CI optimization
   S Lehtola, MJT Oliveira, MAL Marques          : LibXC Library


 Your calculation uses the libint2 library for the computation of 2-el integrals
 For citations please refer to: http://libint.valeyev.net

 Your ORCA version has been built with support for libXC version: 4.2.3
 For citations please refer to: https://tddft.org/programs/libxc/

 This ORCA versions uses:
   CBLAS   interface :  Fast vector & matrix operations
   LAPACKE interface :  Fast linear algebra routines
   SCALAPACK package :  Parallel linear algebra routines


Your calculation utilizes the atom-pairwise dispersion correction
with the Becke-Johnson damping scheme (D3BJ)
Cite in your paper:
S.Grimme, S.Ehrlich, L.Goerigk, J Comput Chem, (2011), 32, 1456–1465 
S.Grimme, J.Antony, S.Ehrlich and H.Krieg, J.Chem.Phys., 132, (2010), 154104 
   

----- Orbital basis set information -----
Your calculation utilizes the basis: def2-TZVPPD
   F. Weigend and R. Ahlrichs, Phys. Chem. Chem. Phys. 7, 3297 (2005).
   D. Rappoport and F. Furche, J. Chem. Phys. 133 134105 (2010).

----- AuxJ basis set information -----
Your calculation utilizes the auxiliary basis: def2/J
   F. Weigend, Phys. Chem. Chem. Phys. 8, 1057 (2006).

================================================================================
                                        WARNINGS
                       Please study these warnings very carefully!
================================================================================


WARNING: your system is open-shell and RHF/RKS was chosen
  ===> : WILL SWITCH to UHF/UKS


INFO   : the flag for use of LIBINT has been found!

================================================================================
                                       INPUT FILE
================================================================================
NAME = o2.in
|  1> #
|  2> # o2 TPSS-D3BJ/Def2-TZVPPD
|  3> #
|  4> ! tpss d3bj def2-tzvppd def2/j grid4 nofinalgrid
|  5> 
|  6> *xyz 0 3
|  7> O          0.00000        0.00000        0.00000
|  8> O          0.00000        0.00000        1.20780
|  9> *
| 10> 
| 11> %maxcore 5000
| 12> 
| 13> %pal
| 14> nprocs = 28
| 15> end
| 16> 
| 17> 
| 18>                          ****END OF INPUT****
================================================================================

                       ****************************
                       * Single Point Calculation *
                       ****************************

---------------------------------
CARTESIAN COORDINATES (ANGSTROEM)
---------------------------------
  O      0.000000    0.000000    0.000000
  O      0.000000    0.000000    1.207800

----------------------------
CARTESIAN COORDINATES (A.U.)
----------------------------
  NO LB      ZA    FRAG     MASS         X           Y           Z
   0 O     8.0000    0    15.999    0.000000    0.000000    0.000000
   1 O     8.0000    0    15.999    0.000000    0.000000    2.282411

--------------------------------
INTERNAL COORDINATES (ANGSTROEM)
--------------------------------
 O      0   0   0     0.000000000000     0.00000000     0.00000000
 O      1   0   0     1.207800000000     0.00000000     0.00000000

---------------------------
INTERNAL COORDINATES (A.U.)
---------------------------
 O      0   0   0     0.000000000000     0.00000000     0.00000000
 O      1   0   0     2.282411224550     0.00000000     0.00000000

---------------------
BASIS SET INFORMATION
---------------------
There are 1 groups of distinct atoms

 Group   1 Type O   : 12s7p3d1f contracted to 6s4p3d1f pattern {621111/4111/111/1}

Atom   0O    basis set group =>   1
Atom   1O    basis set group =>   1
---------------------------------
AUXILIARY/J BASIS SET INFORMATION
---------------------------------
There are 1 groups of distinct atoms

 Group   1 Type O   : 12s5p4d2f1g contracted to 6s4p3d1f1g pattern {711111/2111/211/2/1}

Atom   0O    basis set group =>   1
Atom   1O    basis set group =>   1


           ************************************************************
           *        Program running with 28 parallel MPI-processes    *
           *              working on a common directory               *
           ************************************************************
------------------------------------------------------------------------------
                           ORCA GTO INTEGRAL CALCULATION
                           -- RI-GTO INTEGRALS CHOSEN --
------------------------------------------------------------------------------

                         BASIS SET STATISTICS AND STARTUP INFO

Gaussian basis set:
 # of primitive gaussian shells          ...   46
 # of primitive gaussian functions       ...  110
 # of contracted shells                  ...   28
 # of contracted basis functions         ...   80
 Highest angular momentum                ...    3
 Maximum contraction depth               ...    6
Auxiliary gaussian basis set:
 # of primitive gaussian shells          ...   48
 # of primitive gaussian functions       ...  140
 # of contracted shells                  ...   30
 # of contracted aux-basis functions     ...   98
 Highest angular momentum                ...    4
 Maximum contraction depth               ...    7
Ratio of auxiliary to basis functions    ...  1.23
Integral package used                  ... LIBINT
 One Electron integrals                  ... done
 Ordering auxiliary basis shells         ... done
 Integral threshhold             Thresh  ...  1.000e-10
 Primitive cut-off               TCut    ...  1.000e-11
 Pre-screening matrix                    ... done
 Shell pair data                         ... 
 Ordering of the shell pairs             ... done (   0.000 sec) 405 of 406 pairs
 Determination of significant pairs      ... done (   0.000 sec)
 Creation of shell pair data             ... done (   0.000 sec)
 Storage of shell pair data              ... done (   0.050 sec)
 Shell pair data done in (   0.050 sec)
 Computing two index integrals           ... done
 Cholesky decomposition of the V-matrix  ... done


Timings:
 Total evaluation time                   ...   0.521 sec (  0.009 min)
 One electron matrix time                ...   0.175 sec (  0.003 min) = 33.5%
 Schwartz matrix evaluation time         ...   0.111 sec (  0.002 min) = 21.3%
 Two index repulsion integral time       ...   0.059 sec (  0.001 min) = 11.3%
 Cholesky decomposition of V             ...   0.045 sec (  0.001 min) =  8.6%
 Three index repulsion integral time     ...   0.000 sec (  0.000 min) =  0.0%



           ************************************************************
           *        Program running with 28 parallel MPI-processes    *
           *              working on a common directory               *
           ************************************************************
-------------------------------------------------------------------------------
                                 ORCA SCF
-------------------------------------------------------------------------------

------------
SCF SETTINGS
------------
Hamiltonian:
 Density Functional     Method          .... DFT(GTOs)
 Exchange Functional    Exchange        .... TPSS
 Correlation Functional Correlation     .... TPSS
 LDA part of GGA corr.  LDAOpt          .... PW91-LDA
 Gradients option       PostSCFGGA      .... off
   Density functional embedding theory  .... OFF
   NL short-range parameter             ....  5.000000
 RI-approximation to the Coulomb term is turned on
   Number of auxiliary basis functions  .... 98


General Settings:
 Integral files         IntName         .... o2
 Hartree-Fock type      HFTyp           .... UHF
 Total Charge           Charge          ....    0
 Multiplicity           Mult            ....    3
 Number of Electrons    NEL             ....   16
 Basis Dimension        Dim             ....   80
 Nuclear Repulsion      ENuc            ....     28.0405210558 Eh

Convergence Acceleration:
 DIIS                   CNVDIIS         .... on
   Start iteration      DIISMaxIt       ....    12
   Startup error        DIISStart       ....  0.200000
   # of expansion vecs  DIISMaxEq       ....     5
   Bias factor          DIISBfac        ....   1.050
   Max. coefficient     DIISMaxC        ....  10.000
 Newton-Raphson         CNVNR           .... off
 SOSCF                  CNVSOSCF        .... off
 Level Shifting         CNVShift        .... on
   Level shift para.    LevelShift      ....    0.2500
   Turn off err/grad.   ShiftErr        ....    0.0010
 Zerner damping         CNVZerner       .... off
 Static damping         CNVDamp         .... on
   Fraction old density DampFac         ....    0.7000
   Max. Damping (<1)    DampMax         ....    0.9800
   Min. Damping (>=0)   DampMin         ....    0.0000
   Turn off err/grad.   DampErr         ....    0.1000
 Fernandez-Rico         CNVRico         .... off

SCF Procedure:
 Maximum # iterations   MaxIter         ....   125
 SCF integral mode      SCFMode         .... Direct
   Integral package                     .... LIBINT
 Reset frequency        DirectResetFreq ....    20
 Integral Threshold     Thresh          ....  1.000e-10 Eh
 Primitive CutOff       TCut            ....  1.000e-11 Eh

Convergence Tolerance:
 Convergence Check Mode ConvCheckMode   .... Total+1el-Energy
 Convergence forced     ConvForced      .... 0
 Energy Change          TolE            ....  1.000e-06 Eh
 1-El. energy change                    ....  1.000e-03 Eh
 DIIS Error             TolErr          ....  1.000e-06


Diagonalization of the overlap matrix:
Smallest eigenvalue                        ... 2.492e-04
Time for diagonalization                   ...    0.002 sec
Threshold for overlap eigenvalues          ... 1.000e-08
Number of eigenvalues below threshold      ... 0
Time for construction of square roots      ...    0.098 sec
Total time needed                          ...    0.099 sec

-------------------
DFT GRID GENERATION
-------------------

General Integration Accuracy     IntAcc      ...  4.670
Radial Grid Type                 RadialGrid  ... Gauss-Chebyshev
Angular Grid (max. acc.)         AngularGrid ... Lebedev-302
Angular grid pruning method      GridPruning ... 3 (G Style)
Weight generation scheme         WeightScheme... Becke
Basis function cutoff            BFCut       ...    1.0000e-10
Integration weight cutoff        WCut        ...    1.0000e-14
Grids for H and He will be reduced by one unit

# of grid points (after initial pruning)     ...  12424 (   0.0 sec)
# of grid points (after weights+screening)   ...  12396 (   0.0 sec)
nearest neighbour list constructed           ...    0.0 sec
Grid point re-assignment to atoms done       ...    0.0 sec
Grid point division into batches done        ...    0.1 sec
Reduced shell lists constructed in    0.1 sec

Total number of grid points                  ...    12396
Total number of batches                      ...      194
Average number of points per batch           ...       63
Average number of grid points per atom       ...     6198
Average number of shells per batch           ...     8.00 (28.57%)
Average number of basis functions per batch  ...    21.25 (26.56%)
Average number of large shells per batch     ...     4.62 (57.81%)
Average number of large basis fcns per batch ...    13.12 (61.76%)
Maximum spatial batch extension              ...  19.94, 19.94, 11.06 au
Average spatial batch extension              ...   0.55,  0.50,  0.34 au

Time for grid setup =    2.333 sec

------------------------------
INITIAL GUESS: MODEL POTENTIAL
------------------------------
Loading Hartree-Fock densities                     ... done
Calculating cut-offs                               ... done
Setting up the integral package                    ... done
Initializing the effective Hamiltonian             ... done
Starting the Coulomb interaction                   ... done (   0.0 sec)
Reading the grid                                   ... done
Mapping shells                                     ... done
Starting the XC term evaluation                    ... done (   0.0 sec)
  promolecular density results
     # of electrons  =     15.999999817
     EX              =    -16.216225074
     EC              =     -0.534270212
     EX+EC           =    -16.750495286
Transforming the Hamiltonian                       ... done (   0.1 sec)
Diagonalizing the Hamiltonian                      ... done (   0.0 sec)
Back transforming the eigenvectors                 ... done (   0.0 sec)
Now organizing SCF variables                       ... done
                      ------------------
                      INITIAL GUESS DONE (   3.4 sec)
                      ------------------
--------------
SCF ITERATIONS
--------------
ITER       Energy         Delta-E        Max-DP      RMS-DP      [F,P]     Damp
               ***  Starting incremental Fock matrix formation  ***
  0   -150.4046018752   0.000000000000 0.00566422  0.00026394  0.0524586 0.7000
  1   -150.4073901086  -0.002788233312 0.00443829  0.00021676  0.0305379 0.7000
                               ***Turning on DIIS***
  2   -150.4091555886  -0.001765480065 0.00991297  0.00049650  0.0170427 0.0000
  3   -150.4129031296  -0.003747541014 0.00193122  0.00009668  0.0103852 0.0000
  4   -150.4131144743  -0.000211344639 0.00111299  0.00005313  0.0008811 0.0000
  5   -150.4131319092  -0.000017434911 0.00020590  0.00000808  0.0003472 0.0000
  6   -150.4131324954  -0.000000586166 0.00007180  0.00000288  0.0002061 0.0000
                 **** Energy Check signals convergence ****

               *****************************************************
               *                     SUCCESS                       *
               *           SCF CONVERGED AFTER   7 CYCLES          *
               *****************************************************


----------------
TOTAL SCF ENERGY
----------------

Total Energy       :         -150.41313261 Eh           -4092.94942 eV

Components:
Nuclear Repulsion  :           28.04052106 Eh             763.02137 eV
Electronic Energy  :         -178.45365367 Eh           -4855.97079 eV
One Electron Energy:         -261.88637450 Eh           -7126.29054 eV
Two Electron Energy:           83.43272083 Eh            2270.31975 eV

Virial components:
Potential Energy   :         -300.36893315 Eh           -8173.45420 eV
Kinetic Energy     :          149.95580053 Eh            4080.50478 eV
Virial Ratio       :            2.00304978


DFT components:
N(Alpha)           :        9.000001285229 electrons
N(Beta)            :        7.000001624402 electrons
N(Total)           :       16.000002909631 electrons
E(X)               :      -16.533003350217 Eh       
E(C)               :       -0.534298939050 Eh       
E(XC)              :      -17.067302289267 Eh       
DFET-embed. en.    :        0.000000000000 Eh       

---------------
SCF CONVERGENCE
---------------

  Last Energy change         ...   -1.1788e-07  Tolerance :   1.0000e-06
  Last MAX-Density change    ...    1.2759e-05  Tolerance :   1.0000e-05
  Last RMS-Density change    ...    4.9194e-07  Tolerance :   1.0000e-06
  Last DIIS Error            ...    2.1171e-05  Tolerance :   1.0000e-06

             **** THE GBW FILE WAS UPDATED (o2.gbw) ****
             **** DENSITY FILE WAS UPDATED (o2.scfp) ****
             **** ENERGY FILE WAS UPDATED (o2.en.tmp) ****
----------------------
UHF SPIN CONTAMINATION
----------------------

Warning: in a DFT calculation there is little theoretical justification to 
         calculate <S**2> as in Hartree-Fock theory. We will do it anyways
         but you should keep in mind that the values have only limited relevance

Expectation value of <S**2>     :     2.006146
Ideal value S*(S+1) for S=1.0   :     2.000000
Deviation                       :     0.006146

             **** THE GBW FILE WAS UPDATED (o2.gbw) ****
             **** DENSITY FILE WAS UPDATED (o2.scfp) ****
----------------
ORBITAL ENERGIES
----------------
                 SPIN UP ORBITALS
  NO   OCC          E(Eh)            E(eV) 
   0   1.0000     -19.041299      -518.1401 
   1   1.0000     -19.041253      -518.1388 
   2   1.0000      -1.226681       -33.3797 
   3   1.0000      -0.775342       -21.0981 
   4   1.0000      -0.506356       -13.7787 
   5   1.0000      -0.506356       -13.7787 
   6   1.0000      -0.500557       -13.6208 
   7   1.0000      -0.257419        -7.0047 
   8   1.0000      -0.257419        -7.0047 
   9   0.0000       0.035162         0.9568 
  10   0.0000       0.041081         1.1179 
  11   0.0000       0.064720         1.7611 
  12   0.0000       0.064721         1.7611 
  13   0.0000       0.113534         3.0894 
  14   0.0000       0.117537         3.1983 
  15   0.0000       0.117537         3.1983 
  16   0.0000       0.155531         4.2322 
  17   0.0000       0.261316         7.1108 
  18   0.0000       0.296190         8.0597 
  19   0.0000       0.296192         8.0598 
  20   0.0000       0.396030        10.7765 
  21   0.0000       0.441775        12.0213 
  22   0.0000       0.445302        12.1173 
  23   0.0000       0.445302        12.1173 
  24   0.0000       0.451730        12.2922 
  25   0.0000       0.451730        12.2922 
  26   0.0000       0.468906        12.7596 
  27   0.0000       0.468907        12.7596 
  28   0.0000       0.512089        13.9347 
  29   0.0000       0.512089        13.9347 
  30   0.0000       0.593235        16.1428 
  31   0.0000       0.756022        20.5724 
  32   0.0000       0.868150        23.6236 
  33   0.0000       0.868150        23.6236 
  34   0.0000       0.874268        23.7900 
  35   0.0000       1.186706        32.2919 
  36   0.0000       1.417965        38.5848 
  37   0.0000       1.417965        38.5848 
  38   0.0000       1.418280        38.5934 
  39   0.0000       1.418280        38.5934 
  40   0.0000       1.736328        47.2479 
  41   0.0000       1.736329        47.2479 
  42   0.0000       1.882727        51.2316 
  43   0.0000       2.077785        56.5394 
  44   0.0000       2.077785        56.5394 
  45   0.0000       2.333275        63.4916 
  46   0.0000       2.447079        66.5884 
  47   0.0000       2.447079        66.5884 
  48   0.0000       2.742888        74.6378 
  49   0.0000       2.947873        80.2157 
  50   0.0000       2.947873        80.2157 
  51   0.0000       3.053903        83.1009 
  52   0.0000       3.169130        86.2364 
  53   0.0000       4.200068       114.2897 
  54   0.0000       4.536042       123.4320 
  55   0.0000       4.536045       123.4321 
  56   0.0000       4.648020       126.4791 
  57   0.0000       4.648020       126.4791 
  58   0.0000       4.872396       132.5846 
  59   0.0000       4.872396       132.5846 
  60   0.0000       4.932807       134.2285 
  61   0.0000       5.115807       139.2082 
  62   0.0000       5.115807       139.2082 
  63   0.0000       5.659325       153.9981 
  64   0.0000       5.659328       153.9981 
  65   0.0000       6.112841       166.3389 
  66   0.0000       6.112901       166.3405 
  67   0.0000       6.211960       169.0360 
  68   0.0000       6.211960       169.0360 
  69   0.0000       6.293019       171.2418 
  70   0.0000       6.293074       171.2432 
  71   0.0000       6.418771       174.6636 
  72   0.0000       6.427388       174.8981 
  73   0.0000       6.427388       174.8981 
  74   0.0000       7.200727       195.9418 
  75   0.0000       7.200727       195.9418 
  76   0.0000       7.391797       201.1410 
  77   0.0000       8.625947       234.7240 
  78   0.0000      43.252366      1176.9567 
  79   0.0000      43.893521      1194.4034 

                 SPIN DOWN ORBITALS
  NO   OCC          E(Eh)            E(eV) 
   0   1.0000     -19.011306      -517.3239 
   1   1.0000     -19.011250      -517.3224 
   2   1.0000      -1.180743       -32.1296 
   3   1.0000      -0.702195       -19.1077 
   4   1.0000      -0.469767       -12.7830 
   5   1.0000      -0.427152       -11.6234 
   6   1.0000      -0.427152       -11.6234 
   7   0.0000      -0.157944        -4.2979 
   8   0.0000      -0.157944        -4.2979 
   9   0.0000       0.045448         1.2367 
  10   0.0000       0.050153         1.3647 
  11   0.0000       0.072683         1.9778 
  12   0.0000       0.072683         1.9778 
  13   0.0000       0.117284         3.1915 
  14   0.0000       0.128334         3.4921 
  15   0.0000       0.128334         3.4921 
  16   0.0000       0.186233         5.0677 
  17   0.0000       0.277061         7.5392 
  18   0.0000       0.307095         8.3565 
  19   0.0000       0.307096         8.3565 
  20   0.0000       0.401117        10.9149 
  21   0.0000       0.452061        12.3012 
  22   0.0000       0.460546        12.5321 
  23   0.0000       0.460546        12.5321 
  24   0.0000       0.462383        12.5821 
  25   0.0000       0.462383        12.5821 
  26   0.0000       0.483056        13.1446 
  27   0.0000       0.483058        13.1447 
  28   0.0000       0.538498        14.6533 
  29   0.0000       0.538498        14.6533 
  30   0.0000       0.612271        16.6607 
  31   0.0000       0.770849        20.9759 
  32   0.0000       0.880059        23.9476 
  33   0.0000       0.896599        24.3977 
  34   0.0000       0.896599        24.3977 
  35   0.0000       1.215002        33.0619 
  36   0.0000       1.445810        39.3425 
  37   0.0000       1.445810        39.3425 
  38   0.0000       1.466249        39.8987 
  39   0.0000       1.466249        39.8987 
  40   0.0000       1.800181        48.9854 
  41   0.0000       1.800182        48.9854 
  42   0.0000       1.911336        52.0101 
  43   0.0000       2.121239        57.7218 
  44   0.0000       2.121239        57.7218 
  45   0.0000       2.357418        64.1486 
  46   0.0000       2.520806        68.5946 
  47   0.0000       2.520806        68.5946 
  48   0.0000       2.790491        75.9331 
  49   0.0000       3.019341        82.1605 
  50   0.0000       3.019341        82.1605 
  51   0.0000       3.093455        84.1772 
  52   0.0000       3.218341        87.5755 
  53   0.0000       4.248006       115.5941 
  54   0.0000       4.587313       124.8271 
  55   0.0000       4.587318       124.8273 
  56   0.0000       4.687967       127.5661 
  57   0.0000       4.687967       127.5661 
  58   0.0000       4.946470       134.6003 
  59   0.0000       4.946470       134.6003 
  60   0.0000       4.986967       135.7023 
  61   0.0000       5.193378       141.3190 
  62   0.0000       5.193378       141.3190 
  63   0.0000       5.726527       155.8267 
  64   0.0000       5.726528       155.8267 
  65   0.0000       6.227429       169.4570 
  66   0.0000       6.227488       169.4586 
  67   0.0000       6.281555       170.9298 
  68   0.0000       6.281555       170.9298 
  69   0.0000       6.405219       174.2949 
  70   0.0000       6.405269       174.2962 
  71   0.0000       6.479126       176.3060 
  72   0.0000       6.501330       176.9102 
  73   0.0000       6.501330       176.9102 
  74   0.0000       7.262428       197.6207 
  75   0.0000       7.262428       197.6207 
  76   0.0000       7.449485       202.7108 
  77   0.0000       8.679817       236.1898 
  78   0.0000      43.290110      1177.9838 
  79   0.0000      43.930597      1195.4123 

                    ********************************
                    * MULLIKEN POPULATION ANALYSIS *
                    ********************************

--------------------------------------------
MULLIKEN ATOMIC CHARGES AND SPIN POPULATIONS
--------------------------------------------
   0 O :   -0.000000    1.000000
   1 O :    0.000000    1.000000
Sum of atomic charges         :    0.0000000
Sum of atomic spin populations:    2.0000000

-----------------------------------------------------
MULLIKEN REDUCED ORBITAL CHARGES AND SPIN POPULATIONS
-----------------------------------------------------
CHARGE
  0 O s       :     3.951941  s :     3.951941
      pz      :     1.035904  p :     4.001040
      px      :     1.482568
      py      :     1.482568
      dz2     :     0.010262  d :     0.042253
      dxz     :     0.015995
      dyz     :     0.015995
      dx2y2   :    -0.000000
      dxy     :     0.000000
      f0      :     0.001892  f :     0.004766
      f+1     :     0.001437
      f-1     :     0.001437
      f+2     :     0.000000
      f-2     :     0.000000
      f+3     :     0.000000
      f-3     :     0.000000
  1 O s       :     3.951941  s :     3.951941
      pz      :     1.035904  p :     4.001040
      px      :     1.482568
      py      :     1.482568
      dz2     :     0.010262  d :     0.042253
      dxz     :     0.015995
      dyz     :     0.015995
      dx2y2   :     0.000000
      dxy     :     0.000000
      f0      :     0.001892  f :     0.004766
      f+1     :     0.001437
      f-1     :     0.001437
      f+2     :     0.000000
      f-2     :     0.000000
      f+3     :     0.000000
      f-3     :     0.000000

SPIN
  0 O s       :     0.007827  s :     0.007827
      pz      :    -0.006371  p :     1.001857
      px      :     0.504114
      py      :     0.504114
      dz2     :    -0.001122  d :    -0.009207
      dxz     :    -0.004042
      dyz     :    -0.004042
      dx2y2   :    -0.000000
      dxy     :    -0.000000
      f0      :    -0.000333  f :    -0.000476
      f+1     :    -0.000072
      f-1     :    -0.000072
      f+2     :     0.000000
      f-2     :     0.000000
      f+3     :     0.000000
      f-3     :     0.000000
  1 O s       :     0.007827  s :     0.007827
      pz      :    -0.006371  p :     1.001857
      px      :     0.504114
      py      :     0.504114
      dz2     :    -0.001122  d :    -0.009207
      dxz     :    -0.004042
      dyz     :    -0.004042
      dx2y2   :     0.000000
      dxy     :    -0.000000
      f0      :    -0.000333  f :    -0.000476
      f+1     :    -0.000072
      f-1     :    -0.000072
      f+2     :     0.000000
      f-2     :    -0.000000
      f+3     :     0.000000
      f-3     :     0.000000


                     *******************************
                     * LOEWDIN POPULATION ANALYSIS *
                     *******************************

-------------------------------------------
LOEWDIN ATOMIC CHARGES AND SPIN POPULATIONS
-------------------------------------------
   0 O :   -0.000000    1.000000
   1 O :    0.000000    1.000000

----------------------------------------------------
LOEWDIN REDUCED ORBITAL CHARGES AND SPIN POPULATIONS
----------------------------------------------------
CHARGE
  0 O s       :     3.552035  s :     3.552035
      pz      :     1.283002  p :     4.077523
      px      :     1.397260
      py      :     1.397260
      dz2     :     0.157339  d :     0.351565
      dxz     :     0.097113
      dyz     :     0.097113
      dx2y2   :     0.000000
      dxy     :     0.000000
      f0      :     0.007624  f :     0.018878
      f+1     :     0.005627
      f-1     :     0.005627
      f+2     :     0.000000
      f-2     :     0.000000
      f+3     :     0.000000
      f-3     :     0.000000
  1 O s       :     3.552035  s :     3.552035
      pz      :     1.283002  p :     4.077523
      px      :     1.397260
      py      :     1.397260
      dz2     :     0.157339  d :     0.351565
      dxz     :     0.097113
      dyz     :     0.097113
      dx2y2   :     0.000000
      dxy     :     0.000000
      f0      :     0.007624  f :     0.018878
      f+1     :     0.005627
      f-1     :     0.005627
      f+2     :     0.000000
      f-2     :     0.000000
      f+3     :     0.000000
      f-3     :     0.000000

SPIN
  0 O s       :     0.010153  s :     0.010153
      pz      :    -0.011427  p :     0.878728
      px      :     0.445077
      py      :     0.445077
      dz2     :     0.001459  d :     0.106023
      dxz     :     0.052282
      dyz     :     0.052282
      dx2y2   :     0.000000
      dxy     :    -0.000000
      f0      :    -0.000186  f :     0.005095
      f+1     :     0.002640
      f-1     :     0.002640
      f+2     :     0.000000
      f-2     :     0.000000
      f+3     :     0.000000
      f-3     :     0.000000
  1 O s       :     0.010153  s :     0.010153
      pz      :    -0.011427  p :     0.878728
      px      :     0.445077
      py      :     0.445077
      dz2     :     0.001459  d :     0.106023
      dxz     :     0.052282
      dyz     :     0.052282
      dx2y2   :     0.000000
      dxy     :    -0.000000
      f0      :    -0.000186  f :     0.005095
      f+1     :     0.002640
      f-1     :     0.002640
      f+2     :     0.000000
      f-2     :    -0.000000
      f+3     :     0.000000
      f-3     :     0.000000


                      *****************************
                      * MAYER POPULATION ANALYSIS *
                      *****************************

  NA   - Mulliken gross atomic population
  ZA   - Total nuclear charge
  QA   - Mulliken gross atomic charge
  VA   - Mayer's total valence
  BVA  - Mayer's bonded valence
  FA   - Mayer's free valence

  ATOM       NA         ZA         QA         VA         BVA        FA
  0 O      8.0000     8.0000    -0.0000     2.1699     1.6365     0.5335
  1 O      8.0000     8.0000     0.0000     2.1699     1.6365     0.5335

  Mayer bond orders larger than 0.100000
B(  0-O ,  1-O ) :   1.6365 

-------
TIMINGS
-------

Total SCF time: 0 days 0 hours 1 min 57 sec 

Total time                  ....     117.478 sec
Sum of individual times     ....     116.303 sec  ( 99.0%)

Fock matrix formation       ....     109.425 sec  ( 93.1%)
  Split-RI-J                ....       1.417 sec  (  1.3% of F)
  XC integration            ....     106.706 sec  ( 97.5% of F)
    Basis function eval.    ....       0.008 sec  (  0.0% of XC)
    Density eval.           ....       0.019 sec  (  0.0% of XC)
    XC-Functional eval.     ....       0.014 sec  (  0.0% of XC)
    XC-Potential eval.      ....       0.040 sec  (  0.0% of XC)
Diagonalization             ....       2.160 sec  (  1.8%)
Density matrix formation    ....       0.004 sec  (  0.0%)
Population analysis         ....       1.227 sec  (  1.0%)
Initial guess               ....       1.100 sec  (  0.9%)
Orbital Transformation      ....       0.000 sec  (  0.0%)
Orbital Orthonormalization  ....       0.000 sec  (  0.0%)
DIIS solution               ....       0.055 sec  (  0.0%)
Grid generation             ....       2.333 sec  (  2.0%)


-------------------------------------------------------------------------------
                          DFT DISPERSION CORRECTION                            
                                                                               
                              DFTD3 V3.1  Rev 1                                
                          USING Becke-Johnson damping                          
-------------------------------------------------------------------------------
The TPSS functional is recognized
Active option DFTDOPT                   ...         4   

molecular C6(AA) [au] = 51.245119 


            DFT-D V3
 parameters
 s6 scaling factor         :     1.0000 
 a1 scaling factor         :     0.4535 
 s8 scaling factor         :     1.9435 
 a2 scaling factor         :     4.4752 
 ad hoc parameters k1-k3   :    16.0000     1.3333    -4.0000 

 Edisp/kcal,au: -0.202609137494  -0.000322878178 
 E6   /kcal   :  -0.105182503 
 E8   /kcal   :  -0.097426635 
 % E8         :  48.086002402 

-------------------------   ----------------
Dispersion correction           -0.000322878
-------------------------   ----------------


-------------------------   --------------------
FINAL SINGLE POINT ENERGY      -150.413455491414
-------------------------   --------------------


                            ***************************************
                            *     ORCA property calculations      *
                            ***************************************

                                    ---------------------
                                    Active property flags
                                    ---------------------
   (+) Dipole Moment


------------------------------------------------------------------------------
                       ORCA ELECTRIC PROPERTIES CALCULATION
------------------------------------------------------------------------------

Dipole Moment Calculation                       ... on
Quadrupole Moment Calculation                   ... off
Polarizability Calculation                      ... off
GBWName                                         ... o2.gbw
Electron density file                           ... o2.scfp
The origin for moment calculation is the CENTER OF MASS  = ( 0.000000,  0.000000  1.141206)

-------------
DIPOLE MOMENT
-------------
                                X             Y             Z
Electronic contribution:     -0.00000       0.00000       0.00000
Nuclear contribution   :      0.00000       0.00000       0.00000
                        -----------------------------------------
Total Dipole Moment    :     -0.00000       0.00000       0.00000
                        -----------------------------------------
Magnitude (a.u.)       :      0.00000
Magnitude (Debye)      :      0.00000



--------------------
Rotational spectrum 
--------------------
 
Rotational constants in cm-1:     0.000000     1.444588     1.444588 
Rotational constants in MHz :     0.000000 43307.659213 43307.659213 

 Dipole components along the rotational axes: 
x,y,z [a.u.] :     0.000000     0.000000    -0.000000 
x,y,z [Debye]:     0.000000     0.000000    -0.000000 

 

Timings for individual modules:

Sum of individual times         ...      123.731 sec (=   2.062 min)
GTO integral calculation        ...        5.467 sec (=   0.091 min)   4.4 %
SCF iterations                  ...      118.264 sec (=   1.971 min)  95.6 %
                             ****ORCA TERMINATED NORMALLY****
TOTAL RUN TIME: 0 days 0 hours 3 minutes 53 seconds 77 msec
