
                                 *****************
                                 * O   R   C   A *
                                 *****************

           --- An Ab Initio, DFT and Semiempirical electronic structure package ---

                  #######################################################
                  #                        -***-                        #
                  #          Department of theory and spectroscopy      #
                  #               Directorship: Frank Neese             #
                  #        Max Planck Institute fuer Kohlenforschung    #
                  #                Kaiser Wilhelm Platz 1               #
                  #                 D-45470 Muelheim/Ruhr               #
                  #                      Germany                        #
                  #                                                     #
                  #                  All rights reserved                #
                  #                        -***-                        #
                  #######################################################


                         Program Version 4.2.0 -  RELEASE  -


 With contributions from (in alphabetic order):
   Daniel Aravena         : Magnetic Suceptibility
   Michael Atanasov       : Ab Initio Ligand Field Theory (pilot matlab implementation)
   Alexander A. Auer      : GIAO ZORA, VPT2
   Ute Becker             : Parallelization
   Giovanni Bistoni       : ED, misc. LED, open-shell LED, HFLED
   Martin Brehm           : Molecular dynamics
   Dmytro Bykov           : SCF Hessian
   Vijay G. Chilkuri      : MRCI spin determinant printing, contributions to CSF-ICE
   Dipayan Datta          : RHF DLPNO-CCSD density
   Achintya Kumar Dutta   : EOM-CC, STEOM-CC
   Dmitry Ganyushin       : Spin-Orbit,Spin-Spin,Magnetic field MRCI
   Miquel Garcia          : C-PCM Hessian, Gaussian charge scheme
   Yang Guo               : DLPNO-NEVPT2, CIM, IAO-localization
   Andreas Hansen         : Spin unrestricted coupled pair/coupled cluster methods
   Benjamin Helmich-Paris : CASSCF linear response (MC-RPA)
   Lee Huntington         : MR-EOM, pCC
   Robert Izsak           : Overlap fitted RIJCOSX, COSX-SCS-MP3, EOM
   Christian Kollmar      : KDIIS, OOCD, Brueckner-CCSD(T), CCSD density
   Simone Kossmann        : Meta GGA functionals, TD-DFT gradient, OOMP2, MP2 Hessian
   Martin Krupicka        : AUTO-CI
   Lucas Lang             : DCDCAS
   Dagmar Lenk            : GEPOL surface, SMD
   Dimitrios Liakos       : Extrapolation schemes; Compound Job, initial MDCI parallelization
   Dimitrios Manganas     : Further ROCIS development; embedding schemes
   Dimitrios Pantazis     : SARC Basis sets
   Taras Petrenko         : DFT Hessian,TD-DFT gradient, ASA, ECA, R-Raman, ABS, FL, XAS/XES, NRVS
   Peter Pinski           : DLPNO-MP2, DLPNO-MP2 Gradient
   Christoph Reimann      : Effective Core Potentials
   Marius Retegan         : Local ZFS, SOC
   Christoph Riplinger    : Optimizer, TS searches, QM/MM, DLPNO-CCSD(T), (RO)-DLPNO pert. Triples
   Tobias Risthaus        : Range-separated hybrids, TD-DFT gradient, RPA, STAB
   Michael Roemelt        : Original ROCIS implementation
   Masaaki Saitow         : Open-shell DLPNO-CCSD energy and density
   Barbara Sandhoefer     : DKH picture change effects
   Avijit Sen             : IP-ROCIS
   Kantharuban Sivalingam : CASSCF convergence, NEVPT2, FIC-MRCI
   Bernardo de Souza      : ESD, SOC TD-DFT
   Georgi Stoychev        : AutoAux, RI-MP2 NMR
   Willem Van den Heuvel  : Paramagnetic NMR
   Boris Wezisla          : Elementary symmetry handling
   Frank Wennmohs         : Technical directorship


 We gratefully acknowledge several colleagues who have allowed us to
 interface, adapt or use parts of their codes:
   Stefan Grimme, W. Hujo, H. Kruse,             : VdW corrections, initial TS optimization,
                  C. Bannwarth                     DFT functionals, gCP, sTDA/sTD-DF
   Ed Valeev, F. Pavosevic, A. Kumar             : LibInt (2-el integral package), F12 methods
   Garnet Chan, S. Sharma, J. Yang, R. Olivares  : DMRG
   Ulf Ekstrom                                   : XCFun DFT Library
   Mihaly Kallay                                 : mrcc  (arbitrary order and MRCC methods)
   Andreas Klamt, Michael Diedenhofen            : otool_cosmo (COSMO solvation model)
   Jiri Pittner, Ondrej Demel                    : Mk-CCSD
   Frank Weinhold                                : gennbo (NPA and NBO analysis)
   Christopher J. Cramer and Donald G. Truhlar   : smd solvation model
   Lars Goerigk                                  : TD-DFT with DH, B97 family of functionals
   V. Asgeirsson, H. Jonsson                     : NEB implementation
   FAccTs GmbH                                   : IRC, NEB, NEB-TS, Multilevel, MM, QM/MM, CI optimization
   S Lehtola, MJT Oliveira, MAL Marques          : LibXC Library


 Your calculation uses the libint2 library for the computation of 2-el integrals
 For citations please refer to: http://libint.valeyev.net

 Your ORCA version has been built with support for libXC version: 4.2.3
 For citations please refer to: https://tddft.org/programs/libxc/

 This ORCA versions uses:
   CBLAS   interface :  Fast vector & matrix operations
   LAPACKE interface :  Fast linear algebra routines
   SCALAPACK package :  Parallel linear algebra routines


Your calculation utilizes the atom-pairwise dispersion correction
with the Becke-Johnson damping scheme (D3BJ)
Cite in your paper:
S.Grimme, S.Ehrlich, L.Goerigk, J Comput Chem, (2011), 32, 1456–1465 
S.Grimme, J.Antony, S.Ehrlich and H.Krieg, J.Chem.Phys., 132, (2010), 154104 
   

----- Orbital basis set information -----
Your calculation utilizes the basis: def2-TZVPPD
   F. Weigend and R. Ahlrichs, Phys. Chem. Chem. Phys. 7, 3297 (2005).
   D. Rappoport and F. Furche, J. Chem. Phys. 133 134105 (2010).

----- AuxJ basis set information -----
Your calculation utilizes the auxiliary basis: def2/J
   F. Weigend, Phys. Chem. Chem. Phys. 8, 1057 (2006).

================================================================================
                                        WARNINGS
                       Please study these warnings very carefully!
================================================================================


WARNING: your system is open-shell and RHF/RKS was chosen
  ===> : WILL SWITCH to UHF/UKS


INFO   : the flag for use of LIBINT has been found!

================================================================================
                                       INPUT FILE
================================================================================
NAME = s2.in
|  1> #
|  2> # s2 TPSS-D3BJ/Def2-TZVPPD
|  3> #
|  4> ! tpss d3bj def2-tzvppd def2/j grid4 nofinalgrid
|  5> 
|  6> *xyz 0 3
|  7> S          0.00000        0.00000        0.96175
|  8> S          0.00000        0.00000       -0.96175
|  9> *
| 10> 
| 11> %maxcore 5000
| 12> 
| 13> %pal
| 14> nprocs = 28
| 15> end
| 16> 
| 17> 
| 18>                          ****END OF INPUT****
================================================================================

                       ****************************
                       * Single Point Calculation *
                       ****************************

---------------------------------
CARTESIAN COORDINATES (ANGSTROEM)
---------------------------------
  S      0.000000    0.000000    0.961750
  S      0.000000    0.000000   -0.961750

----------------------------
CARTESIAN COORDINATES (A.U.)
----------------------------
  NO LB      ZA    FRAG     MASS         X           Y           Z
   0 S    16.0000    0    32.060    0.000000    0.000000    1.817444
   1 S    16.0000    0    32.060    0.000000    0.000000   -1.817444

--------------------------------
INTERNAL COORDINATES (ANGSTROEM)
--------------------------------
 S      0   0   0     0.000000000000     0.00000000     0.00000000
 S      1   0   0     1.923500000000     0.00000000     0.00000000

---------------------------
INTERNAL COORDINATES (A.U.)
---------------------------
 S      0   0   0     0.000000000000     0.00000000     0.00000000
 S      1   0   0     3.634888218598     0.00000000     0.00000000

---------------------
BASIS SET INFORMATION
---------------------
There are 1 groups of distinct atoms

 Group   1 Type S   : 15s10p4d1f contracted to 6s6p4d1f pattern {732111/511111/1111/1}

Atom   0S    basis set group =>   1
Atom   1S    basis set group =>   1
---------------------------------
AUXILIARY/J BASIS SET INFORMATION
---------------------------------
There are 1 groups of distinct atoms

 Group   1 Type S   : 14s5p5d2f1g contracted to 8s4p3d1f1g pattern {71111111/2111/311/2/1}

Atom   0S    basis set group =>   1
Atom   1S    basis set group =>   1


           ************************************************************
           *        Program running with 28 parallel MPI-processes    *
           *              working on a common directory               *
           ************************************************************
------------------------------------------------------------------------------
                           ORCA GTO INTEGRAL CALCULATION
                           -- RI-GTO INTEGRALS CHOSEN --
------------------------------------------------------------------------------

                         BASIS SET STATISTICS AND STARTUP INFO

Gaussian basis set:
 # of primitive gaussian shells          ...   60
 # of primitive gaussian functions       ...  144
 # of contracted shells                  ...   34
 # of contracted basis functions         ...  102
 Highest angular momentum                ...    3
 Maximum contraction depth               ...    7
Auxiliary gaussian basis set:
 # of primitive gaussian shells          ...   54
 # of primitive gaussian functions       ...  154
 # of contracted shells                  ...   34
 # of contracted aux-basis functions     ...  102
 Highest angular momentum                ...    4
 Maximum contraction depth               ...    7
Ratio of auxiliary to basis functions    ...  1.00
Integral package used                  ... LIBINT
 One Electron integrals                  ... done
 Ordering auxiliary basis shells         ... done
 Integral threshhold             Thresh  ...  1.000e-10
 Primitive cut-off               TCut    ...  1.000e-11
 Pre-screening matrix                    ... done
 Shell pair data                         ... 
 Ordering of the shell pairs             ... done (   0.000 sec) 582 of 595 pairs
 Determination of significant pairs      ... done (   0.000 sec)
 Creation of shell pair data             ... done (   0.000 sec)
 Storage of shell pair data              ... done (   0.049 sec)
 Shell pair data done in (   0.050 sec)
 Computing two index integrals           ... done
 Cholesky decomposition of the V-matrix  ... done


Timings:
 Total evaluation time                   ...   0.448 sec (  0.007 min)
 One electron matrix time                ...   0.157 sec (  0.003 min) = 34.9%
 Schwartz matrix evaluation time         ...   0.110 sec (  0.002 min) = 24.6%
 Two index repulsion integral time       ...   0.051 sec (  0.001 min) = 11.3%
 Cholesky decomposition of V             ...   0.031 sec (  0.001 min) =  6.8%
 Three index repulsion integral time     ...   0.000 sec (  0.000 min) =  0.0%



           ************************************************************
           *        Program running with 28 parallel MPI-processes    *
           *              working on a common directory               *
           ************************************************************
-------------------------------------------------------------------------------
                                 ORCA SCF
-------------------------------------------------------------------------------

------------
SCF SETTINGS
------------
Hamiltonian:
 Density Functional     Method          .... DFT(GTOs)
 Exchange Functional    Exchange        .... TPSS
 Correlation Functional Correlation     .... TPSS
 LDA part of GGA corr.  LDAOpt          .... PW91-LDA
 Gradients option       PostSCFGGA      .... off
   Density functional embedding theory  .... OFF
   NL short-range parameter             ....  5.000000
 RI-approximation to the Coulomb term is turned on
   Number of auxiliary basis functions  .... 102


General Settings:
 Integral files         IntName         .... s2
 Hartree-Fock type      HFTyp           .... UHF
 Total Charge           Charge          ....    0
 Multiplicity           Mult            ....    3
 Number of Electrons    NEL             ....   32
 Basis Dimension        Dim             ....  102
 Nuclear Repulsion      ENuc            ....     70.4285756822 Eh

Convergence Acceleration:
 DIIS                   CNVDIIS         .... on
   Start iteration      DIISMaxIt       ....    12
   Startup error        DIISStart       ....  0.200000
   # of expansion vecs  DIISMaxEq       ....     5
   Bias factor          DIISBfac        ....   1.050
   Max. coefficient     DIISMaxC        ....  10.000
 Newton-Raphson         CNVNR           .... off
 SOSCF                  CNVSOSCF        .... off
 Level Shifting         CNVShift        .... on
   Level shift para.    LevelShift      ....    0.2500
   Turn off err/grad.   ShiftErr        ....    0.0010
 Zerner damping         CNVZerner       .... off
 Static damping         CNVDamp         .... on
   Fraction old density DampFac         ....    0.7000
   Max. Damping (<1)    DampMax         ....    0.9800
   Min. Damping (>=0)   DampMin         ....    0.0000
   Turn off err/grad.   DampErr         ....    0.1000
 Fernandez-Rico         CNVRico         .... off

SCF Procedure:
 Maximum # iterations   MaxIter         ....   125
 SCF integral mode      SCFMode         .... Direct
   Integral package                     .... LIBINT
 Reset frequency        DirectResetFreq ....    20
 Integral Threshold     Thresh          ....  1.000e-10 Eh
 Primitive CutOff       TCut            ....  1.000e-11 Eh

Convergence Tolerance:
 Convergence Check Mode ConvCheckMode   .... Total+1el-Energy
 Convergence forced     ConvForced      .... 0
 Energy Change          TolE            ....  1.000e-06 Eh
 1-El. energy change                    ....  1.000e-03 Eh
 DIIS Error             TolErr          ....  1.000e-06


Diagonalization of the overlap matrix:
Smallest eigenvalue                        ... 7.821e-04
Time for diagonalization                   ...    0.002 sec
Threshold for overlap eigenvalues          ... 1.000e-08
Number of eigenvalues below threshold      ... 0
Time for construction of square roots      ...    0.067 sec
Total time needed                          ...    0.069 sec

-------------------
DFT GRID GENERATION
-------------------

General Integration Accuracy     IntAcc      ...  4.670
Radial Grid Type                 RadialGrid  ... Gauss-Chebyshev
Angular Grid (max. acc.)         AngularGrid ... Lebedev-302
Angular grid pruning method      GridPruning ... 3 (G Style)
Weight generation scheme         WeightScheme... Becke
Basis function cutoff            BFCut       ...    1.0000e-10
Integration weight cutoff        WCut        ...    1.0000e-14
Grids for H and He will be reduced by one unit

# of grid points (after initial pruning)     ...  13692 (   0.0 sec)
# of grid points (after weights+screening)   ...  13666 (   0.0 sec)
nearest neighbour list constructed           ...    0.0 sec
Grid point re-assignment to atoms done       ...    0.0 sec
Grid point division into batches done        ...    0.1 sec
Reduced shell lists constructed in    0.1 sec

Total number of grid points                  ...    13666
Total number of batches                      ...      214
Average number of points per batch           ...       63
Average number of grid points per atom       ...     6833
Average number of shells per batch           ...     8.11 (23.86%)
Average number of basis functions per batch  ...    21.67 (21.24%)
Average number of large shells per batch     ...     6.33 (78.08%)
Average number of large basis fcns per batch ...    19.00 (87.69%)
Maximum spatial batch extension              ...  19.50, 19.55, 13.50 au
Average spatial batch extension              ...   0.59,  0.57,  0.41 au

Time for grid setup =    2.471 sec

------------------------------
INITIAL GUESS: MODEL POTENTIAL
------------------------------
Loading Hartree-Fock densities                     ... done
Calculating cut-offs                               ... done
Setting up the integral package                    ... done
Initializing the effective Hamiltonian             ... done
Starting the Coulomb interaction                   ... done (   0.0 sec)
Reading the grid                                   ... done
Mapping shells                                     ... done
Starting the XC term evaluation                    ... done (   0.0 sec)
  promolecular density results
     # of electrons  =     32.000015260
     EX              =    -49.739420575
     EC              =     -1.226522955
     EX+EC           =    -50.965943530
Transforming the Hamiltonian                       ... done (   0.2 sec)
Diagonalizing the Hamiltonian                      ... done (   0.0 sec)
Back transforming the eigenvectors                 ... done (   0.0 sec)
Now organizing SCF variables                       ... done
                      ------------------
                      INITIAL GUESS DONE (   3.3 sec)
                      ------------------
--------------
SCF ITERATIONS
--------------
ITER       Energy         Delta-E        Max-DP      RMS-DP      [F,P]     Damp
               ***  Starting incremental Fock matrix formation  ***
  0   -796.4395721552   0.000000000000 0.01210934  0.00024369  0.0389164 0.7000
  1   -796.4417498039  -0.002177648759 0.00940552  0.00018769  0.0272819 0.7000
                               ***Turning on DIIS***
  2   -796.4429368582  -0.001187054304 0.01956646  0.00039276  0.0191041 0.0000
  3   -796.4452416665  -0.002304808313 0.00398605  0.00009775  0.0092556 0.0000
  4   -796.4455957205  -0.000354053929 0.00101539  0.00003415  0.0012630 0.0000
  5   -796.4456232039  -0.000027483448 0.00089495  0.00002330  0.0002206 0.0000
  6   -796.4456298247  -0.000006620792 0.00015114  0.00000408  0.0000288 0.0000
                 **** Energy Check signals convergence ****

               *****************************************************
               *                     SUCCESS                       *
               *           SCF CONVERGED AFTER   7 CYCLES          *
               *****************************************************


----------------
TOTAL SCF ENERGY
----------------

Total Energy       :         -796.44563000 Eh          -21672.38740 eV

Components:
Nuclear Repulsion  :           70.42857568 Eh            1916.45898 eV
Electronic Energy  :         -866.87420568 Eh          -23588.84637 eV
One Electron Energy:        -1239.76509358 Eh          -33735.72329 eV
Two Electron Energy:          372.89088790 Eh           10146.87692 eV

Virial components:
Potential Energy   :        -1591.34260956 Eh          -43302.63387 eV
Kinetic Energy     :          794.89697957 Eh           21630.24647 eV
Virial Ratio       :            2.00194824


DFT components:
N(Alpha)           :       17.000005340755 electrons
N(Beta)            :       15.000005261436 electrons
N(Total)           :       32.000010602192 electrons
E(X)               :      -50.158349977342 Eh       
E(C)               :       -1.230794086086 Eh       
E(XC)              :      -51.389144063428 Eh       
DFET-embed. en.    :        0.000000000000 Eh       

---------------
SCF CONVERGENCE
---------------

  Last Energy change         ...   -1.7060e-07  Tolerance :   1.0000e-06
  Last MAX-Density change    ...    2.3695e-05  Tolerance :   1.0000e-05
  Last RMS-Density change    ...    6.6941e-07  Tolerance :   1.0000e-06
  Last DIIS Error            ...    7.4653e-06  Tolerance :   1.0000e-06

             **** THE GBW FILE WAS UPDATED (s2.gbw) ****
             **** DENSITY FILE WAS UPDATED (s2.scfp) ****
             **** ENERGY FILE WAS UPDATED (s2.en.tmp) ****
----------------------
UHF SPIN CONTAMINATION
----------------------

Warning: in a DFT calculation there is little theoretical justification to 
         calculate <S**2> as in Hartree-Fock theory. We will do it anyways
         but you should keep in mind that the values have only limited relevance

Expectation value of <S**2>     :     2.006951
Ideal value S*(S+1) for S=1.0   :     2.000000
Deviation                       :     0.006951

             **** THE GBW FILE WAS UPDATED (s2.gbw) ****
             **** DENSITY FILE WAS UPDATED (s2.scfp) ****
----------------
ORBITAL ENERGIES
----------------
                 SPIN UP ORBITALS
  NO   OCC          E(Eh)            E(eV) 
   0   1.0000     -88.409743     -2405.7514 
   1   1.0000     -88.409731     -2405.7511 
   2   1.0000      -7.787472      -211.9079 
   3   1.0000      -7.787382      -211.9054 
   4   1.0000      -5.765376      -156.8838 
   5   1.0000      -5.764835      -156.8691 
   6   1.0000      -5.764835      -156.8691 
   7   1.0000      -5.764791      -156.8679 
   8   1.0000      -5.764791      -156.8679 
   9   1.0000      -5.764741      -156.8666 
  10   1.0000      -0.774713       -21.0810 
  11   1.0000      -0.588912       -16.0251 
  12   1.0000      -0.368310       -10.0222 
  13   1.0000      -0.342331        -9.3153 
  14   1.0000      -0.342331        -9.3153 
  15   1.0000      -0.221935        -6.0392 
  16   1.0000      -0.221935        -6.0392 
  17   0.0000      -0.049793        -1.3549 
  18   0.0000       0.013751         0.3742 
  19   0.0000       0.028537         0.7765 
  20   0.0000       0.028537         0.7765 
  21   0.0000       0.031107         0.8465 
  22   0.0000       0.040960         1.1146 
  23   0.0000       0.059655         1.6233 
  24   0.0000       0.059655         1.6233 
  25   0.0000       0.080183         2.1819 
  26   0.0000       0.080183         2.1819 
  27   0.0000       0.125030         3.4022 
  28   0.0000       0.125030         3.4022 
  29   0.0000       0.147924         4.0252 
  30   0.0000       0.178312         4.8521 
  31   0.0000       0.178315         4.8522 
  32   0.0000       0.181195         4.9306 
  33   0.0000       0.232440         6.3250 
  34   0.0000       0.236409         6.4330 
  35   0.0000       0.236409         6.4330 
  36   0.0000       0.329491         8.9659 
  37   0.0000       0.329491         8.9659 
  38   0.0000       0.360457         9.8085 
  39   0.0000       0.377803        10.2806 
  40   0.0000       0.377803        10.2806 
  41   0.0000       0.386219        10.5096 
  42   0.0000       0.386228        10.5098 
  43   0.0000       0.457882        12.4596 
  44   0.0000       0.457888        12.4598 
  45   0.0000       0.497142        13.5279 
  46   0.0000       0.497142        13.5279 
  47   0.0000       0.519251        14.1295 
  48   0.0000       0.524374        14.2689 
  49   0.0000       0.580526        15.7969 
  50   0.0000       0.580526        15.7969 
  51   0.0000       0.671327        18.2677 
  52   0.0000       0.703911        19.1544 
  53   0.0000       1.087273        29.5862 
  54   0.0000       1.383841        37.6562 
  55   0.0000       1.383841        37.6562 
  56   0.0000       1.409812        38.3629 
  57   0.0000       1.439494        39.1706 
  58   0.0000       1.439494        39.1706 
  59   0.0000       1.500661        40.8351 
  60   0.0000       1.500701        40.8362 
  61   0.0000       1.524892        41.4944 
  62   0.0000       1.524940        41.4957 
  63   0.0000       1.533134        41.7187 
  64   0.0000       1.533134        41.7187 
  65   0.0000       1.536013        41.7970 
  66   0.0000       1.536013        41.7970 
  67   0.0000       1.570804        42.7438 
  68   0.0000       1.615096        43.9490 
  69   0.0000       1.615096        43.9490 
  70   0.0000       1.626518        44.2598 
  71   0.0000       1.626518        44.2598 
  72   0.0000       1.807404        49.1820 
  73   0.0000       1.807404        49.1820 
  74   0.0000       1.808618        49.2150 
  75   0.0000       1.869827        50.8806 
  76   0.0000       1.869842        50.8810 
  77   0.0000       1.904782        51.8317 
  78   0.0000       1.904782        51.8317 
  79   0.0000       1.956429        53.2371 
  80   0.0000       2.401228        65.3407 
  81   0.0000       2.465847        67.0991 
  82   0.0000       2.465847        67.0991 
  83   0.0000       3.013532        82.0024 
  84   0.0000       6.599076       179.5700 
  85   0.0000       6.599092       179.5704 
  86   0.0000       6.629501       180.3979 
  87   0.0000       6.629517       180.3983 
  88   0.0000       6.633908       180.5178 
  89   0.0000       6.633908       180.5178 
  90   0.0000       6.651198       180.9883 
  91   0.0000       6.651198       180.9883 
  92   0.0000       6.652965       181.0364 
  93   0.0000       6.861650       186.7150 
  94   0.0000       8.715601       237.1636 
  95   0.0000       8.715601       237.1636 
  96   0.0000       8.846756       240.7325 
  97   0.0000       8.846756       240.7325 
  98   0.0000       9.001942       244.9553 
  99   0.0000       9.122107       248.2252 
 100   0.0000      18.189876       494.9717 
 101   0.0000      18.884240       513.8663 

                 SPIN DOWN ORBITALS
  NO   OCC          E(Eh)            E(eV) 
   0   1.0000     -88.403869     -2405.5916 
   1   1.0000     -88.403856     -2405.5912 
   2   1.0000      -7.782579      -211.7747 
   3   1.0000      -7.782484      -211.7722 
   4   1.0000      -5.762514      -156.8060 
   5   1.0000      -5.761874      -156.7886 
   6   1.0000      -5.755362      -156.6114 
   7   1.0000      -5.755362      -156.6114 
   8   1.0000      -5.755316      -156.6101 
   9   1.0000      -5.755316      -156.6101 
  10   1.0000      -0.751209       -20.4414 
  11   1.0000      -0.541846       -14.7444 
  12   1.0000      -0.348933        -9.4950 
  13   1.0000      -0.303602        -8.2614 
  14   1.0000      -0.303602        -8.2614 
  15   0.0000      -0.167054        -4.5458 
  16   0.0000      -0.167054        -4.5458 
  17   0.0000      -0.033715        -0.9174 
  18   0.0000       0.022554         0.6137 
  19   0.0000       0.035399         0.9633 
  20   0.0000       0.035399         0.9633 
  21   0.0000       0.039266         1.0685 
  22   0.0000       0.046885         1.2758 
  23   0.0000       0.069107         1.8805 
  24   0.0000       0.069107         1.8805 
  25   0.0000       0.098885         2.6908 
  26   0.0000       0.098887         2.6908 
  27   0.0000       0.141784         3.8581 
  28   0.0000       0.141784         3.8581 
  29   0.0000       0.157022         4.2728 
  30   0.0000       0.191868         5.2210 
  31   0.0000       0.200485         5.4555 
  32   0.0000       0.200485         5.4555 
  33   0.0000       0.241108         6.5609 
  34   0.0000       0.248369         6.7585 
  35   0.0000       0.248369         6.7585 
  36   0.0000       0.341040         9.2802 
  37   0.0000       0.341040         9.2802 
  38   0.0000       0.369957        10.0671 
  39   0.0000       0.398815        10.8523 
  40   0.0000       0.398816        10.8523 
  41   0.0000       0.419084        11.4039 
  42   0.0000       0.419087        11.4039 
  43   0.0000       0.501335        13.6420 
  44   0.0000       0.501336        13.6421 
  45   0.0000       0.519227        14.1289 
  46   0.0000       0.519227        14.1289 
  47   0.0000       0.531433        14.4610 
  48   0.0000       0.536066        14.5871 
  49   0.0000       0.608537        16.5591 
  50   0.0000       0.608537        16.5591 
  51   0.0000       0.695448        18.9241 
  52   0.0000       0.725416        19.7396 
  53   0.0000       1.108514        30.1642 
  54   0.0000       1.417068        38.5604 
  55   0.0000       1.417073        38.5605 
  56   0.0000       1.429064        38.8868 
  57   0.0000       1.462614        39.7997 
  58   0.0000       1.462614        39.7997 
  59   0.0000       1.533387        41.7256 
  60   0.0000       1.533423        41.7266 
  61   0.0000       1.557689        42.3869 
  62   0.0000       1.557689        42.3869 
  63   0.0000       1.559785        42.4439 
  64   0.0000       1.559828        42.4451 
  65   0.0000       1.584869        43.1265 
  66   0.0000       1.584869        43.1265 
  67   0.0000       1.586300        43.1654 
  68   0.0000       1.638277        44.5798 
  69   0.0000       1.638277        44.5798 
  70   0.0000       1.678003        45.6608 
  71   0.0000       1.678003        45.6608 
  72   0.0000       1.825838        49.6836 
  73   0.0000       1.836773        49.9811 
  74   0.0000       1.836773        49.9811 
  75   0.0000       1.908759        51.9400 
  76   0.0000       1.908781        51.9406 
  77   0.0000       1.933076        52.6017 
  78   0.0000       1.933076        52.6017 
  79   0.0000       1.979800        53.8731 
  80   0.0000       2.421293        65.8867 
  81   0.0000       2.498370        67.9841 
  82   0.0000       2.498370        67.9841 
  83   0.0000       3.040321        82.7313 
  84   0.0000       6.615543       180.0181 
  85   0.0000       6.615568       180.0187 
  86   0.0000       6.644560       180.8077 
  87   0.0000       6.644560       180.8077 
  88   0.0000       6.646350       180.8564 
  89   0.0000       6.646374       180.8570 
  90   0.0000       6.661902       181.2796 
  91   0.0000       6.661902       181.2796 
  92   0.0000       6.662474       181.2951 
  93   0.0000       6.872320       187.0053 
  94   0.0000       8.736660       237.7366 
  95   0.0000       8.736660       237.7366 
  96   0.0000       8.868306       241.3189 
  97   0.0000       8.868306       241.3189 
  98   0.0000       9.014482       245.2965 
  99   0.0000       9.134404       248.5598 
 100   0.0000      18.203139       495.3326 
 101   0.0000      18.898431       514.2525 

                    ********************************
                    * MULLIKEN POPULATION ANALYSIS *
                    ********************************

--------------------------------------------
MULLIKEN ATOMIC CHARGES AND SPIN POPULATIONS
--------------------------------------------
   0 S :   -0.000000    1.000000
   1 S :    0.000000    1.000000
Sum of atomic charges         :   -0.0000000
Sum of atomic spin populations:    2.0000000

-----------------------------------------------------
MULLIKEN REDUCED ORBITAL CHARGES AND SPIN POPULATIONS
-----------------------------------------------------
CHARGE
  0 S s       :     5.956498  s :     5.956498
      pz      :     3.013271  p :     9.919985
      px      :     3.453357
      py      :     3.453357
      dz2     :     0.026773  d :     0.112907
      dxz     :     0.043067
      dyz     :     0.043067
      dx2y2   :     0.000000
      dxy     :     0.000000
      f0      :     0.003459  f :     0.010611
      f+1     :     0.003576
      f-1     :     0.003576
      f+2     :     0.000000
      f-2     :     0.000000
      f+3     :     0.000000
      f-3     :     0.000000
  1 S s       :     5.956498  s :     5.956498
      pz      :     3.013271  p :     9.919985
      px      :     3.453357
      py      :     3.453357
      dz2     :     0.026773  d :     0.112907
      dxz     :     0.043067
      dyz     :     0.043067
      dx2y2   :     0.000000
      dxy     :     0.000000
      f0      :     0.003459  f :     0.010611
      f+1     :     0.003576
      f-1     :     0.003576
      f+2     :     0.000000
      f-2     :     0.000000
      f+3     :     0.000000
      f-3     :     0.000000

SPIN
  0 S s       :     0.002277  s :     0.002277
      pz      :    -0.001290  p :     0.991160
      px      :     0.496225
      py      :     0.496225
      dz2     :    -0.000260  d :     0.008037
      dxz     :     0.004149
      dyz     :     0.004149
      dx2y2   :     0.000000
      dxy     :     0.000000
      f0      :    -0.000726  f :    -0.001473
      f+1     :    -0.000374
      f-1     :    -0.000374
      f+2     :    -0.000000
      f-2     :     0.000000
      f+3     :    -0.000000
      f-3     :    -0.000000
  1 S s       :     0.002276  s :     0.002276
      pz      :    -0.001291  p :     0.991159
      px      :     0.496225
      py      :     0.496225
      dz2     :    -0.000260  d :     0.008037
      dxz     :     0.004149
      dyz     :     0.004149
      dx2y2   :    -0.000000
      dxy     :    -0.000000
      f0      :    -0.000726  f :    -0.001473
      f+1     :    -0.000374
      f-1     :    -0.000374
      f+2     :    -0.000000
      f-2     :     0.000000
      f+3     :    -0.000000
      f-3     :    -0.000000


                     *******************************
                     * LOEWDIN POPULATION ANALYSIS *
                     *******************************

-------------------------------------------
LOEWDIN ATOMIC CHARGES AND SPIN POPULATIONS
-------------------------------------------
   0 S :   -0.000000    1.000000
   1 S :    0.000000    1.000000

----------------------------------------------------
LOEWDIN REDUCED ORBITAL CHARGES AND SPIN POPULATIONS
----------------------------------------------------
CHARGE
  0 S s       :     5.563520  s :     5.563520
      pz      :     3.224040  p :     9.943158
      px      :     3.359559
      py      :     3.359559
      dz2     :     0.199286  d :     0.462065
      dxz     :     0.131389
      dyz     :     0.131389
      dx2y2   :     0.000000
      dxy     :     0.000000
      f0      :     0.013153  f :     0.031257
      f+1     :     0.009052
      f-1     :     0.009052
      f+2     :     0.000000
      f-2     :     0.000000
      f+3     :     0.000000
      f-3     :     0.000000
  1 S s       :     5.563520  s :     5.563520
      pz      :     3.224040  p :     9.943158
      px      :     3.359559
      py      :     3.359559
      dz2     :     0.199286  d :     0.462065
      dxz     :     0.131389
      dyz     :     0.131389
      dx2y2   :     0.000000
      dxy     :     0.000000
      f0      :     0.013153  f :     0.031257
      f+1     :     0.009052
      f-1     :     0.009052
      f+2     :     0.000000
      f-2     :     0.000000
      f+3     :     0.000000
      f-3     :     0.000000

SPIN
  0 S s       :     0.005638  s :     0.005638
      pz      :    -0.007352  p :     0.863697
      px      :     0.435525
      py      :     0.435525
      dz2     :     0.002457  d :     0.126049
      dxz     :     0.061796
      dyz     :     0.061796
      dx2y2   :     0.000000
      dxy     :     0.000000
      f0      :    -0.000744  f :     0.004616
      f+1     :     0.002680
      f-1     :     0.002680
      f+2     :    -0.000000
      f-2     :     0.000000
      f+3     :    -0.000000
      f-3     :    -0.000000
  1 S s       :     0.005638  s :     0.005638
      pz      :    -0.007352  p :     0.863697
      px      :     0.435525
      py      :     0.435525
      dz2     :     0.002457  d :     0.126049
      dxz     :     0.061796
      dyz     :     0.061796
      dx2y2   :    -0.000000
      dxy     :    -0.000000
      f0      :    -0.000744  f :     0.004616
      f+1     :     0.002680
      f-1     :     0.002680
      f+2     :    -0.000000
      f-2     :     0.000000
      f+3     :    -0.000000
      f-3     :    -0.000000


                      *****************************
                      * MAYER POPULATION ANALYSIS *
                      *****************************

  NA   - Mulliken gross atomic population
  ZA   - Total nuclear charge
  QA   - Mulliken gross atomic charge
  VA   - Mayer's total valence
  BVA  - Mayer's bonded valence
  FA   - Mayer's free valence

  ATOM       NA         ZA         QA         VA         BVA        FA
  0 S     16.0000    16.0000    -0.0000     2.4759     1.9244     0.5515
  1 S     16.0000    16.0000     0.0000     2.4759     1.9244     0.5515

  Mayer bond orders larger than 0.100000
B(  0-S ,  1-S ) :   1.9244 

-------
TIMINGS
-------

Total SCF time: 0 days 0 hours 1 min 57 sec 

Total time                  ....     117.335 sec
Sum of individual times     ....     116.258 sec  ( 99.1%)

Fock matrix formation       ....     109.517 sec  ( 93.3%)
  Split-RI-J                ....       0.716 sec  (  0.7% of F)
  XC integration            ....     106.723 sec  ( 97.4% of F)
    Basis function eval.    ....       0.009 sec  (  0.0% of XC)
    Density eval.           ....       0.023 sec  (  0.0% of XC)
    XC-Functional eval.     ....       0.013 sec  (  0.0% of XC)
    XC-Potential eval.      ....       0.051 sec  (  0.0% of XC)
Diagonalization             ....       2.072 sec  (  1.8%)
Density matrix formation    ....       0.006 sec  (  0.0%)
Population analysis         ....       1.303 sec  (  1.1%)
Initial guess               ....       0.841 sec  (  0.7%)
Orbital Transformation      ....       0.000 sec  (  0.0%)
Orbital Orthonormalization  ....       0.000 sec  (  0.0%)
DIIS solution               ....       0.049 sec  (  0.0%)
Grid generation             ....       2.471 sec  (  2.1%)


-------------------------------------------------------------------------------
                          DFT DISPERSION CORRECTION                            
                                                                               
                              DFTD3 V3.1  Rev 1                                
                          USING Becke-Johnson damping                          
-------------------------------------------------------------------------------
The TPSS functional is recognized
Active option DFTDOPT                   ...         4   

molecular C6(AA) [au] = 523.804030 


            DFT-D V3
 parameters
 s6 scaling factor         :     1.0000 
 a1 scaling factor         :     0.4535 
 s8 scaling factor         :     1.9435 
 a2 scaling factor         :     4.4752 
 ad hoc parameters k1-k3   :    16.0000     1.3333    -4.0000 

 Edisp/kcal,au: -1.071197778111  -0.001707062137 
 E6   /kcal   :  -0.405497820 
 E8   /kcal   :  -0.665699958 
 % E8         :  62.145382602 

-------------------------   ----------------
Dispersion correction           -0.001707062
-------------------------   ----------------


-------------------------   --------------------
FINAL SINGLE POINT ENERGY      -796.447337057440
-------------------------   --------------------


                            ***************************************
                            *     ORCA property calculations      *
                            ***************************************

                                    ---------------------
                                    Active property flags
                                    ---------------------
   (+) Dipole Moment


------------------------------------------------------------------------------
                       ORCA ELECTRIC PROPERTIES CALCULATION
------------------------------------------------------------------------------

Dipole Moment Calculation                       ... on
Quadrupole Moment Calculation                   ... off
Polarizability Calculation                      ... off
GBWName                                         ... s2.gbw
Electron density file                           ... s2.scfp
The origin for moment calculation is the CENTER OF MASS  = ( 0.000000,  0.000000  0.000000)

-------------
DIPOLE MOMENT
-------------
                                X             Y             Z
Electronic contribution:     -0.00000      -0.00000       0.00000
Nuclear contribution   :      0.00000       0.00000       0.00000
                        -----------------------------------------
Total Dipole Moment    :     -0.00000      -0.00000       0.00000
                        -----------------------------------------
Magnitude (a.u.)       :      0.00000
Magnitude (Debye)      :      0.00000



--------------------
Rotational spectrum 
--------------------
 
Rotational constants in cm-1:     0.000000     0.284236     0.284236 
Rotational constants in MHz :     0.000000  8521.179234  8521.179234 

 Dipole components along the rotational axes: 
x,y,z [a.u.] :     0.000000    -0.000000    -0.000000 
x,y,z [Debye]:     0.000000    -0.000000    -0.000000 

 

Timings for individual modules:

Sum of individual times         ...      123.314 sec (=   2.055 min)
GTO integral calculation        ...        5.065 sec (=   0.084 min)   4.1 %
SCF iterations                  ...      118.249 sec (=   1.971 min)  95.9 %
                             ****ORCA TERMINATED NORMALLY****
TOTAL RUN TIME: 0 days 0 hours 3 minutes 53 seconds 173 msec
