
                                 *****************
                                 * O   R   C   A *
                                 *****************

           --- An Ab Initio, DFT and Semiempirical electronic structure package ---

                  #######################################################
                  #                        -***-                        #
                  #          Department of theory and spectroscopy      #
                  #               Directorship: Frank Neese             #
                  #        Max Planck Institute fuer Kohlenforschung    #
                  #                Kaiser Wilhelm Platz 1               #
                  #                 D-45470 Muelheim/Ruhr               #
                  #                      Germany                        #
                  #                                                     #
                  #                  All rights reserved                #
                  #                        -***-                        #
                  #######################################################


                         Program Version 4.2.0 -  RELEASE  -


 With contributions from (in alphabetic order):
   Daniel Aravena         : Magnetic Suceptibility
   Michael Atanasov       : Ab Initio Ligand Field Theory (pilot matlab implementation)
   Alexander A. Auer      : GIAO ZORA, VPT2
   Ute Becker             : Parallelization
   Giovanni Bistoni       : ED, misc. LED, open-shell LED, HFLED
   Martin Brehm           : Molecular dynamics
   Dmytro Bykov           : SCF Hessian
   Vijay G. Chilkuri      : MRCI spin determinant printing, contributions to CSF-ICE
   Dipayan Datta          : RHF DLPNO-CCSD density
   Achintya Kumar Dutta   : EOM-CC, STEOM-CC
   Dmitry Ganyushin       : Spin-Orbit,Spin-Spin,Magnetic field MRCI
   Miquel Garcia          : C-PCM Hessian, Gaussian charge scheme
   Yang Guo               : DLPNO-NEVPT2, CIM, IAO-localization
   Andreas Hansen         : Spin unrestricted coupled pair/coupled cluster methods
   Benjamin Helmich-Paris : CASSCF linear response (MC-RPA)
   Lee Huntington         : MR-EOM, pCC
   Robert Izsak           : Overlap fitted RIJCOSX, COSX-SCS-MP3, EOM
   Christian Kollmar      : KDIIS, OOCD, Brueckner-CCSD(T), CCSD density
   Simone Kossmann        : Meta GGA functionals, TD-DFT gradient, OOMP2, MP2 Hessian
   Martin Krupicka        : AUTO-CI
   Lucas Lang             : DCDCAS
   Dagmar Lenk            : GEPOL surface, SMD
   Dimitrios Liakos       : Extrapolation schemes; Compound Job, initial MDCI parallelization
   Dimitrios Manganas     : Further ROCIS development; embedding schemes
   Dimitrios Pantazis     : SARC Basis sets
   Taras Petrenko         : DFT Hessian,TD-DFT gradient, ASA, ECA, R-Raman, ABS, FL, XAS/XES, NRVS
   Peter Pinski           : DLPNO-MP2, DLPNO-MP2 Gradient
   Christoph Reimann      : Effective Core Potentials
   Marius Retegan         : Local ZFS, SOC
   Christoph Riplinger    : Optimizer, TS searches, QM/MM, DLPNO-CCSD(T), (RO)-DLPNO pert. Triples
   Tobias Risthaus        : Range-separated hybrids, TD-DFT gradient, RPA, STAB
   Michael Roemelt        : Original ROCIS implementation
   Masaaki Saitow         : Open-shell DLPNO-CCSD energy and density
   Barbara Sandhoefer     : DKH picture change effects
   Avijit Sen             : IP-ROCIS
   Kantharuban Sivalingam : CASSCF convergence, NEVPT2, FIC-MRCI
   Bernardo de Souza      : ESD, SOC TD-DFT
   Georgi Stoychev        : AutoAux, RI-MP2 NMR
   Willem Van den Heuvel  : Paramagnetic NMR
   Boris Wezisla          : Elementary symmetry handling
   Frank Wennmohs         : Technical directorship


 We gratefully acknowledge several colleagues who have allowed us to
 interface, adapt or use parts of their codes:
   Stefan Grimme, W. Hujo, H. Kruse,             : VdW corrections, initial TS optimization,
                  C. Bannwarth                     DFT functionals, gCP, sTDA/sTD-DF
   Ed Valeev, F. Pavosevic, A. Kumar             : LibInt (2-el integral package), F12 methods
   Garnet Chan, S. Sharma, J. Yang, R. Olivares  : DMRG
   Ulf Ekstrom                                   : XCFun DFT Library
   Mihaly Kallay                                 : mrcc  (arbitrary order and MRCC methods)
   Andreas Klamt, Michael Diedenhofen            : otool_cosmo (COSMO solvation model)
   Jiri Pittner, Ondrej Demel                    : Mk-CCSD
   Frank Weinhold                                : gennbo (NPA and NBO analysis)
   Christopher J. Cramer and Donald G. Truhlar   : smd solvation model
   Lars Goerigk                                  : TD-DFT with DH, B97 family of functionals
   V. Asgeirsson, H. Jonsson                     : NEB implementation
   FAccTs GmbH                                   : IRC, NEB, NEB-TS, Multilevel, MM, QM/MM, CI optimization
   S Lehtola, MJT Oliveira, MAL Marques          : LibXC Library


 Your calculation uses the libint2 library for the computation of 2-el integrals
 For citations please refer to: http://libint.valeyev.net

 Your ORCA version has been built with support for libXC version: 4.2.3
 For citations please refer to: https://tddft.org/programs/libxc/

 This ORCA versions uses:
   CBLAS   interface :  Fast vector & matrix operations
   LAPACKE interface :  Fast linear algebra routines
   SCALAPACK package :  Parallel linear algebra routines


Your calculation utilizes the atom-pairwise dispersion correction
with the Becke-Johnson damping scheme (D3BJ)
Cite in your paper:
S.Grimme, S.Ehrlich, L.Goerigk, J Comput Chem, (2011), 32, 1456–1465 
S.Grimme, J.Antony, S.Ehrlich and H.Krieg, J.Chem.Phys., 132, (2010), 154104 
   

----- Orbital basis set information -----
Your calculation utilizes the basis: def2-TZVPPD
   F. Weigend and R. Ahlrichs, Phys. Chem. Chem. Phys. 7, 3297 (2005).
   D. Rappoport and F. Furche, J. Chem. Phys. 133 134105 (2010).

----- AuxJ basis set information -----
Your calculation utilizes the auxiliary basis: def2/J
   F. Weigend, Phys. Chem. Chem. Phys. 8, 1057 (2006).

================================================================================
                                        WARNINGS
                       Please study these warnings very carefully!
================================================================================


WARNING: your system is open-shell and RHF/RKS was chosen
  ===> : WILL SWITCH to UHF/UKS


INFO   : the flag for use of LIBINT has been found!

================================================================================
                                       INPUT FILE
================================================================================
NAME = V.in
|  1> #
|  2> # V TPSS-D3BJ/Def2-TZVPPD
|  3> #
|  4> ! tpss d3bj def2-tzvppd def2/j grid4 nofinalgrid
|  5> 
|  6> *xyz 0 6
|  7> V          0.00000        0.00000        0.00000
|  8> *
|  9> 
| 10> %maxcore 5000
| 11> 
| 12> %pal
| 13> nprocs = 28
| 14> end
| 15> 
| 16> 
| 17>                          ****END OF INPUT****
================================================================================

                       ****************************
                       * Single Point Calculation *
                       ****************************

---------------------------------
CARTESIAN COORDINATES (ANGSTROEM)
---------------------------------
  V      0.000000    0.000000    0.000000

----------------------------
CARTESIAN COORDINATES (A.U.)
----------------------------
  NO LB      ZA    FRAG     MASS         X           Y           Z
   0 V    23.0000    0    50.940    0.000000    0.000000    0.000000

--------------------------------
INTERNAL COORDINATES (ANGSTROEM)
--------------------------------
 V      0   0   0     0.000000000000     0.00000000     0.00000000

---------------------------
INTERNAL COORDINATES (A.U.)
---------------------------
 V      0   0   0     0.000000000000     0.00000000     0.00000000

---------------------
BASIS SET INFORMATION
---------------------
There are 1 groups of distinct atoms

 Group   1 Type V   : 17s13p7d2f1g contracted to 6s6p4d2f1g pattern {842111/631111/4111/11/1}

Atom   0V    basis set group =>   1
---------------------------------
AUXILIARY/J BASIS SET INFORMATION
---------------------------------
There are 1 groups of distinct atoms

 Group   1 Type V   : 19s5p5d3f3g contracted to 8s5p5d2f3g pattern {121111111/11111/11111/21/111}

Atom   0V    basis set group =>   1


           ************************************************************
           *        Program running with 28 parallel MPI-processes    *
           *              working on a common directory               *
           ************************************************************
------------------------------------------------------------------------------
                           ORCA GTO INTEGRAL CALCULATION
                           -- RI-GTO INTEGRALS CHOSEN --
------------------------------------------------------------------------------

                         BASIS SET STATISTICS AND STARTUP INFO

Gaussian basis set:
 # of primitive gaussian shells          ...   40
 # of primitive gaussian functions       ...  114
 # of contracted shells                  ...   19
 # of contracted basis functions         ...   67
 Highest angular momentum                ...    4
 Maximum contraction depth               ...    8
Auxiliary gaussian basis set:
 # of primitive gaussian shells          ...   35
 # of primitive gaussian functions       ...  107
 # of contracted shells                  ...   23
 # of contracted aux-basis functions     ...   89
 Highest angular momentum                ...    4
 Maximum contraction depth               ...   12
Ratio of auxiliary to basis functions    ...  1.33
Integral package used                  ... LIBINT
 One Electron integrals                  ... done
 Ordering auxiliary basis shells         ... done
 Integral threshhold             Thresh  ...  1.000e-10
 Primitive cut-off               TCut    ...  1.000e-11
 Pre-screening matrix                    ... done
 Shell pair data                         ... 
 Ordering of the shell pairs             ... done (   0.000 sec) 190 of 190 pairs
 Determination of significant pairs      ... done (   0.000 sec)
 Creation of shell pair data             ... done (   0.000 sec)
 Storage of shell pair data              ... done (   0.016 sec)
 Shell pair data done in (   0.016 sec)
 Computing two index integrals           ... done
 Cholesky decomposition of the V-matrix  ... done


Timings:
 Total evaluation time                   ...   0.321 sec (  0.005 min)
 One electron matrix time                ...   0.105 sec (  0.002 min) = 32.6%
 Schwartz matrix evaluation time         ...   0.131 sec (  0.002 min) = 40.7%
 Two index repulsion integral time       ...   0.005 sec (  0.000 min) =  1.4%
 Cholesky decomposition of V             ...   0.002 sec (  0.000 min) =  0.5%
 Three index repulsion integral time     ...   0.000 sec (  0.000 min) =  0.0%



           ************************************************************
           *        Program running with 28 parallel MPI-processes    *
           *              working on a common directory               *
           ************************************************************
-------------------------------------------------------------------------------
                                 ORCA SCF
-------------------------------------------------------------------------------

------------
SCF SETTINGS
------------
Hamiltonian:
 Density Functional     Method          .... DFT(GTOs)
 Exchange Functional    Exchange        .... TPSS
 Correlation Functional Correlation     .... TPSS
 LDA part of GGA corr.  LDAOpt          .... PW91-LDA
 Gradients option       PostSCFGGA      .... off
   Density functional embedding theory  .... OFF
   NL short-range parameter             ....  5.000000
 RI-approximation to the Coulomb term is turned on
   Number of auxiliary basis functions  .... 89


General Settings:
 Integral files         IntName         .... V.in
 Hartree-Fock type      HFTyp           .... UHF
 Total Charge           Charge          ....    0
 Multiplicity           Mult            ....    6
 Number of Electrons    NEL             ....   23
 Basis Dimension        Dim             ....   67
 Nuclear Repulsion      ENuc            ....      0.0000000000 Eh

Convergence Acceleration:
 DIIS                   CNVDIIS         .... on
   Start iteration      DIISMaxIt       ....    12
   Startup error        DIISStart       ....  0.200000
   # of expansion vecs  DIISMaxEq       ....     5
   Bias factor          DIISBfac        ....   1.050
   Max. coefficient     DIISMaxC        ....  10.000
 Newton-Raphson         CNVNR           .... off
 SOSCF                  CNVSOSCF        .... off
 Level Shifting         CNVShift        .... on
   Level shift para.    LevelShift      ....    0.2500
   Turn off err/grad.   ShiftErr        ....    0.0010
 Zerner damping         CNVZerner       .... off
 Static damping         CNVDamp         .... on
   Fraction old density DampFac         ....    0.7000
   Max. Damping (<1)    DampMax         ....    0.9800
   Min. Damping (>=0)   DampMin         ....    0.0000
   Turn off err/grad.   DampErr         ....    0.1000
 Fernandez-Rico         CNVRico         .... off

SCF Procedure:
 Maximum # iterations   MaxIter         ....   125
 SCF integral mode      SCFMode         .... Direct
   Integral package                     .... LIBINT
 Reset frequency        DirectResetFreq ....    20
 Integral Threshold     Thresh          ....  1.000e-10 Eh
 Primitive CutOff       TCut            ....  1.000e-11 Eh

Convergence Tolerance:
 Convergence Check Mode ConvCheckMode   .... Total+1el-Energy
 Convergence forced     ConvForced      .... 0
 Energy Change          TolE            ....  1.000e-06 Eh
 1-El. energy change                    ....  1.000e-03 Eh
 DIIS Error             TolErr          ....  1.000e-06


Diagonalization of the overlap matrix:
Smallest eigenvalue                        ... 3.674e-02
Time for diagonalization                   ...    0.002 sec
Threshold for overlap eigenvalues          ... 1.000e-08
Number of eigenvalues below threshold      ... 0
Time for construction of square roots      ...    0.227 sec
Total time needed                          ...    0.228 sec

-------------------
DFT GRID GENERATION
-------------------

General Integration Accuracy     IntAcc      ...  4.670
Radial Grid Type                 RadialGrid  ... Gauss-Chebyshev
Angular Grid (max. acc.)         AngularGrid ... Lebedev-302
Angular grid pruning method      GridPruning ... 3 (G Style)
Weight generation scheme         WeightScheme... Becke
Basis function cutoff            BFCut       ...    1.0000e-10
Integration weight cutoff        WCut        ...    1.0000e-14
Grids for H and He will be reduced by one unit

# of grid points (after initial pruning)     ...   9664 (   0.0 sec)
# of grid points (after weights+screening)   ...   9664 (   0.0 sec)
Grid point division into batches done        ...    0.1 sec
Reduced shell lists constructed in    0.1 sec

Total number of grid points                  ...     9664
Total number of batches                      ...      152
Average number of points per batch           ...       63
Average number of grid points per atom       ...     9664
Average number of shells per batch           ...     3.43 (18.05%)
Average number of basis functions per batch  ...    10.29 (15.35%)
Average number of large shells per batch     ...     3.43 (100.00%)
Average number of large basis fcns per batch ...    10.29 (100.00%)
Maximum spatial batch extension              ...  22.27, 22.27, 22.27 au
Average spatial batch extension              ...   0.77,  0.76,  0.74 au

Time for grid setup =    2.539 sec

------------------------------
INITIAL GUESS: MODEL POTENTIAL
------------------------------
Loading Hartree-Fock densities                     ... done
Calculating cut-offs                               ... done
Setting up the integral package                    ... done
Initializing the effective Hamiltonian             ... done
Starting the Coulomb interaction                   ... done (   0.0 sec)
Reading the grid                                   ... done
Mapping shells                                     ... done
Starting the XC term evaluation                    ... done (   0.0 sec)
  promolecular density results
     # of electrons  =     23.000003052
     EX              =    -43.918520832
     EC              =     -0.944824995
     EX+EC           =    -44.863345827
Transforming the Hamiltonian                       ... done (   0.0 sec)
Diagonalizing the Hamiltonian                      ... done (   0.0 sec)
Back transforming the eigenvectors                 ... done (   0.0 sec)
Now organizing SCF variables                       ... done
                      ------------------
                      INITIAL GUESS DONE (   3.3 sec)
                      ------------------
--------------
SCF ITERATIONS
--------------
ITER       Energy         Delta-E        Max-DP      RMS-DP      [F,P]     Damp
               ***  Starting incremental Fock matrix formation  ***
  0   -943.6460585619   0.000000000000 0.32650696  0.00475206  0.2436454 0.7000
  1   -943.8032465606  -0.157187998640 0.11172219  0.00210081  0.0324135 0.7000
                               ***Turning on DIIS***
  2   -943.8113817848  -0.008135224222 0.25129926  0.00507700  0.0756156 0.0000
  3   -943.9189085698  -0.107526784978 0.15797986  0.00267256  0.0304957 0.0000
  4   -943.9315289488  -0.012620378989 0.03986010  0.00079535  0.0285122 0.0000
  5   -943.9340230424  -0.002494093631 0.02147184  0.00033838  0.0066586 0.0000
  6   -943.9342551725  -0.000232130101 0.01663115  0.00023449  0.0039371 0.0000
  7   -943.9343509743  -0.000095801745 0.01614683  0.00037781  0.0007000 0.0000
  8   -943.9344012570  -0.000050282744 0.00030248  0.00000489  0.0040801 0.0000
  9   -943.9344003149   0.000000942072 0.00033964  0.00000575  0.0041034 0.0000
 10   -943.9343990155   0.000001299381 0.00035116  0.00000553  0.0041117 0.0000
 11   -943.9343985986   0.000000416991 0.00009409  0.00000219  0.0040067 0.0000
 12   -943.9343989395  -0.000000340994 0.00139013  0.00003484  0.0040103 0.0000
 13   -943.9344204889  -0.000021549360 0.00478764  0.00015495  0.0004509 0.0000
 14   -943.9344319830  -0.000011494102 0.00005558  0.00000164  0.0020377 0.0000
 15   -943.9344328607  -0.000000877658 0.00007002  0.00000213  0.0018471 0.0000
 16   -943.9344339105  -0.000001049801 0.00006263  0.00000340  0.0015974 0.0000
 17   -943.9344353461  -0.000001435631 0.00007636  0.00000365  0.0011660 0.0000
 18   -943.9344359817  -0.000000635574 0.00283137  0.00009159  0.0009721 0.0000
 19   -943.9344403841  -0.000004402408 0.00020928  0.00000973  0.0011439 0.0000
               *** Restarting incremental Fock matrix formation ***
                                   *** Resetting DIIS ***
 20   -943.9344413871  -0.000001002979 0.00183472  0.00005801  0.0003780 0.0000
 21   -943.9344421715  -0.000000784486 0.00016988  0.00000569  0.0008230 0.0000
 22   -943.9344425699  -0.000000398365 0.00010692  0.00000370  0.0004461 0.0000
 23   -943.9344426993  -0.000000129429 0.00009365  0.00000334  0.0004039 0.0000
 24   -943.9344427153  -0.000000015955 0.00005900  0.00000129  0.0003751 0.0000
 25   -943.9344428281  -0.000000112792 0.00049710  0.00001625  0.0003689 0.0000
 26   -943.9344430668  -0.000000238680 0.00041342  0.00001351  0.0001568 0.0000
 27   -943.9344431529  -0.000000086151 0.00010415  0.00000282  0.0000901 0.0000
 28   -943.9344430140   0.000000138911 0.00005911  0.00000189  0.0000270 0.0000
                 **** Energy Check signals convergence ****

               *****************************************************
               *                     SUCCESS                       *
               *           SCF CONVERGED AFTER  29 CYCLES          *
               *****************************************************


----------------
TOTAL SCF ENERGY
----------------

Total Energy       :         -943.93444308 Eh          -25685.76204 eV

Components:
Nuclear Repulsion  :            0.00000000 Eh               0.00000 eV
Electronic Energy  :         -943.93444308 Eh          -25685.76204 eV
One Electron Energy:        -1297.44232754 Eh          -35305.20061 eV
Two Electron Energy:          353.50788445 Eh            9619.43858 eV

Virial components:
Potential Energy   :        -1886.20630576 Eh          -51326.28296 eV
Kinetic Energy     :          942.27186267 Eh           25640.52092 eV
Virial Ratio       :            2.00176444


DFT components:
N(Alpha)           :       13.999999590537 electrons
N(Beta)            :        8.999999670246 electrons
N(Total)           :       22.999999260783 electrons
E(X)               :      -44.483358995001 Eh       
E(C)               :       -0.928990628443 Eh       
E(XC)              :      -45.412349623444 Eh       
DFET-embed. en.    :        0.000000000000 Eh       

---------------
SCF CONVERGENCE
---------------

  Last Energy change         ...   -6.8241e-08  Tolerance :   1.0000e-06
  Last MAX-Density change    ...    2.8847e-05  Tolerance :   1.0000e-05
  Last RMS-Density change    ...    8.6836e-07  Tolerance :   1.0000e-06
  Last DIIS Error            ...    5.1432e-06  Tolerance :   1.0000e-06

             **** THE GBW FILE WAS UPDATED (V.in.gbw) ****
             **** DENSITY FILE WAS UPDATED (V.in.scfp) ****
             **** ENERGY FILE WAS UPDATED (V.in.en.tmp) ****
----------------------
UHF SPIN CONTAMINATION
----------------------

Warning: in a DFT calculation there is little theoretical justification to 
         calculate <S**2> as in Hartree-Fock theory. We will do it anyways
         but you should keep in mind that the values have only limited relevance

Expectation value of <S**2>     :     8.750348
Ideal value S*(S+1) for S=2.5   :     8.750000
Deviation                       :     0.000348

             **** THE GBW FILE WAS UPDATED (V.in.gbw) ****
             **** DENSITY FILE WAS UPDATED (V.in.scfp) ****
----------------
ORBITAL ENERGIES
----------------
                 SPIN UP ORBITALS
  NO   OCC          E(Eh)            E(eV) 
   0   1.0000    -196.042586     -5334.5900 
   1   1.0000     -21.801573      -593.2510 
   2   1.0000     -18.325409      -498.6597 
   3   1.0000     -18.313823      -498.3445 
   4   1.0000     -18.313820      -498.3444 
   5   1.0000      -2.456751       -66.8516 
   6   1.0000      -1.526636       -41.5419 
   7   1.0000      -1.513019       -41.1713 
   8   1.0000      -1.513015       -41.1712 
   9   1.0000      -0.152698        -4.1551 
  10   1.0000      -0.128455        -3.4954 
  11   1.0000      -0.128445        -3.4952 
  12   1.0000      -0.102380        -2.7859 
  13   1.0000      -0.102380        -2.7859 
  14   0.0000      -0.090537        -2.4636 
  15   0.0000      -0.042815        -1.1651 
  16   0.0000      -0.041941        -1.1413 
  17   0.0000      -0.041940        -1.1413 
  18   0.0000       0.061966         1.6862 
  19   0.0000       0.062493         1.7005 
  20   0.0000       0.062494         1.7005 
  21   0.0000       0.075968         2.0672 
  22   0.0000       0.112227         3.0539 
  23   0.0000       0.112228         3.0539 
  24   0.0000       0.117982         3.2105 
  25   0.0000       0.117982         3.2105 
  26   0.0000       0.119339         3.2474 
  27   0.0000       0.373789        10.1713 
  28   0.0000       0.374350        10.1866 
  29   0.0000       0.374351        10.1866 
  30   0.0000       0.589394        16.0382 
  31   0.0000       0.589396        16.0383 
  32   0.0000       0.602218        16.3872 
  33   0.0000       0.602218        16.3872 
  34   0.0000       0.609306        16.5801 
  35   0.0000       1.087150        29.5829 
  36   0.0000       1.087150        29.5829 
  37   0.0000       1.097975        29.8774 
  38   0.0000       1.097979        29.8775 
  39   0.0000       1.104988        30.0682 
  40   0.0000       1.104988        30.0682 
  41   0.0000       1.116228        30.3741 
  42   0.0000       1.685742        45.8714 
  43   0.0000       1.692114        46.0448 
  44   0.0000       1.692116        46.0448 
  45   0.0000       1.847917        50.2844 
  46   0.0000       2.374445        64.6119 
  47   0.0000       2.374454        64.6122 
  48   0.0000       2.393644        65.1344 
  49   0.0000       2.393644        65.1344 
  50   0.0000       2.399073        65.2821 
  51   0.0000       4.096860       111.4812 
  52   0.0000       4.096861       111.4813 
  53   0.0000       4.099583       111.5553 
  54   0.0000       4.099583       111.5553 
  55   0.0000       4.103055       111.6498 
  56   0.0000       4.103057       111.6499 
  57   0.0000       4.114246       111.9543 
  58   0.0000       4.117201       112.0347 
  59   0.0000       4.117201       112.0347 
  60   0.0000       4.546862       123.7264 
  61   0.0000       4.546862       123.7264 
  62   0.0000       4.553063       123.8951 
  63   0.0000       4.553068       123.8953 
  64   0.0000       4.562405       124.1493 
  65   0.0000       4.571421       124.3947 
  66   0.0000       4.571421       124.3947 

                 SPIN DOWN ORBITALS
  NO   OCC          E(Eh)            E(eV) 
   0   1.0000    -196.041674     -5334.5652 
   1   1.0000     -21.762708      -592.1934 
   2   1.0000     -18.298920      -497.9389 
   3   1.0000     -18.279903      -497.4214 
   4   1.0000     -18.279899      -497.4213 
   5   1.0000      -2.335381       -63.5489 
   6   1.0000      -1.425022       -38.7768 
   7   1.0000      -1.377345       -37.4795 
   8   1.0000      -1.377335       -37.4792 
   9   0.0000      -0.059884        -1.6295 
  10   0.0000      -0.023138        -0.6296 
  11   0.0000       0.005865         0.1596 
  12   0.0000       0.005871         0.1598 
  13   0.0000       0.020526         0.5585 
  14   0.0000       0.020528         0.5586 
  15   0.0000       0.027763         0.7555 
  16   0.0000       0.032718         0.8903 
  17   0.0000       0.032729         0.8906 
  18   0.0000       0.114732         3.1220 
  19   0.0000       0.120988         3.2923 
  20   0.0000       0.120991         3.2923 
  21   0.0000       0.143464         3.9038 
  22   0.0000       0.192959         5.2507 
  23   0.0000       0.198449         5.4001 
  24   0.0000       0.198484         5.4010 
  25   0.0000       0.203514         5.5379 
  26   0.0000       0.203563         5.5392 
  27   0.0000       0.438377        11.9288 
  28   0.0000       0.449128        12.2214 
  29   0.0000       0.449146        12.2219 
  30   0.0000       0.667219        18.1560 
  31   0.0000       0.676618        18.4117 
  32   0.0000       0.676630        18.4120 
  33   0.0000       0.686711        18.6864 
  34   0.0000       0.686724        18.6867 
  35   0.0000       1.168348        31.7924 
  36   0.0000       1.172661        31.9097 
  37   0.0000       1.172663        31.9098 
  38   0.0000       1.180399        32.1203 
  39   0.0000       1.180400        32.1203 
  40   0.0000       1.189404        32.3653 
  41   0.0000       1.189404        32.3653 
  42   0.0000       1.773141        48.2496 
  43   0.0000       1.800544        48.9953 
  44   0.0000       1.800546        48.9954 
  45   0.0000       1.961855        53.3848 
  46   0.0000       2.469229        67.1911 
  47   0.0000       2.493090        67.8404 
  48   0.0000       2.493098        67.8407 
  49   0.0000       2.507857        68.2423 
  50   0.0000       2.507859        68.2423 
  51   0.0000       4.176233       113.6411 
  52   0.0000       4.181397       113.7816 
  53   0.0000       4.181401       113.7817 
  54   0.0000       4.195123       114.1551 
  55   0.0000       4.195123       114.1551 
  56   0.0000       4.210502       114.5736 
  57   0.0000       4.210502       114.5736 
  58   0.0000       4.214440       114.6807 
  59   0.0000       4.214440       114.6807 
  60   0.0000       4.656038       126.6972 
  61   0.0000       4.671304       127.1127 
  62   0.0000       4.671310       127.1128 
  63   0.0000       4.703273       127.9826 
  64   0.0000       4.703273       127.9826 
  65   0.0000       4.709175       128.1432 
  66   0.0000       4.709175       128.1432 

                    ********************************
                    * MULLIKEN POPULATION ANALYSIS *
                    ********************************

--------------------------------------------
MULLIKEN ATOMIC CHARGES AND SPIN POPULATIONS
--------------------------------------------
   0 V :   -0.000000    5.000000
Sum of atomic charges         :   -0.0000000
Sum of atomic spin populations:    5.0000000

-----------------------------------------------------
MULLIKEN REDUCED ORBITAL CHARGES AND SPIN POPULATIONS
-----------------------------------------------------
CHARGE
  0 V s       :     6.999284  s :     6.999284
      pz      :     3.999892  p :    11.999816
      px      :     3.999960
      py      :     3.999964
      dz2     :     0.363019  d :     4.000673
      dxz     :     0.779848
      dyz     :     0.871381
      dx2y2   :     0.999065
      dxy     :     0.987361
      f0      :     0.000064  f :     0.000184
      f+1     :     0.000055
      f-1     :     0.000041
      f+2     :     0.000010
      f-2     :     0.000014
      f+3     :     0.000001
      f-3     :     0.000001
      g0      :     0.000005  g :     0.000043
      g+1     :     0.000011
      g-1     :     0.000009
      g+2     :     0.000004
      g-2     :     0.000006
      g+3     :     0.000004
      g-3     :     0.000004
      g+4     :     0.000000
      g-4     :     0.000000

SPIN
  0 V s       :     0.999688  s :     0.999688
      pz      :     0.000065  p :     0.000046
      px      :    -0.000008
      py      :    -0.000011
      dz2     :     0.362767  d :     4.000277
      dxz     :     0.779761
      dyz     :     0.871330
      dx2y2   :     0.999064
      dxy     :     0.987356
      f0      :    -0.000021  f :    -0.000046
      f+1     :    -0.000021
      f-1     :    -0.000008
      f+2     :     0.000004
      f-2     :    -0.000001
      f+3     :     0.000000
      f-3     :     0.000000
      g0      :     0.000004  g :     0.000035
      g+1     :     0.000008
      g-1     :     0.000007
      g+2     :     0.000003
      g-2     :     0.000005
      g+3     :     0.000004
      g-3     :     0.000004
      g+4     :     0.000000
      g-4     :     0.000000


                     *******************************
                     * LOEWDIN POPULATION ANALYSIS *
                     *******************************

-------------------------------------------
LOEWDIN ATOMIC CHARGES AND SPIN POPULATIONS
-------------------------------------------
   0 V :   -0.000000    5.000000

----------------------------------------------------
LOEWDIN REDUCED ORBITAL CHARGES AND SPIN POPULATIONS
----------------------------------------------------
CHARGE
  0 V s       :     6.999284  s :     6.999284
      pz      :     3.999892  p :    11.999816
      px      :     3.999960
      py      :     3.999964
      dz2     :     0.363019  d :     4.000673
      dxz     :     0.779848
      dyz     :     0.871381
      dx2y2   :     0.999065
      dxy     :     0.987361
      f0      :     0.000064  f :     0.000184
      f+1     :     0.000055
      f-1     :     0.000041
      f+2     :     0.000010
      f-2     :     0.000014
      f+3     :     0.000001
      f-3     :     0.000001
      g0      :     0.000005  g :     0.000043
      g+1     :     0.000011
      g-1     :     0.000009
      g+2     :     0.000004
      g-2     :     0.000006
      g+3     :     0.000004
      g-3     :     0.000004
      g+4     :     0.000000
      g-4     :     0.000000

SPIN
  0 V s       :     0.999688  s :     0.999688
      pz      :     0.000065  p :     0.000046
      px      :    -0.000008
      py      :    -0.000011
      dz2     :     0.362767  d :     4.000277
      dxz     :     0.779761
      dyz     :     0.871330
      dx2y2   :     0.999064
      dxy     :     0.987356
      f0      :    -0.000021  f :    -0.000046
      f+1     :    -0.000021
      f-1     :    -0.000008
      f+2     :     0.000004
      f-2     :    -0.000001
      f+3     :     0.000000
      f-3     :     0.000000
      g0      :     0.000004  g :     0.000035
      g+1     :     0.000008
      g-1     :     0.000007
      g+2     :     0.000003
      g-2     :     0.000005
      g+3     :     0.000004
      g-3     :     0.000004
      g+4     :     0.000000
      g-4     :     0.000000


                      *****************************
                      * MAYER POPULATION ANALYSIS *
                      *****************************

  NA   - Mulliken gross atomic population
  ZA   - Total nuclear charge
  QA   - Mulliken gross atomic charge
  VA   - Mayer's total valence
  BVA  - Mayer's bonded valence
  FA   - Mayer's free valence

  ATOM       NA         ZA         QA         VA         BVA        FA
  0 V     23.0000    23.0000    -0.0000     5.0007     0.0000     5.0007

  Mayer bond orders larger than 0.100000


-------
TIMINGS
-------

Total SCF time: 0 days 0 hours 4 min 1 sec 

Total time                  ....     241.860 sec
Sum of individual times     ....     240.618 sec  ( 99.5%)

Fock matrix formation       ....     232.809 sec  ( 96.3%)
  Split-RI-J                ....       3.112 sec  (  1.3% of F)
  XC integration            ....     226.631 sec  ( 97.3% of F)
    Basis function eval.    ....       0.021 sec  (  0.0% of XC)
    Density eval.           ....       0.048 sec  (  0.0% of XC)
    XC-Functional eval.     ....       0.045 sec  (  0.0% of XC)
    XC-Potential eval.      ....       0.084 sec  (  0.0% of XC)
Diagonalization             ....       4.091 sec  (  1.7%)
Density matrix formation    ....       0.011 sec  (  0.0%)
Population analysis         ....       0.112 sec  (  0.0%)
Initial guess               ....       0.782 sec  (  0.3%)
Orbital Transformation      ....       0.000 sec  (  0.0%)
Orbital Orthonormalization  ....       0.000 sec  (  0.0%)
DIIS solution               ....       0.275 sec  (  0.1%)
Grid generation             ....       2.539 sec  (  1.0%)


-------------------------------------------------------------------------------
                          DFT DISPERSION CORRECTION                            
                                                                               
                              DFTD3 V3.1  Rev 1                                
                          USING Becke-Johnson damping                          
-------------------------------------------------------------------------------
The TPSS functional is recognized
Active option DFTDOPT                   ...         4   

molecular C6(AA) [au] = 1116.097907 


            DFT-D V3
 parameters
 s6 scaling factor         :     1.0000 
 a1 scaling factor         :     0.4535 
 s8 scaling factor         :     1.9435 
 a2 scaling factor         :     4.4752 
 ad hoc parameters k1-k3   :    16.0000     1.3333    -4.0000 

 Edisp/kcal,au: -0.000000000000  -0.000000000000 
 E6   /kcal   :  -0.000000000 
 E8   /kcal   :  -0.000000000 
 % E8         :          -nan 

-------------------------   ----------------
Dispersion correction            0.000000000
-------------------------   ----------------


-------------------------   --------------------
FINAL SINGLE POINT ENERGY      -943.934443082248
-------------------------   --------------------


                            ***************************************
                            *     ORCA property calculations      *
                            ***************************************

                                    ---------------------
                                    Active property flags
                                    ---------------------
   (+) Dipole Moment


------------------------------------------------------------------------------
                       ORCA ELECTRIC PROPERTIES CALCULATION
------------------------------------------------------------------------------

Dipole Moment Calculation                       ... on
Quadrupole Moment Calculation                   ... off
Polarizability Calculation                      ... off
GBWName                                         ... V.in.gbw
Electron density file                           ... V.in.scfp
The origin for moment calculation is the CENTER OF MASS  = ( 0.000000,  0.000000  0.000000)

-------------
DIPOLE MOMENT
-------------
                                X             Y             Z
Electronic contribution:      0.00000      -0.00000       0.00000
Nuclear contribution   :      0.00000       0.00000       0.00000
                        -----------------------------------------
Total Dipole Moment    :      0.00000      -0.00000       0.00000
                        -----------------------------------------
Magnitude (a.u.)       :      0.00000
Magnitude (Debye)      :      0.00000



--------------------
Rotational spectrum 
--------------------
 
Rotational constants in cm-1:     0.000000     0.000000     0.000000 
Rotational constants in MHz :     0.000000     0.000000     0.000000 

 Dipole components along the rotational axes: 
x,y,z [a.u.] :     0.000000    -0.000000     0.000000 
x,y,z [Debye]:     0.000000    -0.000000     0.000000 

 

Timings for individual modules:

Sum of individual times         ...      246.538 sec (=   4.109 min)
GTO integral calculation        ...        4.061 sec (=   0.068 min)   1.6 %
SCF iterations                  ...      242.477 sec (=   4.041 min)  98.4 %
                             ****ORCA TERMINATED NORMALLY****
TOTAL RUN TIME: 0 days 0 hours 4 minutes 10 seconds 712 msec
