
    -----------------------------------------------------------------------
          Psi4: An Open-Source Ab Initio Electronic Structure Package
                               Psi4 1.4.1 release

                         Git: Rev {HEAD} cd00f19 


    D. G. A. Smith, L. A. Burns, A. C. Simmonett, R. M. Parrish,
    M. C. Schieber, R. Galvelis, P. Kraus, H. Kruse, R. Di Remigio,
    A. Alenaizan, A. M. James, S. Lehtola, J. P. Misiewicz, M. Scheurer,
    R. A. Shaw, J. B. Schriber, Y. Xie, Z. L. Glick, D. A. Sirianni,
    J. S. O'Brien, J. M. Waldrop, A. Kumar, E. G. Hohenstein,
    B. P. Pritchard, B. R. Brooks, H. F. Schaefer III, A. Yu. Sokolov,
    K. Patkowski, A. E. DePrince III, U. Bozkaya, R. A. King,
    F. A. Evangelista, J. M. Turney, T. D. Crawford, C. D. Sherrill,
    J. Chem. Phys. 152(18) 184108 (2020). https://doi.org/10.1063/5.0006002

                            Additional Code Authors
    E. T. Seidl, C. L. Janssen, E. F. Valeev, M. L. Leininger,
    J. F. Gonthier, R. M. Richard, H. R. McAlexander, M. Saitow, X. Wang,
    P. Verma, and M. H. Lechner

             Previous Authors, Complete List of Code Contributors,
                       and Citations for Specific Modules
    https://github.com/psi4/psi4/blob/master/codemeta.json
    https://github.com/psi4/psi4/graphs/contributors
    http://psicode.org/psi4manual/master/introduction.html#citing-psifour

    -----------------------------------------------------------------------


    Psi4 started on: Sunday, 07 November 2021 05:08AM

    Process ID: 28072
    Host:       compute424.bc4.acrc.priv
    PSIDATADIR: /mnt/storage/home/zw18965/.conda/envs/p4env/share/psi4
    Memory:     500.0 MiB
    Threads:    28
    
  ==> Input File <==

--------------------------------------------------------------------------
memory 120 GB

molecule {
0 2
Ag         0.00000        0.00000        0.00000
 }

set reference uks
set dynamic_level 1
set basis Def2-TZVPPD

energy("MN15-D3BJ")
--------------------------------------------------------------------------

  Memory set to 111.759 GiB by Python driver.

Scratch directory: /tmp/

*** tstart() called on compute424.bc4.acrc.priv
*** at Sun Nov  7 05:08:21 2021

   => Loading Basis Set <=

    Name: DEF2-TZVPPD
    Role: ORBITAL
    Keyword: BASIS
    atoms 1 entry AG         line  2174 (ECP: line  3646) file /mnt/storage/home/zw18965/.conda/envs/p4env/share/psi4/basis/def2-tzvppd.gbs 

    !!!  WARNING: ECP capability is in beta. Please check occupations closely.  !!!

   => MN15-D3(BJ): Empirical Dispersion <=

    Grimme's -D3 (BJ-damping) Dispersion Correction
    Grimme S.; Ehrlich S.; Goerigk L. (2011), J. Comput. Chem., 32: 1456
    Parametrisation from:    L. Goerigk, A. Hansen, C. Bauer, S. Ehrlich, A. Najibi, S. Grimme, Phys. Chem. Chem. Phys. 19, 32184-32215, 2017

        s6 =       1.000000
        s8 =       2.097100
        a1 =       0.786200
        a2 =       7.592300


         ---------------------------------------------------------
                                   SCF
               by Justin Turney, Rob Parrish, Andy Simmonett
                          and Daniel G. A. Smith
                              UKS Reference
                       28 Threads, 114440 MiB Core
         ---------------------------------------------------------

  ==> Geometry <==

    Molecular point group: d2h
    Geometry (in Angstrom), charge = 0, multiplicity = 2:

       Center              X                  Y                   Z               Mass       
    ------------   -----------------  -----------------  -----------------  -----------------
         AG           0.000000000000     0.000000000000     0.000000000000   106.905091600000

  Running in d2h symmetry.

  Rotational constants: A = ************  B = ************  C = ************ [cm^-1]
  Rotational constants: A = ************  B = ************  C = ************ [MHz]
  Nuclear repulsion =    0.000000000000000

  Charge       = 0
  Multiplicity = 2
  Electrons    = 19
  Nalpha       = 10
  Nbeta        = 9

  ==> Algorithm <==

  SCF Algorithm Type is DF.
  DIIS enabled.
  MOM disabled.
  Fractional occupation disabled.
  Guess Type is CORE.
  Energy threshold   = 1.00e-06
  Density threshold  = 1.00e-06
  Integral threshold = 1.00e-12

  ==> Primary Basis <==

  Basis Set: DEF2-TZVPPD
    Blend: DEF2-TZVPPD
    Number of shells: 16
    Number of basis functions: 56
    Number of Cartesian functions: 71
    Spherical Harmonics?: true
    Max angular momentum: 4

  Core potential: DEF2-TZVPPD
    Number of shells: 4
    Number of ECP primitives: 14
    Number of ECP core electrons: 28
    Max angular momentum: 3

  ==> DFT Potential <==

   => Composite Functional: MN15-D3BJ <= 

   MN15 Hybrid Meta-GGA Exchange-Correlation Functional

    H. S. Yu, X. He, S. L. Li, and D. G. Truhlar, Chem. Sci. 7, 5032-5051, 2016


    Deriv               =              1
    GGA                 =           TRUE
    Meta                =           TRUE

    Exchange Hybrid     =           TRUE
    MP2 Hybrid          =          FALSE

   => Exchange Functionals <=

    1.0000   XC_HYB_MGGA_X_MN15

   => Exact (HF) Exchange <=

    0.4400               HF 

   => Correlation Functionals <=

    1.0000   XC_MGGA_C_MN15

   => LibXC Density Thresholds  <==

    XC_MGGA_C_MN15:  1.00E-15 
    XC_HYB_MGGA_X_MN15:  1.00E-15 

   => Molecular Quadrature <=

    Radial Scheme          =       TREUTLER
    Pruning Scheme         =           NONE
    Nuclear Scheme         =       TREUTLER

    BS radius alpha        =              1
    Pruning alpha          =              1
    Radial Points          =             75
    Spherical Points       =            302
    Total Points           =          20832
    Total Blocks           =            235
    Max Points             =            255
    Max Functions          =             56
    Weights Tolerance      =       1.00E-15

   => Loading Basis Set <=

    Name: (DEF2-TZVPPD AUX)
    Role: JKFIT
    Keyword: DF_BASIS_SCF
    atoms 1 entry AG         line  4364 file /mnt/storage/home/zw18965/.conda/envs/p4env/share/psi4/basis/def2-universal-jkfit.gbs 

  ==> Integral Setup <==

  DFHelper Memory: AOs need 0.008 GiB; user supplied 83.748 GiB. Using in-core AOs.

  ==> MemDFJK: Density-Fitted J/K Matrices <==

    J tasked:                   Yes
    K tasked:                   Yes
    wK tasked:                   No
    OpenMP threads:              28
    Memory [MiB]:             85757
    Algorithm:                 Core
    Schwarz Cutoff:           1E-12
    Mask sparsity (%):       0.0000
    Fitting Condition:        1E-10

   => Auxiliary Basis Set <=

  Basis Set: (DEF2-TZVPPD AUX)
    Blend: DEF2-UNIVERSAL-JKFIT
    Number of shells: 49
    Number of basis functions: 255
    Number of Cartesian functions: 384
    Spherical Harmonics?: true
    Max angular momentum: 6

  Cached 100.0% of DFT collocation blocks in 0.071 [GiB].

  Minimum eigenvalue in the overlap matrix is 2.2101858439E-02.
  Reciprocal condition number of the overlap matrix is 7.0222993859E-03.
    Using symmetric orthogonalization.

  ==> Pre-Iterations <==

  SCF Guess: Core (One-Electron) Hamiltonian.

   -------------------------------------------------------
    Irrep   Nso     Nmo     Nalpha   Nbeta   Ndocc  Nsocc
   -------------------------------------------------------
     Ag        15      15       3       3       3       0
     B1g        5       5       1       1       1       0
     B2g        5       5       1       1       1       0
     B3g        5       5       1       1       1       0
     Au         2       2       0       0       0       0
     B1u        8       8       1       1       1       0
     B2u        8       8       2       1       1       1
     B3u        8       8       1       1       1       0
   -------------------------------------------------------
    Total      56      56      10       9       9       1
   -------------------------------------------------------

  ==> Iterations <==

                           Total Energy        Delta E     RMS |[F,P]|

    Occupation by irrep:
             Ag   B1g   B2g   B3g    Au   B1u   B2u   B3u 
    DOCC [     3,    0,    0,    0,    0,    2,    2,    2 ]
    SOCC [     0,    1,    0,    0,    0,    0,    0,    0 ]

   @DF-UKS iter   1:  -130.70721423108353   -1.30707e+02   2.71749e-01 DIIS
    Occupation by irrep:
             Ag   B1g   B2g   B3g    Au   B1u   B2u   B3u 
    DOCC [     3,    1,    1,    1,    0,    1,    1,    1 ]
    SOCC [     1,    0,    0,    0,    0,    0,    0,    0 ]

   @DF-UKS iter   2:  -114.02636232082841    1.66809e+01   3.70150e-01 DIIS
   @DF-UKS iter   3:  -146.28192068982924   -3.22556e+01   4.10391e-02 DIIS
   @DF-UKS iter   4:  -146.63308753481380   -3.51167e-01   1.99032e-02 DIIS
   @DF-UKS iter   5:  -146.66899241942099   -3.59049e-02   7.89046e-03 DIIS
   @DF-UKS iter   6:  -146.67670534669821   -7.71293e-03   5.77803e-04 DIIS
   @DF-UKS iter   7:  -146.67675509618476   -4.97495e-05   1.19417e-04 DIIS
   @DF-UKS iter   8:  -146.67675793233650   -2.83615e-06   1.25240e-05 DIIS
   @DF-UKS iter   9:  -146.67675810970960   -1.77373e-07   1.42348e-06 DIIS
   @DF-UKS iter  10:  -146.67675811293395   -3.22436e-09   4.39557e-07 DIIS
  Energy and wave function converged.


  ==> Post-Iterations <==

   Electrons on quadrature grid:
      Nalpha   =   10.0000000000 ; deviation = 1.421e-14
      Nbeta    =    9.0000000000 ; deviation = -1.421e-14
      Ntotal   =   19.0000000000 ; deviation = 0.000e+00 

   @Spin Contamination Metric:   2.202974042E-04
   @S^2 Expected:                7.500000000E-01
   @S^2 Observed:                7.502202974E-01
   @S   Expected:                5.000000000E-01
   @S   Observed:                5.000000000E-01

    Orbital Energies [Eh]
    ---------------------

    Alpha Occupied:                                                       

       1Ag    -3.640941     1B2u   -2.290779     1B3u   -2.290779  
       1B1u   -2.290779     2Ag    -0.371452     1B1g   -0.371452  
       1B3g   -0.371452     3Ag    -0.371452     1B2g   -0.371452  
       4Ag    -0.222262  

    Alpha Virtual:                                                        

       2B2u    0.006711     2B3u    0.006711     2B1u    0.006712  
       5Ag     0.127774     3B2u    0.239407     3B3u    0.239407  
       3B1u    0.239408     6Ag     0.450603     2B1g    0.450603  
       2B3g    0.450603     7Ag     0.450603     2B2g    0.450603  
       4B2u    1.585667     4B3u    1.585667     4B1u    1.585667  
       1Au     1.585667     5B2u    1.585667     5B1u    1.585668  
       5B3u    1.585668     6B2u    1.633468     6B3u    1.633469  
       6B1u    1.633469     8Ag     1.839696     9Ag     2.040505  
       3B1g    2.040505     3B3g    2.040505    10Ag     2.040506  
       3B2g    2.040506     7B1u    4.621593     7B2u    4.621593  
       7B3u    4.621593     2Au     4.621593     8B1u    4.621593  
       8B2u    4.621593     8B3u    4.621593    11Ag     5.430117  
       4B1g    5.430117     4B3g    5.430117     4B2g    5.430117  
      12Ag     5.430117     5B3g    5.430117     5B1g    5.430117  
      13Ag     5.430118     5B2g    5.430118    14Ag    32.731688  
      15Ag   110.541792  

    Beta Occupied:                                                        

       1Ag    -3.639280     1B1u   -2.289500     1B3u   -2.289500  
       1B2u   -2.289499     2Ag    -0.365227     1B2g   -0.365227  
       1B1g   -0.365227     1B3g   -0.365227     3Ag    -0.365227  

    Beta Virtual:                                                         

       4Ag    -0.084549     2B1u    0.058238     2B3u    0.058239  
       2B2u    0.058240     5Ag     0.165345     3B1u    0.245372  
       3B3u    0.245372     3B2u    0.245372     6Ag     0.458157  
       2B2g    0.458157     2B3g    0.458158     2B1g    0.458158  
       7Ag     0.458159     4B2u    1.601169     4B3u    1.601169  
       4B1u    1.601169     1Au     1.601169     5B2u    1.601169  
       5B1u    1.601169     5B3u    1.601169     6B1u    1.644402  
       6B3u    1.644402     6B2u    1.644403     8Ag     1.850238  
       9Ag     2.056457     3B2g    2.056457     3B3g    2.056457  
       3B1g    2.056457    10Ag     2.056457     7B2u    4.627635  
       7B3u    4.627635     7B1u    4.627635     2Au     4.627635  
       8B2u    4.627635     8B1u    4.627635     8B3u    4.627635  
      11Ag     5.432107     4B1g    5.432107     4B3g    5.432107  
       4B2g    5.432107    12Ag     5.432107     5B3g    5.432107  
       5B1g    5.432107    13Ag     5.432107     5B2g    5.432107  
      14Ag    32.748783    15Ag   110.547974  

    Final Occupation by Irrep:
             Ag   B1g   B2g   B3g    Au   B1u   B2u   B3u 
    DOCC [     3,    1,    1,    1,    0,    1,    1,    1 ]
    SOCC [     1,    0,    0,    0,    0,    0,    0,    0 ]

  @DF-UKS Final Energy:  -146.67675811293395

   => Energetics <=

    Nuclear Repulsion Energy =              0.0000000000000000
    One-Electron Energy =                -260.6474390034434236
    Two-Electron Energy =                 121.9387949405136737
    DFT Exchange-Correlation Energy =      -7.9681140500041963
    Empirical Dispersion Energy =           0.0000000000000000
    VV10 Nonlocal Energy =                  0.0000000000000000
    Total Energy =                       -146.6767581129339533

  UHF NO Occupations:
  HONO-2 :    1B1g 1.9999802
  HONO-1 :    3 Ag 1.9999802
  HONO-0 :    4 Ag 1.0000000
  LUNO+0 :    5 Ag 0.0000198
  LUNO+1 :    2B1g 0.0000198
  LUNO+2 :    2B3g 0.0000198
  LUNO+3 :    2B2g 0.0000198


Computation Completed


Properties will be evaluated at   0.000000,   0.000000,   0.000000 [a0]

Properties computed using the SCF density matrix

  Nuclear Dipole Moment: [e a0]
     X:     0.0000      Y:     0.0000      Z:     0.0000

  Electronic Dipole Moment: [e a0]
     X:     0.0000      Y:     0.0000      Z:     0.0000

  Dipole Moment: [e a0]
     X:     0.0000      Y:     0.0000      Z:     0.0000     Total:     0.0000

  Dipole Moment: [D]
     X:     0.0000      Y:     0.0000      Z:     0.0000     Total:     0.0000


*** tstop() called on compute424.bc4.acrc.priv at Sun Nov  7 05:08:27 2021
Module time:
	user time   =      69.70 seconds =       1.16 minutes
	system time =       2.57 seconds =       0.04 minutes
	total time  =          6 seconds =       0.10 minutes
Total time:
	user time   =      69.70 seconds =       1.16 minutes
	system time =       2.57 seconds =       0.04 minutes
	total time  =          6 seconds =       0.10 minutes

    Psi4 stopped on: Sunday, 07 November 2021 05:08AM
    Psi4 wall time for execution: 0:00:05.56

*** Psi4 exiting successfully. Buy a developer a beer!
