
    -----------------------------------------------------------------------
          Psi4: An Open-Source Ab Initio Electronic Structure Package
                               Psi4 1.4.1 release

                         Git: Rev {HEAD} cd00f19 


    D. G. A. Smith, L. A. Burns, A. C. Simmonett, R. M. Parrish,
    M. C. Schieber, R. Galvelis, P. Kraus, H. Kruse, R. Di Remigio,
    A. Alenaizan, A. M. James, S. Lehtola, J. P. Misiewicz, M. Scheurer,
    R. A. Shaw, J. B. Schriber, Y. Xie, Z. L. Glick, D. A. Sirianni,
    J. S. O'Brien, J. M. Waldrop, A. Kumar, E. G. Hohenstein,
    B. P. Pritchard, B. R. Brooks, H. F. Schaefer III, A. Yu. Sokolov,
    K. Patkowski, A. E. DePrince III, U. Bozkaya, R. A. King,
    F. A. Evangelista, J. M. Turney, T. D. Crawford, C. D. Sherrill,
    J. Chem. Phys. 152(18) 184108 (2020). https://doi.org/10.1063/5.0006002

                            Additional Code Authors
    E. T. Seidl, C. L. Janssen, E. F. Valeev, M. L. Leininger,
    J. F. Gonthier, R. M. Richard, H. R. McAlexander, M. Saitow, X. Wang,
    P. Verma, and M. H. Lechner

             Previous Authors, Complete List of Code Contributors,
                       and Citations for Specific Modules
    https://github.com/psi4/psi4/blob/master/codemeta.json
    https://github.com/psi4/psi4/graphs/contributors
    http://psicode.org/psi4manual/master/introduction.html#citing-psifour

    -----------------------------------------------------------------------


    Psi4 started on: Sunday, 07 November 2021 05:08AM

    Process ID: 17192
    Host:       compute423.bc4.acrc.priv
    PSIDATADIR: /mnt/storage/home/zw18965/.conda/envs/p4env/share/psi4
    Memory:     500.0 MiB
    Threads:    28
    
  ==> Input File <==

--------------------------------------------------------------------------
memory 120 GB

molecule {
0 1
Ag         0.00000        0.00000        0.00000
Ag         0.00000        0.00000        2.58711
 }

set dynamic_level 1
set basis Def2-TZVPPD

energy("MN15-D3BJ")
--------------------------------------------------------------------------

  Memory set to 111.759 GiB by Python driver.

Scratch directory: /tmp/

*** tstart() called on compute423.bc4.acrc.priv
*** at Sun Nov  7 05:08:21 2021

   => Loading Basis Set <=

    Name: DEF2-TZVPPD
    Role: ORBITAL
    Keyword: BASIS
    atoms 1-2 entry AG         line  2174 (ECP: line  3646) file /mnt/storage/home/zw18965/.conda/envs/p4env/share/psi4/basis/def2-tzvppd.gbs 

    !!!  WARNING: ECP capability is in beta. Please check occupations closely.  !!!

   => MN15-D3(BJ): Empirical Dispersion <=

    Grimme's -D3 (BJ-damping) Dispersion Correction
    Grimme S.; Ehrlich S.; Goerigk L. (2011), J. Comput. Chem., 32: 1456
    Parametrisation from:    L. Goerigk, A. Hansen, C. Bauer, S. Ehrlich, A. Najibi, S. Grimme, Phys. Chem. Chem. Phys. 19, 32184-32215, 2017

        s6 =       1.000000
        s8 =       2.097100
        a1 =       0.786200
        a2 =       7.592300


         ---------------------------------------------------------
                                   SCF
               by Justin Turney, Rob Parrish, Andy Simmonett
                          and Daniel G. A. Smith
                              RKS Reference
                       28 Threads, 114440 MiB Core
         ---------------------------------------------------------

  ==> Geometry <==

    Molecular point group: d2h
    Full point group: D_inf_h

    Geometry (in Angstrom), charge = 0, multiplicity = 1:

       Center              X                  Y                   Z               Mass       
    ------------   -----------------  -----------------  -----------------  -----------------
         AG           0.000000000000     0.000000000000    -1.293555000000   106.905091600000
         AG           0.000000000000     0.000000000000     1.293555000000   106.905091600000

  Running in d2h symmetry.

  Rotational constants: A = ************  B =      0.04712  C =      0.04712 [cm^-1]
  Rotational constants: A = ************  B =   1412.59939  C =   1412.59939 [MHz]
  Nuclear repulsion =   73.840297881369551

  Charge       = 0
  Multiplicity = 1
  Electrons    = 38
  Nalpha       = 19
  Nbeta        = 19

  ==> Algorithm <==

  SCF Algorithm Type is DF.
  DIIS enabled.
  MOM disabled.
  Fractional occupation disabled.
  Guess Type is SAD.
  Energy threshold   = 1.00e-06
  Density threshold  = 1.00e-06
  Integral threshold = 1.00e-12

  ==> Primary Basis <==

  Basis Set: DEF2-TZVPPD
    Blend: DEF2-TZVPPD
    Number of shells: 32
    Number of basis functions: 112
    Number of Cartesian functions: 142
    Spherical Harmonics?: true
    Max angular momentum: 4

  Core potential: DEF2-TZVPPD
    Number of shells: 8
    Number of ECP primitives: 28
    Number of ECP core electrons: 56
    Max angular momentum: 3

  ==> DFT Potential <==

   => Composite Functional: MN15-D3BJ <= 

   MN15 Hybrid Meta-GGA Exchange-Correlation Functional

    H. S. Yu, X. He, S. L. Li, and D. G. Truhlar, Chem. Sci. 7, 5032-5051, 2016


    Deriv               =              1
    GGA                 =           TRUE
    Meta                =           TRUE

    Exchange Hybrid     =           TRUE
    MP2 Hybrid          =          FALSE

   => Exchange Functionals <=

    1.0000   XC_HYB_MGGA_X_MN15

   => Exact (HF) Exchange <=

    0.4400               HF 

   => Correlation Functionals <=

    1.0000   XC_MGGA_C_MN15

   => LibXC Density Thresholds  <==

    XC_MGGA_C_MN15:  1.00E-15 
    XC_HYB_MGGA_X_MN15:  1.00E-15 

   => Molecular Quadrature <=

    Radial Scheme          =       TREUTLER
    Pruning Scheme         =           NONE
    Nuclear Scheme         =       TREUTLER

    BS radius alpha        =              1
    Pruning alpha          =              1
    Radial Points          =             75
    Spherical Points       =            302
    Total Points           =          41814
    Total Blocks           =            412
    Max Points             =            252
    Max Functions          =            110
    Weights Tolerance      =       1.00E-15

   => Loading Basis Set <=

    Name: (DEF2-TZVPPD AUX)
    Role: JKFIT
    Keyword: DF_BASIS_SCF
    atoms 1-2 entry AG         line  4364 file /mnt/storage/home/zw18965/.conda/envs/p4env/share/psi4/basis/def2-universal-jkfit.gbs 

  ==> Integral Setup <==

  DFHelper Memory: AOs need 0.055 GiB; user supplied 83.572 GiB. Using in-core AOs.

  ==> MemDFJK: Density-Fitted J/K Matrices <==

    J tasked:                   Yes
    K tasked:                   Yes
    wK tasked:                   No
    OpenMP threads:              28
    Memory [MiB]:             85577
    Algorithm:                 Core
    Schwarz Cutoff:           1E-12
    Mask sparsity (%):       1.1798
    Fitting Condition:        1E-10

   => Auxiliary Basis Set <=

  Basis Set: (DEF2-TZVPPD AUX)
    Blend: DEF2-UNIVERSAL-JKFIT
    Number of shells: 98
    Number of basis functions: 510
    Number of Cartesian functions: 768
    Spherical Harmonics?: true
    Max angular momentum: 6

  Cached 100.0% of DFT collocation blocks in 0.248 [GiB].

  Minimum eigenvalue in the overlap matrix is 9.3036050550E-03.
  Reciprocal condition number of the overlap matrix is 2.4053126480E-03.
    Using symmetric orthogonalization.

  ==> Pre-Iterations <==

  SCF Guess: Superposition of Atomic Densities via on-the-fly atomic UHF (no occupation information).

   -------------------------
    Irrep   Nso     Nmo    
   -------------------------
     Ag        23      23 
     B1g        7       7 
     B2g       13      13 
     B3g       13      13 
     Au         7       7 
     B1u       23      23 
     B2u       13      13 
     B3u       13      13 
   -------------------------
    Total     112     112
   -------------------------

  ==> Iterations <==

                           Total Energy        Delta E     RMS |[F,P]|

   @DF-RKS iter SAD:  -292.88901917315059   -2.92889e+02   0.00000e+00 
   @DF-RKS iter   1:  -293.39103094576393   -5.02012e-01   6.96159e-03 DIIS
   @DF-RKS iter   2:  -293.38908855838241    1.94239e-03   7.77661e-03 DIIS
   @DF-RKS iter   3:  -293.41925235260760   -3.01638e-02   4.64071e-04 DIIS
   @DF-RKS iter   4:  -293.41935358739630   -1.01235e-04   2.44899e-04 DIIS
   @DF-RKS iter   5:  -293.41938631421255   -3.27268e-05   1.04444e-04 DIIS
   @DF-RKS iter   6:  -293.41939460658455   -8.29237e-06   9.62362e-06 DIIS
   @DF-RKS iter   7:  -293.41939514922700   -5.42642e-07   2.23966e-06 DIIS
   @DF-RKS iter   8:  -293.41939515983375   -1.06068e-08   2.25947e-07 DIIS
  Energy and wave function converged.


  ==> Post-Iterations <==

   Electrons on quadrature grid:
      Ntotal   =   37.9999766368 ; deviation = -2.336e-05 

    Orbital Energies [Eh]
    ---------------------

    Doubly Occupied:                                                      

       1Ag    -3.636707     1B1u   -3.636150     2Ag    -2.290598  
       1B3u   -2.285525     1B2u   -2.285525     1B2g   -2.284936  
       1B3g   -2.284936     2B1u   -2.283913     3Ag    -0.398669  
       2B3u   -0.383397     2B2u   -0.383397     4Ag    -0.364853  
       1B1g   -0.364839     3B1u   -0.357452     1Au    -0.357438  
       2B2g   -0.345862     2B3g   -0.345862     4B1u   -0.339063  
       5Ag    -0.236349  

    Virtual:                                                              

       5B1u   -0.073840     3B3u   -0.001756     3B2u   -0.001756  
       6Ag     0.031700     3B2g    0.074565     3B3g    0.074565  
       6B1u    0.135109     7Ag     0.143430     7B1u    0.199184  
       8Ag     0.225067     4B3u    0.231871     4B2u    0.231871  
       4B2g    0.282463     4B3g    0.282463     8B1u    0.405287  
       2B1g    0.412662     9Ag     0.412667     5B3u    0.450829  
       5B2u    0.450829     9B1u    0.505749     2Au     0.505752  
      10Ag     0.619532     5B2g    0.626408     5B3g    0.626408  
      10B1u    0.751334    11Ag     1.439968     6B3u    1.550463  
       6B2u    1.550463    12Ag     1.588816     3B1g    1.588860  
       7B3u    1.602590     7B2u    1.602590     6B2g    1.604236  
       6B3g    1.604236    11B1u    1.612306     3Au     1.612351  
       7B2g    1.632622     7B3g    1.632622     8B3u    1.646054  
       8B2u    1.646054    12B1u    1.663971    13Ag     1.735383  
       8B2g    1.736716     8B3g    1.736716    13B1u    1.741989  
      14Ag     1.921175    15Ag     2.041626     4B1g    2.041636  
       9B3u    2.066174     9B2u    2.066174    14B1u    2.079798  
       4Au     2.079809     9B2g    2.135655     9B3g    2.135655  
      16Ag     2.143500    15B1u    2.271966    16B1u    2.306801  
      17Ag     4.586288    10B3u    4.588607    10B2u    4.588607  
      18Ag     4.620729     5B1g    4.620774    11B2u    4.629777  
      11B3u    4.629777    10B2g    4.631095    10B3g    4.631095  
      17B1u    4.640119     5Au     4.640164    11B2g    4.709525  
      11B3g    4.709525    18B1u    4.887454    12B3u    5.433386  
      12B2u    5.433386    19Ag     5.434422    20Ag     5.435110  
       6B1g    5.435218    19B1u    5.435473     6Au     5.435580  
      12B2g    5.436637    12B3g    5.436637    13B3u    5.437131  
      13B2u    5.437131    13B2g    5.437159    13B3g    5.437159  
      20B1u    5.438925    21Ag     5.438926     7Au     5.439132  
       7B1g    5.439132    21B1u    5.444777    22Ag    32.786069  
      22B1u   33.028131    23Ag   110.560841    23B1u  110.637914  

    Final Occupation by Irrep:
             Ag   B1g   B2g   B3g    Au   B1u   B2u   B3u 
    DOCC [     5,    1,    2,    2,    1,    4,    2,    2 ]

  @DF-RKS Final Energy:  -293.41939515983375

   => Energetics <=

    Nuclear Repulsion Energy =             73.8402978813695512
    One-Electron Energy =                -669.1998681086142824
    Two-Electron Energy =                 317.9112910241731811
    DFT Exchange-Correlation Energy =     -15.9710724067622305
    Empirical Dispersion Energy =          -0.0000435500000000
    VV10 Nonlocal Energy =                  0.0000000000000000
    Total Energy =                       -293.4193951598337549

Computation Completed


Properties will be evaluated at   0.000000,   0.000000,   0.000000 [a0]

Properties computed using the SCF density matrix

  Nuclear Dipole Moment: [e a0]
     X:     0.0000      Y:     0.0000      Z:     0.0000

  Electronic Dipole Moment: [e a0]
     X:     0.0000      Y:     0.0000      Z:     0.0000

  Dipole Moment: [e a0]
     X:     0.0000      Y:     0.0000      Z:     0.0000     Total:     0.0000

  Dipole Moment: [D]
     X:     0.0000      Y:     0.0000      Z:     0.0000     Total:     0.0000


*** tstop() called on compute423.bc4.acrc.priv at Sun Nov  7 05:08:29 2021
Module time:
	user time   =      57.55 seconds =       0.96 minutes
	system time =       2.20 seconds =       0.04 minutes
	total time  =          8 seconds =       0.13 minutes
Total time:
	user time   =      57.55 seconds =       0.96 minutes
	system time =       2.20 seconds =       0.04 minutes
	total time  =          8 seconds =       0.13 minutes

    Psi4 stopped on: Sunday, 07 November 2021 05:08AM
    Psi4 wall time for execution: 0:00:08.36

*** Psi4 exiting successfully. Buy a developer a beer!
