
    -----------------------------------------------------------------------
          Psi4: An Open-Source Ab Initio Electronic Structure Package
                               Psi4 1.4.1 release

                         Git: Rev {HEAD} cd00f19 


    D. G. A. Smith, L. A. Burns, A. C. Simmonett, R. M. Parrish,
    M. C. Schieber, R. Galvelis, P. Kraus, H. Kruse, R. Di Remigio,
    A. Alenaizan, A. M. James, S. Lehtola, J. P. Misiewicz, M. Scheurer,
    R. A. Shaw, J. B. Schriber, Y. Xie, Z. L. Glick, D. A. Sirianni,
    J. S. O'Brien, J. M. Waldrop, A. Kumar, E. G. Hohenstein,
    B. P. Pritchard, B. R. Brooks, H. F. Schaefer III, A. Yu. Sokolov,
    K. Patkowski, A. E. DePrince III, U. Bozkaya, R. A. King,
    F. A. Evangelista, J. M. Turney, T. D. Crawford, C. D. Sherrill,
    J. Chem. Phys. 152(18) 184108 (2020). https://doi.org/10.1063/5.0006002

                            Additional Code Authors
    E. T. Seidl, C. L. Janssen, E. F. Valeev, M. L. Leininger,
    J. F. Gonthier, R. M. Richard, H. R. McAlexander, M. Saitow, X. Wang,
    P. Verma, and M. H. Lechner

             Previous Authors, Complete List of Code Contributors,
                       and Citations for Specific Modules
    https://github.com/psi4/psi4/blob/master/codemeta.json
    https://github.com/psi4/psi4/graphs/contributors
    http://psicode.org/psi4manual/master/introduction.html#citing-psifour

    -----------------------------------------------------------------------


    Psi4 started on: Sunday, 07 November 2021 05:08AM

    Process ID: 20272
    Host:       compute304.bc4.acrc.priv
    PSIDATADIR: /mnt/storage/home/zw18965/.conda/envs/p4env/share/psi4
    Memory:     500.0 MiB
    Threads:    28
    
  ==> Input File <==

--------------------------------------------------------------------------
memory 120 GB

molecule {
0 1
Ag         0.00000        0.00000        0.00000
H          0.00000        0.00000        1.61800
 }

set dynamic_level 1
set basis Def2-TZVPPD

energy("MN15-D3BJ")
--------------------------------------------------------------------------

  Memory set to 111.759 GiB by Python driver.

Scratch directory: /tmp/

*** tstart() called on compute304.bc4.acrc.priv
*** at Sun Nov  7 05:08:21 2021

   => Loading Basis Set <=

    Name: DEF2-TZVPPD
    Role: ORBITAL
    Keyword: BASIS
    atoms 1 entry AG         line  2174 (ECP: line  3646) file /mnt/storage/home/zw18965/.conda/envs/p4env/share/psi4/basis/def2-tzvppd.gbs 
    atoms 2 entry H          line    14 file /mnt/storage/home/zw18965/.conda/envs/p4env/share/psi4/basis/def2-tzvppd.gbs 

    !!!  WARNING: ECP capability is in beta. Please check occupations closely.  !!!

   => MN15-D3(BJ): Empirical Dispersion <=

    Grimme's -D3 (BJ-damping) Dispersion Correction
    Grimme S.; Ehrlich S.; Goerigk L. (2011), J. Comput. Chem., 32: 1456
    Parametrisation from:    L. Goerigk, A. Hansen, C. Bauer, S. Ehrlich, A. Najibi, S. Grimme, Phys. Chem. Chem. Phys. 19, 32184-32215, 2017

        s6 =       1.000000
        s8 =       2.097100
        a1 =       0.786200
        a2 =       7.592300


         ---------------------------------------------------------
                                   SCF
               by Justin Turney, Rob Parrish, Andy Simmonett
                          and Daniel G. A. Smith
                              RKS Reference
                       28 Threads, 114440 MiB Core
         ---------------------------------------------------------

  ==> Geometry <==

    Molecular point group: c2v
    Full point group: C_inf_v

    Geometry (in Angstrom), charge = 0, multiplicity = 1:

       Center              X                  Y                   Z               Mass       
    ------------   -----------------  -----------------  -----------------  -----------------
         AG           0.000000000000     0.000000000000    -0.015110896388   106.905091600000
         H            0.000000000000     0.000000000000     1.602889103612     1.007825032230

  Running in c2v symmetry.

  Rotational constants: A = ************  B =      6.44955  C =      6.44955 [cm^-1]
  Rotational constants: A = ************  B = 193352.62136  C = 193352.62136 [MHz]
  Nuclear repulsion =    6.214071077088998

  Charge       = 0
  Multiplicity = 1
  Electrons    = 20
  Nalpha       = 10
  Nbeta        = 10

  ==> Algorithm <==

  SCF Algorithm Type is DF.
  DIIS enabled.
  MOM disabled.
  Fractional occupation disabled.
  Guess Type is SAD.
  Energy threshold   = 1.00e-06
  Density threshold  = 1.00e-06
  Integral threshold = 1.00e-12

  ==> Primary Basis <==

  Basis Set: DEF2-TZVPPD
    Blend: DEF2-TZVPPD
    Number of shells: 23
    Number of basis functions: 73
    Number of Cartesian functions: 89
    Spherical Harmonics?: true
    Max angular momentum: 4

  Core potential: DEF2-TZVPPD
    Number of shells: 4
    Number of ECP primitives: 14
    Number of ECP core electrons: 28
    Max angular momentum: 3

  ==> DFT Potential <==

   => Composite Functional: MN15-D3BJ <= 

   MN15 Hybrid Meta-GGA Exchange-Correlation Functional

    H. S. Yu, X. He, S. L. Li, and D. G. Truhlar, Chem. Sci. 7, 5032-5051, 2016


    Deriv               =              1
    GGA                 =           TRUE
    Meta                =           TRUE

    Exchange Hybrid     =           TRUE
    MP2 Hybrid          =          FALSE

   => Exchange Functionals <=

    1.0000   XC_HYB_MGGA_X_MN15

   => Exact (HF) Exchange <=

    0.4400               HF 

   => Correlation Functionals <=

    1.0000   XC_MGGA_C_MN15

   => LibXC Density Thresholds  <==

    XC_MGGA_C_MN15:  1.00E-15 
    XC_HYB_MGGA_X_MN15:  1.00E-15 

   => Molecular Quadrature <=

    Radial Scheme          =       TREUTLER
    Pruning Scheme         =           NONE
    Nuclear Scheme         =       TREUTLER

    BS radius alpha        =              1
    Pruning alpha          =              1
    Radial Points          =             75
    Spherical Points       =            302
    Total Points           =          43134
    Total Blocks           =            396
    Max Points             =            256
    Max Functions          =             73
    Weights Tolerance      =       1.00E-15

   => Loading Basis Set <=

    Name: (DEF2-TZVPPD AUX)
    Role: JKFIT
    Keyword: DF_BASIS_SCF
    atoms 1 entry AG         line  4364 file /mnt/storage/home/zw18965/.conda/envs/p4env/share/psi4/basis/def2-universal-jkfit.gbs 
    atoms 2 entry H          line    18 file /mnt/storage/home/zw18965/.conda/envs/p4env/share/psi4/basis/def2-universal-jkfit.gbs 

  ==> Integral Setup <==

  DFHelper Memory: AOs need 0.014 GiB; user supplied 83.614 GiB. Using in-core AOs.

  ==> MemDFJK: Density-Fitted J/K Matrices <==

    J tasked:                   Yes
    K tasked:                   Yes
    wK tasked:                   No
    OpenMP threads:              28
    Memory [MiB]:             85621
    Algorithm:                 Core
    Schwarz Cutoff:           1E-12
    Mask sparsity (%):       0.0000
    Fitting Condition:        1E-10

   => Auxiliary Basis Set <=

  Basis Set: (DEF2-TZVPPD AUX)
    Blend: DEF2-UNIVERSAL-JKFIT
    Number of shells: 55
    Number of basis functions: 273
    Number of Cartesian functions: 404
    Spherical Harmonics?: true
    Max angular momentum: 6

  Cached 100.0% of DFT collocation blocks in 0.205 [GiB].

  Minimum eigenvalue in the overlap matrix is 3.4168603177E-03.
  Reciprocal condition number of the overlap matrix is 8.1811120032E-04.
    Using symmetric orthogonalization.

  ==> Pre-Iterations <==

  SCF Guess: Superposition of Atomic Densities via on-the-fly atomic UHF (no occupation information).

   -------------------------
    Irrep   Nso     Nmo    
   -------------------------
     A1        31      31 
     A2         8       8 
     B1        17      17 
     B2        17      17 
   -------------------------
    Total      73      73
   -------------------------

  ==> Iterations <==

                           Total Energy        Delta E     RMS |[F,P]|

   @DF-RKS iter SAD:  -146.93952706548998   -1.46940e+02   0.00000e+00 
   @DF-RKS iter   1:  -147.20606340489493   -2.66536e-01   8.40129e-03 DIIS
   @DF-RKS iter   2:  -147.19183308524788    1.42303e-02   1.09718e-02 DIIS
   @DF-RKS iter   3:  -147.26486250868624   -7.30294e-02   9.70637e-04 DIIS
   @DF-RKS iter   4:  -147.26541076453151   -5.48256e-04   3.65691e-04 DIIS
   @DF-RKS iter   5:  -147.26553769852660   -1.26934e-04   2.17694e-04 DIIS
   @DF-RKS iter   6:  -147.26557510358680   -3.74051e-05   3.37259e-05 DIIS
   @DF-RKS iter   7:  -147.26557909584312   -3.99226e-06   9.08409e-06 DIIS
   @DF-RKS iter   8:  -147.26557928868715   -1.92844e-07   1.36299e-06 DIIS
   @DF-RKS iter   9:  -147.26557929213953   -3.45239e-09   2.82490e-07 DIIS
  Energy and wave function converged.


  ==> Post-Iterations <==

   Electrons on quadrature grid:
      Ntotal   =   19.9999989622 ; deviation = -1.038e-06 

    Orbital Energies [Eh]
    ---------------------

    Doubly Occupied:                                                      

       1A1    -3.661510     2A1    -2.313872     1B2    -2.308653  
       1B1    -2.308653     3A1    -0.428624     2B2    -0.388003  
       2B1    -0.388003     4A1    -0.381721     1A2    -0.381721  
       5A1    -0.282086  

    Virtual:                                                              

       6A1    -0.052823     3B1     0.022183     3B2     0.022183  
       7A1     0.118918     8A1     0.139113     9A1     0.210681  
       4B2     0.211586     4B1     0.211586     5B2     0.257216  
       5B1     0.257216    10A1     0.432539    11A1     0.445154  
       2A2     0.445154    12A1     0.476930     6B2     0.561096  
       6B1     0.561096    13A1     0.625936     7B2     0.907195  
       7B1     0.907195    14A1     1.109555     3A2     1.572906  
      15A1     1.572908     8B1     1.585533     8B2     1.585533  
       9B2     1.622716     9B1     1.622716    10B2     1.656358  
      10B1     1.656358    16A1     1.682432    17A1     1.849654  
      18A1     2.010056     4A2     2.037280    19A1     2.037280  
      11B2     2.095962    11B1     2.095962    20A1     2.200571  
      21A1     2.592557     5A2     3.157648    22A1     3.157955  
      12B2     3.356988    12B1     3.356988    13B1     3.772370  
      13B2     3.772370    23A1     3.813165    24A1     4.395880  
      14B1     4.607610    14B2     4.607610     6A2     4.619890  
      25A1     4.619893    15B2     4.791290    15B1     4.791290  
      26A1     5.015069    16B2     5.415797    16B1     5.415797  
       7A2     5.416455    27A1     5.416456     8A2     5.419251  
      28A1     5.419252    17B2     5.530703    17B1     5.530703  
      29A1     5.925297    30A1    32.982154    31A1   110.602090  

    Final Occupation by Irrep:
             A1    A2    B1    B2 
    DOCC [     5,    1,    2,    2 ]

  @DF-RKS Final Energy:  -147.26557929213953

   => Energetics <=

    Nuclear Repulsion Energy =              6.2140710770889980
    One-Electron Energy =                -273.3321360229073775
    Two-Electron Energy =                 128.0252082600094639
    DFT Exchange-Correlation Energy =      -8.1727092263306176
    Empirical Dispersion Energy =          -0.0000133800000000
    VV10 Nonlocal Energy =                  0.0000000000000000
    Total Energy =                       -147.2655792921395630

Computation Completed


Properties will be evaluated at   0.000000,   0.000000,   0.000000 [a0]

Properties computed using the SCF density matrix

  Nuclear Dipole Moment: [e a0]
     X:     0.0000      Y:     0.0000      Z:     2.4865

  Electronic Dipole Moment: [e a0]
     X:     0.0000      Y:     0.0000      Z:    -3.6355

  Dipole Moment: [e a0]
     X:     0.0000      Y:     0.0000      Z:    -1.1491     Total:     1.1491

  Dipole Moment: [D]
     X:     0.0000      Y:     0.0000      Z:    -2.9206     Total:     2.9206


*** tstop() called on compute304.bc4.acrc.priv at Sun Nov  7 05:08:27 2021
Module time:
	user time   =      46.06 seconds =       0.77 minutes
	system time =       1.92 seconds =       0.03 minutes
	total time  =          6 seconds =       0.10 minutes
Total time:
	user time   =      46.06 seconds =       0.77 minutes
	system time =       1.92 seconds =       0.03 minutes
	total time  =          6 seconds =       0.10 minutes

    Psi4 stopped on: Sunday, 07 November 2021 05:08AM
    Psi4 wall time for execution: 0:00:06.11

*** Psi4 exiting successfully. Buy a developer a beer!
