
    -----------------------------------------------------------------------
          Psi4: An Open-Source Ab Initio Electronic Structure Package
                               Psi4 1.4.1 release

                         Git: Rev {HEAD} cd00f19 


    D. G. A. Smith, L. A. Burns, A. C. Simmonett, R. M. Parrish,
    M. C. Schieber, R. Galvelis, P. Kraus, H. Kruse, R. Di Remigio,
    A. Alenaizan, A. M. James, S. Lehtola, J. P. Misiewicz, M. Scheurer,
    R. A. Shaw, J. B. Schriber, Y. Xie, Z. L. Glick, D. A. Sirianni,
    J. S. O'Brien, J. M. Waldrop, A. Kumar, E. G. Hohenstein,
    B. P. Pritchard, B. R. Brooks, H. F. Schaefer III, A. Yu. Sokolov,
    K. Patkowski, A. E. DePrince III, U. Bozkaya, R. A. King,
    F. A. Evangelista, J. M. Turney, T. D. Crawford, C. D. Sherrill,
    J. Chem. Phys. 152(18) 184108 (2020). https://doi.org/10.1063/5.0006002

                            Additional Code Authors
    E. T. Seidl, C. L. Janssen, E. F. Valeev, M. L. Leininger,
    J. F. Gonthier, R. M. Richard, H. R. McAlexander, M. Saitow, X. Wang,
    P. Verma, and M. H. Lechner

             Previous Authors, Complete List of Code Contributors,
                       and Citations for Specific Modules
    https://github.com/psi4/psi4/blob/master/codemeta.json
    https://github.com/psi4/psi4/graphs/contributors
    http://psicode.org/psi4manual/master/introduction.html#citing-psifour

    -----------------------------------------------------------------------


    Psi4 started on: Sunday, 07 November 2021 05:08AM

    Process ID: 10624
    Host:       compute431.bc4.acrc.priv
    PSIDATADIR: /mnt/storage/home/zw18965/.conda/envs/p4env/share/psi4
    Memory:     500.0 MiB
    Threads:    28
    
  ==> Input File <==

--------------------------------------------------------------------------
memory 120 GB

molecule {
0 2
Al         0.00000        0.00000        0.00000
 }

set reference uks
set dynamic_level 1
set basis Def2-TZVPPD

energy("MN15-D3BJ")
--------------------------------------------------------------------------

  Memory set to 111.759 GiB by Python driver.

Scratch directory: /tmp/

*** tstart() called on compute431.bc4.acrc.priv
*** at Sun Nov  7 05:08:20 2021

   => Loading Basis Set <=

    Name: DEF2-TZVPPD
    Role: ORBITAL
    Keyword: BASIS
    atoms 1 entry AL         line   417 file /mnt/storage/home/zw18965/.conda/envs/p4env/share/psi4/basis/def2-tzvppd.gbs 

   => MN15-D3(BJ): Empirical Dispersion <=

    Grimme's -D3 (BJ-damping) Dispersion Correction
    Grimme S.; Ehrlich S.; Goerigk L. (2011), J. Comput. Chem., 32: 1456
    Parametrisation from:    L. Goerigk, A. Hansen, C. Bauer, S. Ehrlich, A. Najibi, S. Grimme, Phys. Chem. Chem. Phys. 19, 32184-32215, 2017

        s6 =       1.000000
        s8 =       2.097100
        a1 =       0.786200
        a2 =       7.592300


         ---------------------------------------------------------
                                   SCF
               by Justin Turney, Rob Parrish, Andy Simmonett
                          and Daniel G. A. Smith
                              UKS Reference
                       28 Threads, 114440 MiB Core
         ---------------------------------------------------------

  ==> Geometry <==

    Molecular point group: d2h
    Geometry (in Angstrom), charge = 0, multiplicity = 2:

       Center              X                  Y                   Z               Mass       
    ------------   -----------------  -----------------  -----------------  -----------------
         AL           0.000000000000     0.000000000000     0.000000000000    26.981538530000

  Running in d2h symmetry.

  Rotational constants: A = ************  B = ************  C = ************ [cm^-1]
  Rotational constants: A = ************  B = ************  C = ************ [MHz]
  Nuclear repulsion =    0.000000000000000

  Charge       = 0
  Multiplicity = 2
  Electrons    = 13
  Nalpha       = 7
  Nbeta        = 6

  ==> Algorithm <==

  SCF Algorithm Type is DF.
  DIIS enabled.
  MOM disabled.
  Fractional occupation disabled.
  Guess Type is CORE.
  Energy threshold   = 1.00e-06
  Density threshold  = 1.00e-06
  Integral threshold = 1.00e-12

  ==> Primary Basis <==

  Basis Set: DEF2-TZVPPD
    Blend: DEF2-TZVPPD
    Number of shells: 16
    Number of basis functions: 48
    Number of Cartesian functions: 55
    Spherical Harmonics?: true
    Max angular momentum: 3

  ==> DFT Potential <==

   => Composite Functional: MN15-D3BJ <= 

   MN15 Hybrid Meta-GGA Exchange-Correlation Functional

    H. S. Yu, X. He, S. L. Li, and D. G. Truhlar, Chem. Sci. 7, 5032-5051, 2016


    Deriv               =              1
    GGA                 =           TRUE
    Meta                =           TRUE

    Exchange Hybrid     =           TRUE
    MP2 Hybrid          =          FALSE

   => Exchange Functionals <=

    1.0000   XC_HYB_MGGA_X_MN15

   => Exact (HF) Exchange <=

    0.4400               HF 

   => Correlation Functionals <=

    1.0000   XC_MGGA_C_MN15

   => LibXC Density Thresholds  <==

    XC_MGGA_C_MN15:  1.00E-15 
    XC_HYB_MGGA_X_MN15:  1.00E-15 

   => Molecular Quadrature <=

    Radial Scheme          =       TREUTLER
    Pruning Scheme         =           NONE
    Nuclear Scheme         =       TREUTLER

    BS radius alpha        =              1
    Pruning alpha          =              1
    Radial Points          =             75
    Spherical Points       =            302
    Total Points           =          22016
    Total Blocks           =            242
    Max Points             =            245
    Max Functions          =             48
    Weights Tolerance      =       1.00E-15

   => Loading Basis Set <=

    Name: (DEF2-TZVPPD AUX)
    Role: JKFIT
    Keyword: DF_BASIS_SCF
    atoms 1 entry AL         line   654 file /mnt/storage/home/zw18965/.conda/envs/p4env/share/psi4/basis/def2-universal-jkfit.gbs 

  ==> Integral Setup <==

  DFHelper Memory: AOs need 0.003 GiB; user supplied 83.750 GiB. Using in-core AOs.

  ==> MemDFJK: Density-Fitted J/K Matrices <==

    J tasked:                   Yes
    K tasked:                   Yes
    wK tasked:                   No
    OpenMP threads:              28
    Memory [MiB]:             85760
    Algorithm:                 Core
    Schwarz Cutoff:           1E-12
    Mask sparsity (%):       0.0000
    Fitting Condition:        1E-10

   => Auxiliary Basis Set <=

  Basis Set: (DEF2-TZVPPD AUX)
    Blend: DEF2-UNIVERSAL-JKFIT
    Number of shells: 38
    Number of basis functions: 128
    Number of Cartesian functions: 155
    Spherical Harmonics?: true
    Max angular momentum: 4

  Cached 100.0% of DFT collocation blocks in 0.069 [GiB].

  Minimum eigenvalue in the overlap matrix is 2.4089687170E-02.
  Reciprocal condition number of the overlap matrix is 8.2205348864E-03.
    Using symmetric orthogonalization.

  ==> Pre-Iterations <==

  SCF Guess: Core (One-Electron) Hamiltonian.

   -------------------------------------------------------
    Irrep   Nso     Nmo     Nalpha   Nbeta   Ndocc  Nsocc
   -------------------------------------------------------
     Ag        14      14       2       2       2       0
     B1g        4       4       0       0       0       0
     B2g        4       4       0       0       0       0
     B3g        4       4       0       0       0       0
     Au         1       1       0       0       0       0
     B1u        7       7       2       1       1       1
     B2u        7       7       2       2       2       0
     B3u        7       7       1       1       1       0
   -------------------------------------------------------
    Total      48      48       7       6       6       1
   -------------------------------------------------------

  ==> Iterations <==

                           Total Energy        Delta E     RMS |[F,P]|

    Occupation by irrep:
             Ag   B1g   B2g   B3g    Au   B1u   B2u   B3u 
    DOCC [     3,    0,    0,    0,    0,    1,    1,    1 ]
    SOCC [     1,    0,    0,    0,    0,    0,    0,    0 ]

   @DF-UKS iter   1:  -217.31512026220349   -2.17315e+02   6.36194e-01 DIIS
    Occupation by irrep:
             Ag   B1g   B2g   B3g    Au   B1u   B2u   B3u 
    DOCC [     3,    0,    0,    0,    0,    1,    1,    1 ]
    SOCC [     0,    0,    0,    0,    0,    1,    0,    0 ]

   @DF-UKS iter   2:  -202.02810688575272    1.52870e+01   4.05513e-01 DIIS
   @DF-UKS iter   3:  -239.54748843186681   -3.75194e+01   2.08011e-01 DIIS
   @DF-UKS iter   4:  -242.04399782640536   -2.49651e+00   3.78653e-02 DIIS
   @DF-UKS iter   5:  -242.25816799977764   -2.14170e-01   3.19981e-03 DIIS
   @DF-UKS iter   6:  -242.26091141253386   -2.74341e-03   6.47827e-04 DIIS
   @DF-UKS iter   7:  -242.26096601586528   -5.46033e-05   6.20985e-05 DIIS
   @DF-UKS iter   8:  -242.26096815316859   -2.13730e-06   1.27151e-05 DIIS
   @DF-UKS iter   9:  -242.26096821218368   -5.90151e-08   1.74276e-06 DIIS
   @DF-UKS iter  10:  -242.26096821441652   -2.23284e-09   4.66604e-07 DIIS
  Energy and wave function converged.


  ==> Post-Iterations <==

   Electrons on quadrature grid:
      Nalpha   =    6.9999999888 ; deviation = -1.117e-08
      Nbeta    =    5.9999999888 ; deviation = -1.116e-08
      Ntotal   =   12.9999999777 ; deviation = -2.233e-08 

   @Spin Contamination Metric:   2.941419600E-03
   @S^2 Expected:                7.500000000E-01
   @S^2 Observed:                7.529414196E-01
   @S   Expected:                5.000000000E-01
   @S   Observed:                5.000000000E-01

    Orbital Energies [Eh]
    ---------------------

    Alpha Occupied:                                                       

       1Ag   -55.268597     2Ag    -4.074796     1B3u   -2.758183  
       1B2u   -2.758183     1B1u   -2.755157     3Ag    -0.336008  
       2B1u   -0.134499  

    Alpha Virtual:                                                        

       2B3u   -0.055897     2B2u   -0.055897     4Ag     0.039756  
       1B2g    0.084633     1B3g    0.084633     5Ag     0.099490  
       1B1g    0.103323     6Ag     0.103323     3B1u    0.194621  
       3B3u    0.235439     3B2u    0.235439     2B2g    0.261842  
       2B3g    0.261842     7Ag     0.268326     2B1g    0.271924  
       8Ag     0.271924     9Ag     0.273409     4B1u    0.666681  
       4B3u    0.681044     4B2u    0.681045    10Ag     0.691375  
       1Au     0.700995     5B1u    0.700995     3B2g    0.705214  
       3B3g    0.705214     5B2u    0.756037     5B3u    0.756037  
       3B1g    0.778529    11Ag     0.778530     6B1u    1.694252  
       6B3u    1.805260     6B2u    1.805261    12Ag     3.108492  
       4B2g    3.115521     4B3g    3.115521    13Ag     3.140352  
       4B1g    3.140352    14Ag     6.441262     7B1u    8.721856  
       7B3u    8.787610     7B2u    8.787610  

    Beta Occupied:                                                        

       1Ag   -55.266824     2Ag    -4.072416     1B2u   -2.757253  
       1B3u   -2.757253     1B1u   -2.746646     3Ag    -0.312369  

    Beta Virtual:                                                         

       2B2u   -0.039525     2B3u   -0.039525     2B1u   -0.017269  
       4Ag     0.067833     5Ag     0.106234     1B1g    0.106234  
       1B3g    0.123412     1B2g    0.123413     6Ag     0.128031  
       3B2u    0.258180     3B3u    0.258180     2B1g    0.278044  
       7Ag     0.278044     8Ag     0.288520     3B1u    0.293379  
       2B3g    0.305006     2B2g    0.305006     9Ag     0.313500  
       4B3u    0.744630     4B2u    0.744630    10Ag     0.763291  
       3B1g    0.763291     4B1u    0.805791     1Au     0.805791  
       3B3g    0.817778     3B2g    0.817778     5B2u    0.834479  
       5B3u    0.834480    11Ag     0.841362     5B1u    0.846343  
       6B2u    1.819123     6B3u    1.819124     6B1u    1.889108  
      12Ag     3.141005     4B1g    3.141005     4B3g    3.168488  
       4B2g    3.168488    13Ag     3.176599    14Ag     6.455508  
       7B2u    8.788021     7B3u    8.788022     7B1u    8.832967  

    Final Occupation by Irrep:
             Ag   B1g   B2g   B3g    Au   B1u   B2u   B3u 
    DOCC [     3,    0,    0,    0,    0,    1,    1,    1 ]
    SOCC [     0,    0,    0,    0,    0,    1,    0,    0 ]

  @DF-UKS Final Energy:  -242.26096821441652

   => Energetics <=

    Nuclear Repulsion Energy =              0.0000000000000000
    One-Electron Energy =                -336.7035650842373116
    Two-Electron Energy =                 104.9623656211906280
    DFT Exchange-Correlation Energy =     -10.5197687513698384
    Empirical Dispersion Energy =           0.0000000000000000
    VV10 Nonlocal Energy =                  0.0000000000000000
    Total Energy =                       -242.2609682144165220

  UHF NO Occupations:
  HONO-2 :    1B1u 1.9999784
  HONO-1 :    3 Ag 1.9985511
  HONO-0 :    2B1u 1.0000000
  LUNO+0 :    4 Ag 0.0014489
  LUNO+1 :    3B1u 0.0000216
  LUNO+2 :    5 Ag 0.0000011
  LUNO+3 :    2B2u 0.0000001


Computation Completed


Properties will be evaluated at   0.000000,   0.000000,   0.000000 [a0]

Properties computed using the SCF density matrix

  Nuclear Dipole Moment: [e a0]
     X:     0.0000      Y:     0.0000      Z:     0.0000

  Electronic Dipole Moment: [e a0]
     X:     0.0000      Y:     0.0000      Z:     0.0000

  Dipole Moment: [e a0]
     X:     0.0000      Y:     0.0000      Z:     0.0000     Total:     0.0000

  Dipole Moment: [D]
     X:     0.0000      Y:     0.0000      Z:     0.0000     Total:     0.0000


*** tstop() called on compute431.bc4.acrc.priv at Sun Nov  7 05:08:23 2021
Module time:
	user time   =      50.81 seconds =       0.85 minutes
	system time =       2.12 seconds =       0.04 minutes
	total time  =          3 seconds =       0.05 minutes
Total time:
	user time   =      50.81 seconds =       0.85 minutes
	system time =       2.12 seconds =       0.04 minutes
	total time  =          3 seconds =       0.05 minutes

    Psi4 stopped on: Sunday, 07 November 2021 05:08AM
    Psi4 wall time for execution: 0:00:03.25

*** Psi4 exiting successfully. Buy a developer a beer!
