
    -----------------------------------------------------------------------
          Psi4: An Open-Source Ab Initio Electronic Structure Package
                               Psi4 1.4.1 release

                         Git: Rev {HEAD} cd00f19 


    D. G. A. Smith, L. A. Burns, A. C. Simmonett, R. M. Parrish,
    M. C. Schieber, R. Galvelis, P. Kraus, H. Kruse, R. Di Remigio,
    A. Alenaizan, A. M. James, S. Lehtola, J. P. Misiewicz, M. Scheurer,
    R. A. Shaw, J. B. Schriber, Y. Xie, Z. L. Glick, D. A. Sirianni,
    J. S. O'Brien, J. M. Waldrop, A. Kumar, E. G. Hohenstein,
    B. P. Pritchard, B. R. Brooks, H. F. Schaefer III, A. Yu. Sokolov,
    K. Patkowski, A. E. DePrince III, U. Bozkaya, R. A. King,
    F. A. Evangelista, J. M. Turney, T. D. Crawford, C. D. Sherrill,
    J. Chem. Phys. 152(18) 184108 (2020). https://doi.org/10.1063/5.0006002

                            Additional Code Authors
    E. T. Seidl, C. L. Janssen, E. F. Valeev, M. L. Leininger,
    J. F. Gonthier, R. M. Richard, H. R. McAlexander, M. Saitow, X. Wang,
    P. Verma, and M. H. Lechner

             Previous Authors, Complete List of Code Contributors,
                       and Citations for Specific Modules
    https://github.com/psi4/psi4/blob/master/codemeta.json
    https://github.com/psi4/psi4/graphs/contributors
    http://psicode.org/psi4manual/master/introduction.html#citing-psifour

    -----------------------------------------------------------------------


    Psi4 started on: Sunday, 07 November 2021 05:08AM

    Process ID: 22790
    Host:       compute297.bc4.acrc.priv
    PSIDATADIR: /mnt/storage/home/zw18965/.conda/envs/p4env/share/psi4
    Memory:     500.0 MiB
    Threads:    28
    
  ==> Input File <==

--------------------------------------------------------------------------
memory 120 GB

molecule {
0 1
Cl         0.00000        0.00000       -1.07053
Al         0.00000        0.00000        1.07053
 }

set dynamic_level 1
set basis Def2-TZVPPD

energy("MN15-D3BJ")
--------------------------------------------------------------------------

  Memory set to 111.759 GiB by Python driver.

Scratch directory: /tmp/

*** tstart() called on compute297.bc4.acrc.priv
*** at Sun Nov  7 05:08:21 2021

   => Loading Basis Set <=

    Name: DEF2-TZVPPD
    Role: ORBITAL
    Keyword: BASIS
    atoms 1 entry CL         line   607 file /mnt/storage/home/zw18965/.conda/envs/p4env/share/psi4/basis/def2-tzvppd.gbs 
    atoms 2 entry AL         line   417 file /mnt/storage/home/zw18965/.conda/envs/p4env/share/psi4/basis/def2-tzvppd.gbs 

   => MN15-D3(BJ): Empirical Dispersion <=

    Grimme's -D3 (BJ-damping) Dispersion Correction
    Grimme S.; Ehrlich S.; Goerigk L. (2011), J. Comput. Chem., 32: 1456
    Parametrisation from:    L. Goerigk, A. Hansen, C. Bauer, S. Ehrlich, A. Najibi, S. Grimme, Phys. Chem. Chem. Phys. 19, 32184-32215, 2017

        s6 =       1.000000
        s8 =       2.097100
        a1 =       0.786200
        a2 =       7.592300


         ---------------------------------------------------------
                                   SCF
               by Justin Turney, Rob Parrish, Andy Simmonett
                          and Daniel G. A. Smith
                              RKS Reference
                       28 Threads, 114440 MiB Core
         ---------------------------------------------------------

  ==> Geometry <==

    Molecular point group: c2v
    Full point group: C_inf_v

    Geometry (in Angstrom), charge = 0, multiplicity = 1:

       Center              X                  Y                   Z               Mass       
    ------------   -----------------  -----------------  -----------------  -----------------
         CL           0.000000000000     0.000000000000    -0.932505699397    34.968852682000
         AL           0.000000000000     0.000000000000     1.208554300603    26.981538530000

  Running in c2v symmetry.

  Rotational constants: A = ************  B =      0.24145  C =      0.24145 [cm^-1]
  Rotational constants: A = ************  B =   7238.61508  C =   7238.61508 [MHz]
  Nuclear repulsion =   54.621618991560261

  Charge       = 0
  Multiplicity = 1
  Electrons    = 30
  Nalpha       = 15
  Nbeta        = 15

  ==> Algorithm <==

  SCF Algorithm Type is DF.
  DIIS enabled.
  MOM disabled.
  Fractional occupation disabled.
  Guess Type is SAD.
  Energy threshold   = 1.00e-06
  Density threshold  = 1.00e-06
  Integral threshold = 1.00e-12

  ==> Primary Basis <==

  Basis Set: DEF2-TZVPPD
    Blend: DEF2-TZVPPD
    Number of shells: 33
    Number of basis functions: 99
    Number of Cartesian functions: 113
    Spherical Harmonics?: true
    Max angular momentum: 3

  ==> DFT Potential <==

   => Composite Functional: MN15-D3BJ <= 

   MN15 Hybrid Meta-GGA Exchange-Correlation Functional

    H. S. Yu, X. He, S. L. Li, and D. G. Truhlar, Chem. Sci. 7, 5032-5051, 2016


    Deriv               =              1
    GGA                 =           TRUE
    Meta                =           TRUE

    Exchange Hybrid     =           TRUE
    MP2 Hybrid          =          FALSE

   => Exchange Functionals <=

    1.0000   XC_HYB_MGGA_X_MN15

   => Exact (HF) Exchange <=

    0.4400               HF 

   => Correlation Functionals <=

    1.0000   XC_MGGA_C_MN15

   => LibXC Density Thresholds  <==

    XC_MGGA_C_MN15:  1.00E-15 
    XC_HYB_MGGA_X_MN15:  1.00E-15 

   => Molecular Quadrature <=

    Radial Scheme          =       TREUTLER
    Pruning Scheme         =           NONE
    Nuclear Scheme         =       TREUTLER

    BS radius alpha        =              1
    Pruning alpha          =              1
    Radial Points          =             75
    Spherical Points       =            302
    Total Points           =          44074
    Total Blocks           =            428
    Max Points             =            255
    Max Functions          =             98
    Weights Tolerance      =       1.00E-15

   => Loading Basis Set <=

    Name: (DEF2-TZVPPD AUX)
    Role: JKFIT
    Keyword: DF_BASIS_SCF
    atoms 1 entry CL         line   986 file /mnt/storage/home/zw18965/.conda/envs/p4env/share/psi4/basis/def2-universal-jkfit.gbs 
    atoms 2 entry AL         line   654 file /mnt/storage/home/zw18965/.conda/envs/p4env/share/psi4/basis/def2-universal-jkfit.gbs 

  ==> Integral Setup <==

  DFHelper Memory: AOs need 0.023 GiB; user supplied 83.564 GiB. Using in-core AOs.

  ==> MemDFJK: Density-Fitted J/K Matrices <==

    J tasked:                   Yes
    K tasked:                   Yes
    wK tasked:                   No
    OpenMP threads:              28
    Memory [MiB]:             85569
    Algorithm:                 Core
    Schwarz Cutoff:           1E-12
    Mask sparsity (%):       1.3672
    Fitting Condition:        1E-10

   => Auxiliary Basis Set <=

  Basis Set: (DEF2-TZVPPD AUX)
    Blend: DEF2-UNIVERSAL-JKFIT
    Number of shells: 76
    Number of basis functions: 256
    Number of Cartesian functions: 310
    Spherical Harmonics?: true
    Max angular momentum: 4

  Cached 100.0% of DFT collocation blocks in 0.255 [GiB].

  Minimum eigenvalue in the overlap matrix is 1.5138583548E-03.
  Reciprocal condition number of the overlap matrix is 3.2671110224E-04.
    Using symmetric orthogonalization.

  ==> Pre-Iterations <==

  SCF Guess: Superposition of Atomic Densities via on-the-fly atomic UHF (no occupation information).

   -------------------------
    Irrep   Nso     Nmo    
   -------------------------
     A1        43      43 
     A2        10      10 
     B1        23      23 
     B2        23      23 
   -------------------------
    Total      99      99
   -------------------------

  ==> Iterations <==

                           Total Energy        Delta E     RMS |[F,P]|

   @DF-RKS iter SAD:  -702.06447309829764   -7.02064e+02   0.00000e+00 
   @DF-RKS iter   1:  -702.45971919483804   -3.95246e-01   8.55299e-03 DIIS
   @DF-RKS iter   2:  -702.46336433907686   -3.64514e-03   7.31888e-03 DIIS
   @DF-RKS iter   3:  -702.51274618855052   -4.93818e-02   1.01098e-03 DIIS
   @DF-RKS iter   4:  -702.51404091413247   -1.29473e-03   1.01506e-04 DIIS
   @DF-RKS iter   5:  -702.51405113876899   -1.02246e-05   3.79183e-05 DIIS
   @DF-RKS iter   6:  -702.51405279933022   -1.66056e-06   8.89413e-06 DIIS
   @DF-RKS iter   7:  -702.51405292921197   -1.29882e-07   1.93029e-06 DIIS
   @DF-RKS iter   8:  -702.51405293514620   -5.93423e-09   1.52714e-07 DIIS
  Energy and wave function converged.


  ==> Post-Iterations <==

   Electrons on quadrature grid:
      Ntotal   =   30.0000007597 ; deviation = 7.597e-07 

    Orbital Energies [Eh]
    ---------------------

    Doubly Occupied:                                                      

       1A1  -100.320276     2A1   -55.286122     3A1    -9.145010  
       4A1    -7.158561     1B1    -7.156687     1B2    -7.156687  
       5A1    -4.091475     2B2    -2.774935     2B1    -2.774935  
       6A1    -2.769890     7A1    -0.831947     8A1    -0.440777  
       3B2    -0.368234     3B1    -0.368234     9A1    -0.273687  

    Virtual:                                                              

       4B1    -0.044119     4B2    -0.044119    10A1     0.028731  
      11A1     0.053199    12A1     0.089924    13A1     0.095002  
       1A2     0.095002     5B1     0.097765     5B2     0.097765  
       6B1     0.121826     6B2     0.121826    14A1     0.155877  
      15A1     0.189642    16A1     0.235154     2A2     0.235156  
       7B2     0.244276     7B1     0.244276    17A1     0.248827  
      18A1     0.278372     8B1     0.283086     8B2     0.283086  
       3A2     0.283124    19A1     0.283124     9B2     0.375910  
       9B1     0.375910    20A1     0.401756    21A1     0.449870  
      10B2     0.560991    10B1     0.560991    22A1     0.598274  
      11B1     0.636982    11B2     0.636982    23A1     0.651153  
       4A2     0.651172    12B1     0.747202    12B2     0.747202  
      24A1     0.765671     5A2     0.765693    25A1     0.773579  
      26A1     0.793980     6A2     0.793994    13B1     0.794053  
      13B2     0.794053    27A1     0.874275    14B1     1.003621  
      14B2     1.003621    28A1     1.074214    29A1     1.134063  
      15B1     1.852014    15B2     1.852014     7A2     1.911266  
      30A1     1.911352    16B1     1.968536    16B2     1.968536  
      31A1     1.980333    17B1     2.086475    17B2     2.086475  
      32A1     2.127968     8A2     2.128050    33A1     2.163099  
      18B1     2.303800    18B2     2.303800    19B1     2.316771  
      19B2     2.316771    34A1     2.406759    35A1     2.662562  
      36A1     3.128114     9A2     3.128134    20B1     3.205026  
      20B2     3.205026    37A1     3.431390    38A1     7.041190  
      10A2     8.059233    39A1     8.059311    21B1     8.113669  
      21B2     8.113669    40A1     8.202142    22B1     8.833411  
      22B2     8.833411    41A1     9.111673    23B1    10.375454  
      23B2    10.375454    42A1    10.730108    43A1    24.443560  

    Final Occupation by Irrep:
             A1    A2    B1    B2 
    DOCC [     9,    0,    3,    3 ]

  @DF-RKS Final Energy:  -702.51405293514620

   => Energetics <=

    Nuclear Repulsion Energy =             54.6216189915602612
    One-Electron Energy =               -1082.0277515334707914
    Two-Electron Energy =                 351.5357586067290754
    DFT Exchange-Correlation Energy =     -26.6436362399647351
    Empirical Dispersion Energy =          -0.0000427600000000
    VV10 Nonlocal Energy =                  0.0000000000000000
    Total Energy =                       -702.5140529351460827

Computation Completed


Properties will be evaluated at   0.000000,   0.000000,   0.000000 [a0]

Properties computed using the SCF density matrix

  Nuclear Dipole Moment: [e a0]
     X:     0.0000      Y:     0.0000      Z:    -0.2672

  Electronic Dipole Moment: [e a0]
     X:     0.0000      Y:     0.0000      Z:     0.9437

  Dipole Moment: [e a0]
     X:     0.0000      Y:     0.0000      Z:     0.6765     Total:     0.6765

  Dipole Moment: [D]
     X:     0.0000      Y:     0.0000      Z:     1.7195     Total:     1.7195


*** tstop() called on compute297.bc4.acrc.priv at Sun Nov  7 05:08:23 2021
Module time:
	user time   =      24.35 seconds =       0.41 minutes
	system time =       1.41 seconds =       0.02 minutes
	total time  =          2 seconds =       0.03 minutes
Total time:
	user time   =      24.35 seconds =       0.41 minutes
	system time =       1.41 seconds =       0.02 minutes
	total time  =          2 seconds =       0.03 minutes

    Psi4 stopped on: Sunday, 07 November 2021 05:08AM
    Psi4 wall time for execution: 0:00:02.60

*** Psi4 exiting successfully. Buy a developer a beer!
