
    -----------------------------------------------------------------------
          Psi4: An Open-Source Ab Initio Electronic Structure Package
                               Psi4 1.4.1 release

                         Git: Rev {HEAD} cd00f19 


    D. G. A. Smith, L. A. Burns, A. C. Simmonett, R. M. Parrish,
    M. C. Schieber, R. Galvelis, P. Kraus, H. Kruse, R. Di Remigio,
    A. Alenaizan, A. M. James, S. Lehtola, J. P. Misiewicz, M. Scheurer,
    R. A. Shaw, J. B. Schriber, Y. Xie, Z. L. Glick, D. A. Sirianni,
    J. S. O'Brien, J. M. Waldrop, A. Kumar, E. G. Hohenstein,
    B. P. Pritchard, B. R. Brooks, H. F. Schaefer III, A. Yu. Sokolov,
    K. Patkowski, A. E. DePrince III, U. Bozkaya, R. A. King,
    F. A. Evangelista, J. M. Turney, T. D. Crawford, C. D. Sherrill,
    J. Chem. Phys. 152(18) 184108 (2020). https://doi.org/10.1063/5.0006002

                            Additional Code Authors
    E. T. Seidl, C. L. Janssen, E. F. Valeev, M. L. Leininger,
    J. F. Gonthier, R. M. Richard, H. R. McAlexander, M. Saitow, X. Wang,
    P. Verma, and M. H. Lechner

             Previous Authors, Complete List of Code Contributors,
                       and Citations for Specific Modules
    https://github.com/psi4/psi4/blob/master/codemeta.json
    https://github.com/psi4/psi4/graphs/contributors
    http://psicode.org/psi4manual/master/introduction.html#citing-psifour

    -----------------------------------------------------------------------


    Psi4 started on: Sunday, 07 November 2021 05:08AM

    Process ID: 11976
    Host:       compute311.bc4.acrc.priv
    PSIDATADIR: /mnt/storage/home/zw18965/.conda/envs/p4env/share/psi4
    Memory:     500.0 MiB
    Threads:    28
    
  ==> Input File <==

--------------------------------------------------------------------------
memory 120 GB

molecule {
0 2
C          0.00000        0.00000        0.00000
H          0.00000        0.00000        1.07732
H          0.93298        0.00000       -0.53866
H         -0.93298        0.00000       -0.53866
 }

set reference uks
set dynamic_level 1
set basis Def2-TZVPPD

energy("MN15-D3BJ")
--------------------------------------------------------------------------

  Memory set to 111.759 GiB by Python driver.

Scratch directory: /tmp/

*** tstart() called on compute311.bc4.acrc.priv
*** at Sun Nov  7 05:08:21 2021

   => Loading Basis Set <=

    Name: DEF2-TZVPPD
    Role: ORBITAL
    Keyword: BASIS
    atoms 1   entry C          line   144 file /mnt/storage/home/zw18965/.conda/envs/p4env/share/psi4/basis/def2-tzvppd.gbs 
    atoms 2-4 entry H          line    14 file /mnt/storage/home/zw18965/.conda/envs/p4env/share/psi4/basis/def2-tzvppd.gbs 

   => MN15-D3(BJ): Empirical Dispersion <=

    Grimme's -D3 (BJ-damping) Dispersion Correction
    Grimme S.; Ehrlich S.; Goerigk L. (2011), J. Comput. Chem., 32: 1456
    Parametrisation from:    L. Goerigk, A. Hansen, C. Bauer, S. Ehrlich, A. Najibi, S. Grimme, Phys. Chem. Chem. Phys. 19, 32184-32215, 2017

        s6 =       1.000000
        s8 =       2.097100
        a1 =       0.786200
        a2 =       7.592300


         ---------------------------------------------------------
                                   SCF
               by Justin Turney, Rob Parrish, Andy Simmonett
                          and Daniel G. A. Smith
                              UKS Reference
                       28 Threads, 114440 MiB Core
         ---------------------------------------------------------

  ==> Geometry <==

    Molecular point group: c2v
    Full point group: C2v

    Geometry (in Angstrom), charge = 0, multiplicity = 2:

       Center              X                  Y                   Z               Mass       
    ------------   -----------------  -----------------  -----------------  -----------------
         C            0.000000000000    -0.000000000000     0.000000000000    12.000000000000
         H            0.000000000000    -0.000000000000     1.077320000000     1.007825032230
         H            0.932980000000     0.000000000000    -0.538660000000     1.007825032230
         H           -0.932980000000    -0.000000000000    -0.538660000000     1.007825032230

  Running in c2v symmetry.

  Rotational constants: A =      9.60808  B =      9.60795  C =      4.80401 [cm^-1]
  Rotational constants: A = 288043.04579  B = 288039.03969  C = 144020.52137 [MHz]
  Nuclear repulsion =    9.692373587579699

  Charge       = 0
  Multiplicity = 2
  Electrons    = 9
  Nalpha       = 5
  Nbeta        = 4

  ==> Algorithm <==

  SCF Algorithm Type is DF.
  DIIS enabled.
  MOM disabled.
  Fractional occupation disabled.
  Guess Type is SAD.
  Energy threshold   = 1.00e-06
  Density threshold  = 1.00e-06
  Integral threshold = 1.00e-12

  ==> Primary Basis <==

  Basis Set: DEF2-TZVPPD
    Blend: DEF2-TZVPPD
    Number of shells: 34
    Number of basis functions: 88
    Number of Cartesian functions: 97
    Spherical Harmonics?: true
    Max angular momentum: 3

  ==> DFT Potential <==

   => Composite Functional: MN15-D3BJ <= 

   MN15 Hybrid Meta-GGA Exchange-Correlation Functional

    H. S. Yu, X. He, S. L. Li, and D. G. Truhlar, Chem. Sci. 7, 5032-5051, 2016


    Deriv               =              1
    GGA                 =           TRUE
    Meta                =           TRUE

    Exchange Hybrid     =           TRUE
    MP2 Hybrid          =          FALSE

   => Exchange Functionals <=

    1.0000   XC_HYB_MGGA_X_MN15

   => Exact (HF) Exchange <=

    0.4400               HF 

   => Correlation Functionals <=

    1.0000   XC_MGGA_C_MN15

   => LibXC Density Thresholds  <==

    XC_MGGA_C_MN15:  1.00E-15 
    XC_HYB_MGGA_X_MN15:  1.00E-15 

   => Molecular Quadrature <=

    Radial Scheme          =       TREUTLER
    Pruning Scheme         =           NONE
    Nuclear Scheme         =       TREUTLER

    BS radius alpha        =              1
    Pruning alpha          =              1
    Radial Points          =             75
    Spherical Points       =            302
    Total Points           =          88580
    Total Blocks           =            722
    Max Points             =            256
    Max Functions          =             88
    Weights Tolerance      =       1.00E-15

   => Loading Basis Set <=

    Name: (DEF2-TZVPPD AUX)
    Role: JKFIT
    Keyword: DF_BASIS_SCF
    atoms 1   entry C          line   198 file /mnt/storage/home/zw18965/.conda/envs/p4env/share/psi4/basis/def2-universal-jkfit.gbs 
    atoms 2-4 entry H          line    18 file /mnt/storage/home/zw18965/.conda/envs/p4env/share/psi4/basis/def2-universal-jkfit.gbs 

  ==> Integral Setup <==

  DFHelper Memory: AOs need 0.011 GiB; user supplied 83.268 GiB. Using in-core AOs.

  ==> MemDFJK: Density-Fitted J/K Matrices <==

    J tasked:                   Yes
    K tasked:                   Yes
    wK tasked:                   No
    OpenMP threads:              28
    Memory [MiB]:             85266
    Algorithm:                 Core
    Schwarz Cutoff:           1E-12
    Mask sparsity (%):       0.0000
    Fitting Condition:        1E-10

   => Auxiliary Basis Set <=

  Basis Set: (DEF2-TZVPPD AUX)
    Blend: DEF2-UNIVERSAL-JKFIT
    Number of shells: 43
    Number of basis functions: 129
    Number of Cartesian functions: 149
    Spherical Harmonics?: true
    Max angular momentum: 4

  Cached 100.0% of DFT collocation blocks in 0.551 [GiB].

  Minimum eigenvalue in the overlap matrix is 6.3181553827E-05.
  Reciprocal condition number of the overlap matrix is 8.9107266358E-06.
    Using symmetric orthogonalization.

  ==> Pre-Iterations <==

  SCF Guess: Superposition of Atomic Densities via on-the-fly atomic UHF (no occupation information).

   -------------------------
    Irrep   Nso     Nmo    
   -------------------------
     A1        37      37 
     A2        10      10 
     B1        24      24 
     B2        17      17 
   -------------------------
    Total      88      88
   -------------------------

  ==> Iterations <==

                           Total Energy        Delta E     RMS |[F,P]|

   @DF-UKS iter SAD:   -39.25659032062394   -3.92566e+01   0.00000e+00 
   @DF-UKS iter   1:   -39.68767353647952   -4.31083e-01   9.29849e-03 DIIS
   @DF-UKS iter   2:   -39.71896369434374   -3.12902e-02   7.75044e-03 DIIS
   @DF-UKS iter   3:   -39.79285845396910   -7.38948e-02   2.45822e-04 DIIS
   @DF-UKS iter   4:   -39.79296833051582   -1.09877e-04   5.47802e-05 DIIS
   @DF-UKS iter   5:   -39.79297778735794   -9.45684e-06   1.55400e-05 DIIS
   @DF-UKS iter   6:   -39.79297877063793   -9.83280e-07   2.35397e-06 DIIS
   @DF-UKS iter   7:   -39.79297879063489   -1.99970e-08   2.95244e-07 DIIS
  Energy and wave function converged.


  ==> Post-Iterations <==

   Electrons on quadrature grid:
      Nalpha   =    5.0000005323 ; deviation = 5.323e-07
      Nbeta    =    3.9999998431 ; deviation = -1.569e-07
      Ntotal   =    9.0000003754 ; deviation = 3.754e-07 

   @Spin Contamination Metric:   4.721176381E-03
   @S^2 Expected:                7.500000000E-01
   @S^2 Observed:                7.547211764E-01
   @S   Expected:                5.000000000E-01
   @S   Observed:                5.000000000E-01

    Orbital Energies [Eh]
    ---------------------

    Alpha Occupied:                                                       

       1A1   -10.054254     2A1    -0.732367     3A1    -0.466499  
       1B1    -0.466494     1B2    -0.265215  

    Alpha Virtual:                                                        

       4A1     0.057772     5A1     0.142136     2B1     0.142136  
       6A1     0.170118     3B1     0.180223     7A1     0.180225  
       2B2     0.202443     1A2     0.220244     3B2     0.220245  
       8A1     0.280433     4B1     0.345251     9A1     0.345254  
       5B1     0.351334    10A1     0.352350     2A2     0.376267  
       4B2     0.376268     5B2     0.456420     6B1     0.469461  
      11A1     0.469462    12A1     0.475710     7B1     0.488397  
      13A1     0.488398    14A1     0.753653     8B1     0.770253  
      15A1     0.770261     3A2     0.784052     6B2     0.784054  
       9B1     0.937915    16A1     0.937916     7B2     1.021255  
      17A1     1.027643    10B1     1.040417     4A2     1.248678  
       8B2     1.248678    18A1     1.445408    11B1     1.471666  
      19A1     1.471666    12B1     1.497275    20A1     1.497279  
       9B2     1.586004    21A1     1.751062    13B1     1.786731  
      22A1     1.786738    23A1     2.569892    14B1     2.569925  
      10B2     2.662984     5A2     2.663041    24A1     2.679947  
      11B2     2.824879    15B1     2.901531    25A1     2.901586  
      26A1     2.920181    16B1     2.942396     6A2     2.958930  
      12B2     2.958952     7A2     3.181427    17B1     3.429995  
      27A1     3.430004    28A1     3.531361     8A2     3.634718  
      13B2     3.634782    29A1     3.635050    18B1     3.635072  
      14B2     3.866566    30A1     3.910441    19B1     3.928807  
      31A1     3.933262    20B1     3.933307    15B2     4.082682  
       9A2     4.082727    16B2     4.489051    32A1     4.625497  
      21B1     4.625581    10A2     4.843109    17B2     4.843109  
      22B1     4.862008    33A1     4.862040    34A1     5.373565  
      23B1     5.385921    35A1     5.385945    36A1     5.499732  
      24B1     6.061054    37A1    22.600237  

    Beta Occupied:                                                        

       1A1   -10.047594     2A1    -0.685215     3A1    -0.452155  
       1B1    -0.452151  

    Beta Virtual:                                                         

       1B2    -0.031665     4A1     0.069242     5A1     0.142492  
       2B1     0.142492     3B1     0.178692     6A1     0.178694  
       7A1     0.200833     2B2     0.243262     1A2     0.243263  
       3B2     0.248043     8A1     0.291045     4B1     0.339095  
       9A1     0.339099     5B1     0.347940    10A1     0.368398  
       2A2     0.388699     4B2     0.388700     6B1     0.468686  
      11A1     0.468687    12A1     0.484571    13A1     0.507596  
       7B1     0.507596     5B2     0.520627     8B1     0.748851  
      14A1     0.748860    15A1     0.751145     3A2     0.813530  
       6B2     0.813531     9B1     0.939503    16A1     0.939503  
      10B1     1.032264     7B2     1.049280    17A1     1.102531  
       8B2     1.284864     4A2     1.284864    18A1     1.448352  
      19A1     1.481009    11B1     1.481013    12B1     1.500101  
      20A1     1.500102     9B2     1.728784    21A1     1.759965  
      13B1     1.802038    22A1     1.802044    23A1     2.537874  
      14B1     2.537924    10B2     2.616822     5A2     2.616875  
      24A1     2.645015    15B1     2.818073    25A1     2.818133  
      16B1     2.821967    11B2     2.911152     6A2     3.014001  
      12B2     3.014022    26A1     3.068180     7A2     3.157998  
      17B1     3.441303    27A1     3.441307    28A1     3.486050  
       8A2     3.615011    13B2     3.615040    29A1     3.655360  
      18B1     3.655409    14B2     3.859612    30A1     3.869444  
      31A1     3.881230    19B1     3.881247    20B1     3.884551  
      15B2     4.083231     9A2     4.083255    16B2     4.490849  
      32A1     4.501266    21B1     4.501356    22B1     4.771421  
      33A1     4.771473    10A2     4.856943    17B2     4.856958  
      23B1     5.147835    34A1     5.147864    35A1     5.149129  
      36A1     5.367734    24B1     5.931106    37A1    22.599215  

    Final Occupation by Irrep:
             A1    A2    B1    B2 
    DOCC [     3,    0,    1,    0 ]
    SOCC [     0,    0,    0,    1 ]

  @DF-UKS Final Energy:   -39.79297879063489

   => Energetics <=

    Nuclear Repulsion Energy =              9.6923735875796986
    One-Electron Energy =                 -71.6544635176042704
    Two-Electron Energy =                  25.8655251659709009
    DFT Exchange-Correlation Energy =      -3.6963845065812238
    Empirical Dispersion Energy =          -0.0000295200000000
    VV10 Nonlocal Energy =                  0.0000000000000000
    Total Energy =                        -39.7929787906348977

  UHF NO Occupations:
  HONO-2 :    2 A1 1.9994703
  HONO-1 :    3 A1 1.9986989
  HONO-0 :    1 B2 1.0000000
  LUNO+0 :    4 A1 0.0013011
  LUNO+1 :    5 A1 0.0005297
  LUNO+2 :    2 B1 0.0005297
  LUNO+3 :    6 A1 0.0000013


Computation Completed


Properties will be evaluated at   0.000000,   0.000000,   0.000000 [a0]

Properties computed using the SCF density matrix

  Nuclear Dipole Moment: [e a0]
     X:     0.0000      Y:     0.0000      Z:     0.0000

  Electronic Dipole Moment: [e a0]
     X:     0.0000      Y:     0.0000      Z:     0.0000

  Dipole Moment: [e a0]
     X:     0.0000      Y:     0.0000      Z:     0.0000     Total:     0.0000

  Dipole Moment: [D]
     X:     0.0000      Y:     0.0000      Z:     0.0000     Total:     0.0000


*** tstop() called on compute311.bc4.acrc.priv at Sun Nov  7 05:08:33 2021
Module time:
	user time   =     263.96 seconds =       4.40 minutes
	system time =      14.85 seconds =       0.25 minutes
	total time  =         12 seconds =       0.20 minutes
Total time:
	user time   =     263.96 seconds =       4.40 minutes
	system time =      14.85 seconds =       0.25 minutes
	total time  =         12 seconds =       0.20 minutes

    Psi4 stopped on: Sunday, 07 November 2021 05:08AM
    Psi4 wall time for execution: 0:00:12.26

*** Psi4 exiting successfully. Buy a developer a beer!
