
    -----------------------------------------------------------------------
          Psi4: An Open-Source Ab Initio Electronic Structure Package
                               Psi4 1.4.1 release

                         Git: Rev {HEAD} cd00f19 


    D. G. A. Smith, L. A. Burns, A. C. Simmonett, R. M. Parrish,
    M. C. Schieber, R. Galvelis, P. Kraus, H. Kruse, R. Di Remigio,
    A. Alenaizan, A. M. James, S. Lehtola, J. P. Misiewicz, M. Scheurer,
    R. A. Shaw, J. B. Schriber, Y. Xie, Z. L. Glick, D. A. Sirianni,
    J. S. O'Brien, J. M. Waldrop, A. Kumar, E. G. Hohenstein,
    B. P. Pritchard, B. R. Brooks, H. F. Schaefer III, A. Yu. Sokolov,
    K. Patkowski, A. E. DePrince III, U. Bozkaya, R. A. King,
    F. A. Evangelista, J. M. Turney, T. D. Crawford, C. D. Sherrill,
    J. Chem. Phys. 152(18) 184108 (2020). https://doi.org/10.1063/5.0006002

                            Additional Code Authors
    E. T. Seidl, C. L. Janssen, E. F. Valeev, M. L. Leininger,
    J. F. Gonthier, R. M. Richard, H. R. McAlexander, M. Saitow, X. Wang,
    P. Verma, and M. H. Lechner

             Previous Authors, Complete List of Code Contributors,
                       and Citations for Specific Modules
    https://github.com/psi4/psi4/blob/master/codemeta.json
    https://github.com/psi4/psi4/graphs/contributors
    http://psicode.org/psi4manual/master/introduction.html#citing-psifour

    -----------------------------------------------------------------------


    Psi4 started on: Sunday, 07 November 2021 05:09AM

    Process ID: 17459
    Host:       compute196.bc4.acrc.priv
    PSIDATADIR: /mnt/storage/home/zw18965/.conda/envs/p4env/share/psi4
    Memory:     500.0 MiB
    Threads:    28
    
  ==> Input File <==

--------------------------------------------------------------------------
memory 120 GB

molecule {
0 2
Cl         0.00000        0.00000        0.00000
 }

set reference uks
set dynamic_level 1
set basis Def2-TZVPPD

energy("MN15-D3BJ")
--------------------------------------------------------------------------

  Memory set to 111.759 GiB by Python driver.

Scratch directory: /tmp/

*** tstart() called on compute196.bc4.acrc.priv
*** at Sun Nov  7 05:09:20 2021

   => Loading Basis Set <=

    Name: DEF2-TZVPPD
    Role: ORBITAL
    Keyword: BASIS
    atoms 1 entry CL         line   607 file /mnt/storage/home/zw18965/.conda/envs/p4env/share/psi4/basis/def2-tzvppd.gbs 

   => MN15-D3(BJ): Empirical Dispersion <=

    Grimme's -D3 (BJ-damping) Dispersion Correction
    Grimme S.; Ehrlich S.; Goerigk L. (2011), J. Comput. Chem., 32: 1456
    Parametrisation from:    L. Goerigk, A. Hansen, C. Bauer, S. Ehrlich, A. Najibi, S. Grimme, Phys. Chem. Chem. Phys. 19, 32184-32215, 2017

        s6 =       1.000000
        s8 =       2.097100
        a1 =       0.786200
        a2 =       7.592300


         ---------------------------------------------------------
                                   SCF
               by Justin Turney, Rob Parrish, Andy Simmonett
                          and Daniel G. A. Smith
                              UKS Reference
                       28 Threads, 114440 MiB Core
         ---------------------------------------------------------

  ==> Geometry <==

    Molecular point group: d2h
    Geometry (in Angstrom), charge = 0, multiplicity = 2:

       Center              X                  Y                   Z               Mass       
    ------------   -----------------  -----------------  -----------------  -----------------
         CL           0.000000000000     0.000000000000     0.000000000000    34.968852682000

  Running in d2h symmetry.

  Rotational constants: A = ************  B = ************  C = ************ [cm^-1]
  Rotational constants: A = ************  B = ************  C = ************ [MHz]
  Nuclear repulsion =    0.000000000000000

  Charge       = 0
  Multiplicity = 2
  Electrons    = 17
  Nalpha       = 9
  Nbeta        = 8

  ==> Algorithm <==

  SCF Algorithm Type is DF.
  DIIS enabled.
  MOM disabled.
  Fractional occupation disabled.
  Guess Type is CORE.
  Energy threshold   = 1.00e-06
  Density threshold  = 1.00e-06
  Integral threshold = 1.00e-12

  ==> Primary Basis <==

  Basis Set: DEF2-TZVPPD
    Blend: DEF2-TZVPPD
    Number of shells: 17
    Number of basis functions: 51
    Number of Cartesian functions: 58
    Spherical Harmonics?: true
    Max angular momentum: 3

  ==> DFT Potential <==

   => Composite Functional: MN15-D3BJ <= 

   MN15 Hybrid Meta-GGA Exchange-Correlation Functional

    H. S. Yu, X. He, S. L. Li, and D. G. Truhlar, Chem. Sci. 7, 5032-5051, 2016


    Deriv               =              1
    GGA                 =           TRUE
    Meta                =           TRUE

    Exchange Hybrid     =           TRUE
    MP2 Hybrid          =          FALSE

   => Exchange Functionals <=

    1.0000   XC_HYB_MGGA_X_MN15

   => Exact (HF) Exchange <=

    0.4400               HF 

   => Correlation Functionals <=

    1.0000   XC_MGGA_C_MN15

   => LibXC Density Thresholds  <==

    XC_MGGA_C_MN15:  1.00E-15 
    XC_HYB_MGGA_X_MN15:  1.00E-15 

   => Molecular Quadrature <=

    Radial Scheme          =       TREUTLER
    Pruning Scheme         =           NONE
    Nuclear Scheme         =       TREUTLER

    BS radius alpha        =              1
    Pruning alpha          =              1
    Radial Points          =             75
    Spherical Points       =            302
    Total Points           =          22046
    Total Blocks           =            238
    Max Points             =            249
    Max Functions          =             51
    Weights Tolerance      =       1.00E-15

   => Loading Basis Set <=

    Name: (DEF2-TZVPPD AUX)
    Role: JKFIT
    Keyword: DF_BASIS_SCF
    atoms 1 entry CL         line   986 file /mnt/storage/home/zw18965/.conda/envs/p4env/share/psi4/basis/def2-universal-jkfit.gbs 

  ==> Integral Setup <==

  DFHelper Memory: AOs need 0.004 GiB; user supplied 83.748 GiB. Using in-core AOs.

  ==> MemDFJK: Density-Fitted J/K Matrices <==

    J tasked:                   Yes
    K tasked:                   Yes
    wK tasked:                   No
    OpenMP threads:              28
    Memory [MiB]:             85758
    Algorithm:                 Core
    Schwarz Cutoff:           1E-12
    Mask sparsity (%):       0.0000
    Fitting Condition:        1E-10

   => Auxiliary Basis Set <=

  Basis Set: (DEF2-TZVPPD AUX)
    Blend: DEF2-UNIVERSAL-JKFIT
    Number of shells: 38
    Number of basis functions: 128
    Number of Cartesian functions: 155
    Spherical Harmonics?: true
    Max angular momentum: 4

  Cached 100.0% of DFT collocation blocks in 0.071 [GiB].

  Minimum eigenvalue in the overlap matrix is 3.1418479739E-02.
  Reciprocal condition number of the overlap matrix is 1.0671479415E-02.
    Using symmetric orthogonalization.

  ==> Pre-Iterations <==

  SCF Guess: Core (One-Electron) Hamiltonian.

   -------------------------------------------------------
    Irrep   Nso     Nmo     Nalpha   Nbeta   Ndocc  Nsocc
   -------------------------------------------------------
     Ag        14      14       2       2       2       0
     B1g        4       4       0       0       0       0
     B2g        4       4       1       0       0       1
     B3g        4       4       0       0       0       0
     Au         1       1       0       0       0       0
     B1u        8       8       2       2       2       0
     B2u        8       8       2       2       2       0
     B3u        8       8       2       2       2       0
   -------------------------------------------------------
    Total      51      51       9       8       8       1
   -------------------------------------------------------

  ==> Iterations <==

                           Total Energy        Delta E     RMS |[F,P]|

    Occupation by irrep:
             Ag   B1g   B2g   B3g    Au   B1u   B2u   B3u 
    DOCC [     2,    0,    0,    0,    0,    2,    2,    2 ]
    SOCC [     1,    0,    0,    0,    0,    0,    0,    0 ]

   @DF-UKS iter   1:  -413.67368821212955   -4.13674e+02   8.60532e-01 DIIS
    Occupation by irrep:
             Ag   B1g   B2g   B3g    Au   B1u   B2u   B3u 
    DOCC [     3,    0,    0,    0,    0,    1,    2,    2 ]
    SOCC [     0,    0,    0,    0,    0,    1,    0,    0 ]

   @DF-UKS iter   2:  -436.97489720305157   -2.33012e+01   6.34838e-01 DIIS
   @DF-UKS iter   3:  -459.47720787493336   -2.25023e+01   7.82694e-02 DIIS
   @DF-UKS iter   4:  -460.03065738609610   -5.53450e-01   1.32540e-02 DIIS
   @DF-UKS iter   5:  -460.05084118122932   -2.01838e-02   1.67685e-03 DIIS
   @DF-UKS iter   6:  -460.05128562540830   -4.44444e-04   2.12171e-04 DIIS
   @DF-UKS iter   7:  -460.05129333828995   -7.71288e-06   2.17174e-05 DIIS
   @DF-UKS iter   8:  -460.05129344796649   -1.09677e-07   2.54691e-06 DIIS
   @DF-UKS iter   9:  -460.05129345024699   -2.28050e-09   1.66185e-07 DIIS
  Energy and wave function converged.


  ==> Post-Iterations <==

   Electrons on quadrature grid:
      Nalpha   =    8.9999999971 ; deviation = -2.893e-09
      Nbeta    =    7.9999999971 ; deviation = -2.893e-09
      Ntotal   =   16.9999999942 ; deviation = -5.786e-09 

   @Spin Contamination Metric:   2.426074461E-03
   @S^2 Expected:                7.500000000E-01
   @S^2 Observed:                7.524260745E-01
   @S   Expected:                5.000000000E-01
   @S   Observed:                5.000000000E-01

    Orbital Energies [Eh]
    ---------------------

    Alpha Occupied:                                                       

       1Ag  -100.396270     2Ag    -9.216124     1B1u   -7.245876  
       1B2u   -7.219972     1B3u   -7.219972     3Ag    -0.872828  
       2B1u   -0.438991     2B2u   -0.402461     2B3u   -0.402461  

    Alpha Virtual:                                                        

       4Ag     0.088280     3B1u    0.090533     3B2u    0.097340  
       3B3u    0.097340     5Ag     0.196622     1B3g    0.202115  
       1B2g    0.202115     1B1g    0.217468     6Ag     0.217468  
       4B1u    0.454724     4B2u    0.476749     4B3u    0.476749  
       7Ag     0.572608     2B3g    0.585001     2B2g    0.585001  
       8Ag     0.614378     2B1g    0.614378     9Ag     0.835210  
      10Ag     1.791274     3B3g    1.808130     3B2g    1.808130  
       3B1g    1.871496    11Ag     1.871496     5B1u    1.972934  
       5B2u    1.986871     5B3u    1.986871     1Au     2.018854  
       6B1u    2.018854     6B2u    2.069670     6B3u    2.069670  
       7B1u    2.117676     7B2u    2.233205     7B3u    2.233205  
      12Ag     7.954585     4B3g    7.966014     4B2g    7.966014  
      13Ag     8.002172     4B1g    8.002172     8B1u   10.223696  
       8B2u   10.283259     8B3u   10.283259    14Ag    23.850085  

    Beta Occupied:                                                        

       1Ag  -100.391042     2Ag    -9.210808     1B1u   -7.236349  
       1B2u   -7.217624     1B3u   -7.217624     3Ag    -0.822080  
       2B2u   -0.383138     2B3u   -0.383138  

    Beta Virtual:                                                         

       2B1u   -0.199726     3B2u    0.098394     3B3u    0.098394  
       3B1u    0.101569     4Ag     0.101576     1B1g    0.217969  
       5Ag     0.217969     1B3g    0.226679     1B2g    0.226679  
       6Ag     0.247555     4B2u    0.480660     4B3u    0.480660  
       4B1u    0.512927     2B1g    0.620185     7Ag     0.620185  
       2B3g    0.624647     2B2g    0.624647     8Ag     0.643444  
       9Ag     0.859416    10Ag     1.851154     3B1g    1.851154  
       3B3g    1.863226     3B2g    1.863227    11Ag     1.883703  
       5B2u    2.051799     5B3u    2.051799     5B1u    2.061826  
       1Au     2.061826     6B2u    2.084386     6B3u    2.084386  
       6B1u    2.104247     7B2u    2.222483     7B3u    2.222483  
       7B1u    2.272653    12Ag     7.991258     4B1g    7.991258  
       4B3g    7.992260     4B2g    7.992260    13Ag     8.006288  
       8B2u   10.277754     8B3u   10.277754     8B1u   10.307383  
      14Ag    23.856078  

    Final Occupation by Irrep:
             Ag   B1g   B2g   B3g    Au   B1u   B2u   B3u 
    DOCC [     3,    0,    0,    0,    0,    1,    2,    2 ]
    SOCC [     0,    0,    0,    0,    0,    1,    0,    0 ]

  @DF-UKS Final Energy:  -460.05129345024699

   => Energetics <=

    Nuclear Repulsion Energy =              0.0000000000000000
    One-Electron Energy =                -635.2955459307893307
    Two-Electron Energy =                 191.2675104195964764
    DFT Exchange-Correlation Energy =     -16.0232579390540906
    Empirical Dispersion Energy =           0.0000000000000000
    VV10 Nonlocal Energy =                  0.0000000000000000
    Total Energy =                       -460.0512934502469307

  UHF NO Occupations:
  HONO-2 :    2B2u 1.9998608
  HONO-1 :    3 Ag 1.9990669
  HONO-0 :    2B1u 1.0000000
  LUNO+0 :    4 Ag 0.0009331
  LUNO+1 :    3B2u 0.0001392
  LUNO+2 :    3B3u 0.0001392
  LUNO+3 :    3B1u 0.0000014


Computation Completed


Properties will be evaluated at   0.000000,   0.000000,   0.000000 [a0]

Properties computed using the SCF density matrix

  Nuclear Dipole Moment: [e a0]
     X:     0.0000      Y:     0.0000      Z:     0.0000

  Electronic Dipole Moment: [e a0]
     X:     0.0000      Y:     0.0000      Z:     0.0000

  Dipole Moment: [e a0]
     X:     0.0000      Y:     0.0000      Z:     0.0000     Total:     0.0000

  Dipole Moment: [D]
     X:     0.0000      Y:     0.0000      Z:     0.0000     Total:     0.0000


*** tstop() called on compute196.bc4.acrc.priv at Sun Nov  7 05:09:23 2021
Module time:
	user time   =      46.93 seconds =       0.78 minutes
	system time =       2.07 seconds =       0.03 minutes
	total time  =          3 seconds =       0.05 minutes
Total time:
	user time   =      46.93 seconds =       0.78 minutes
	system time =       2.07 seconds =       0.03 minutes
	total time  =          3 seconds =       0.05 minutes

    Psi4 stopped on: Sunday, 07 November 2021 05:09AM
    Psi4 wall time for execution: 0:00:03.12

*** Psi4 exiting successfully. Buy a developer a beer!
