
    -----------------------------------------------------------------------
          Psi4: An Open-Source Ab Initio Electronic Structure Package
                               Psi4 1.4.1 release

                         Git: Rev {HEAD} cd00f19 


    D. G. A. Smith, L. A. Burns, A. C. Simmonett, R. M. Parrish,
    M. C. Schieber, R. Galvelis, P. Kraus, H. Kruse, R. Di Remigio,
    A. Alenaizan, A. M. James, S. Lehtola, J. P. Misiewicz, M. Scheurer,
    R. A. Shaw, J. B. Schriber, Y. Xie, Z. L. Glick, D. A. Sirianni,
    J. S. O'Brien, J. M. Waldrop, A. Kumar, E. G. Hohenstein,
    B. P. Pritchard, B. R. Brooks, H. F. Schaefer III, A. Yu. Sokolov,
    K. Patkowski, A. E. DePrince III, U. Bozkaya, R. A. King,
    F. A. Evangelista, J. M. Turney, T. D. Crawford, C. D. Sherrill,
    J. Chem. Phys. 152(18) 184108 (2020). https://doi.org/10.1063/5.0006002

                            Additional Code Authors
    E. T. Seidl, C. L. Janssen, E. F. Valeev, M. L. Leininger,
    J. F. Gonthier, R. M. Richard, H. R. McAlexander, M. Saitow, X. Wang,
    P. Verma, and M. H. Lechner

             Previous Authors, Complete List of Code Contributors,
                       and Citations for Specific Modules
    https://github.com/psi4/psi4/blob/master/codemeta.json
    https://github.com/psi4/psi4/graphs/contributors
    http://psicode.org/psi4manual/master/introduction.html#citing-psifour

    -----------------------------------------------------------------------


    Psi4 started on: Sunday, 07 November 2021 05:09AM

    Process ID: 12607
    Host:       compute350.bc4.acrc.priv
    PSIDATADIR: /mnt/storage/home/zw18965/.conda/envs/p4env/share/psi4
    Memory:     500.0 MiB
    Threads:    28
    
  ==> Input File <==

--------------------------------------------------------------------------
memory 120 GB

molecule {
0 4
Co         0.00000        0.00000        0.00000
 }

set reference uks
set dynamic_level 1
set basis Def2-TZVPPD

energy("MN15-D3BJ")
--------------------------------------------------------------------------

  Memory set to 111.759 GiB by Python driver.

Scratch directory: /tmp/

*** tstart() called on compute350.bc4.acrc.priv
*** at Sun Nov  7 05:09:21 2021

   => Loading Basis Set <=

    Name: DEF2-TZVPPD
    Role: ORBITAL
    Keyword: BASIS
    atoms 1 entry CO         line  1168 file /mnt/storage/home/zw18965/.conda/envs/p4env/share/psi4/basis/def2-tzvppd.gbs 

   => MN15-D3(BJ): Empirical Dispersion <=

    Grimme's -D3 (BJ-damping) Dispersion Correction
    Grimme S.; Ehrlich S.; Goerigk L. (2011), J. Comput. Chem., 32: 1456
    Parametrisation from:    L. Goerigk, A. Hansen, C. Bauer, S. Ehrlich, A. Najibi, S. Grimme, Phys. Chem. Chem. Phys. 19, 32184-32215, 2017

        s6 =       1.000000
        s8 =       2.097100
        a1 =       0.786200
        a2 =       7.592300


         ---------------------------------------------------------
                                   SCF
               by Justin Turney, Rob Parrish, Andy Simmonett
                          and Daniel G. A. Smith
                              UKS Reference
                       28 Threads, 114440 MiB Core
         ---------------------------------------------------------

  ==> Geometry <==

    Molecular point group: d2h
    Geometry (in Angstrom), charge = 0, multiplicity = 4:

       Center              X                  Y                   Z               Mass       
    ------------   -----------------  -----------------  -----------------  -----------------
         CO           0.000000000000     0.000000000000     0.000000000000    58.933194290000

  Running in d2h symmetry.

  Rotational constants: A = ************  B = ************  C = ************ [cm^-1]
  Rotational constants: A = ************  B = ************  C = ************ [MHz]
  Nuclear repulsion =    0.000000000000000

  Charge       = 0
  Multiplicity = 4
  Electrons    = 27
  Nalpha       = 15
  Nbeta        = 12

  ==> Algorithm <==

  SCF Algorithm Type is DF.
  DIIS enabled.
  MOM disabled.
  Fractional occupation disabled.
  Guess Type is CORE.
  Energy threshold   = 1.00e-06
  Density threshold  = 1.00e-06
  Integral threshold = 1.00e-12

  ==> Primary Basis <==

  Basis Set: DEF2-TZVPPD
    Blend: DEF2-TZVPPD
    Number of shells: 19
    Number of basis functions: 67
    Number of Cartesian functions: 83
    Spherical Harmonics?: true
    Max angular momentum: 4

  ==> DFT Potential <==

   => Composite Functional: MN15-D3BJ <= 

   MN15 Hybrid Meta-GGA Exchange-Correlation Functional

    H. S. Yu, X. He, S. L. Li, and D. G. Truhlar, Chem. Sci. 7, 5032-5051, 2016


    Deriv               =              1
    GGA                 =           TRUE
    Meta                =           TRUE

    Exchange Hybrid     =           TRUE
    MP2 Hybrid          =          FALSE

   => Exchange Functionals <=

    1.0000   XC_HYB_MGGA_X_MN15

   => Exact (HF) Exchange <=

    0.4400               HF 

   => Correlation Functionals <=

    1.0000   XC_MGGA_C_MN15

   => LibXC Density Thresholds  <==

    XC_MGGA_C_MN15:  1.00E-15 
    XC_HYB_MGGA_X_MN15:  1.00E-15 

   => Molecular Quadrature <=

    Radial Scheme          =       TREUTLER
    Pruning Scheme         =           NONE
    Nuclear Scheme         =       TREUTLER

    BS radius alpha        =              1
    Pruning alpha          =              1
    Radial Points          =             75
    Spherical Points       =            302
    Total Points           =          21738
    Total Blocks           =            245
    Max Points             =            245
    Max Functions          =             67
    Weights Tolerance      =       1.00E-15

   => Loading Basis Set <=

    Name: (DEF2-TZVPPD AUX)
    Role: JKFIT
    Keyword: DF_BASIS_SCF
    atoms 1 entry CO         line  2104 file /mnt/storage/home/zw18965/.conda/envs/p4env/share/psi4/basis/def2-universal-jkfit.gbs 

  ==> Integral Setup <==

  DFHelper Memory: AOs need 0.012 GiB; user supplied 83.734 GiB. Using in-core AOs.

  ==> MemDFJK: Density-Fitted J/K Matrices <==

    J tasked:                   Yes
    K tasked:                   Yes
    wK tasked:                   No
    OpenMP threads:              28
    Memory [MiB]:             85743
    Algorithm:                 Core
    Schwarz Cutoff:           1E-12
    Mask sparsity (%):       0.0000
    Fitting Condition:        1E-10

   => Auxiliary Basis Set <=

  Basis Set: (DEF2-TZVPPD AUX)
    Blend: DEF2-UNIVERSAL-JKFIT
    Number of shells: 58
    Number of basis functions: 264
    Number of Cartesian functions: 377
    Spherical Harmonics?: true
    Max angular momentum: 6

  Cached 100.0% of DFT collocation blocks in 0.085 [GiB].

  Minimum eigenvalue in the overlap matrix is 4.3159606043E-02.
  Reciprocal condition number of the overlap matrix is 1.5546100854E-02.
    Using symmetric orthogonalization.

  ==> Pre-Iterations <==

  SCF Guess: Core (One-Electron) Hamiltonian.

   -------------------------------------------------------
    Irrep   Nso     Nmo     Nalpha   Nbeta   Ndocc  Nsocc
   -------------------------------------------------------
     Ag        17      17       5       3       3       2
     B1g        6       6       1       1       1       0
     B2g        6       6       1       1       1       0
     B3g        6       6       1       1       1       0
     Au         2       2       0       0       0       0
     B1u       10      10       2       2       2       0
     B2u       10      10       3       2       2       1
     B3u       10      10       2       2       2       0
   -------------------------------------------------------
    Total      67      67      15      12      12       3
   -------------------------------------------------------

  ==> Iterations <==

                           Total Energy        Delta E     RMS |[F,P]|

    Occupation by irrep:
             Ag   B1g   B2g   B3g    Au   B1u   B2u   B3u 
    DOCC [     4,    0,    0,    0,    0,    2,    3,    3 ]
    SOCC [     2,    0,    0,    0,    0,    1,    0,    0 ]

   @DF-UKS iter   1: -1338.25878263648929   -1.33826e+03   3.85663e-01 DIIS
    Occupation by irrep:
             Ag   B1g   B2g   B3g    Au   B1u   B2u   B3u 
    DOCC [     3,    1,    1,    1,    0,    2,    2,    2 ]
    SOCC [     3,    0,    0,    0,    0,    0,    0,    0 ]

   @DF-UKS iter   2: -1296.48329901411535    4.17755e+01   4.20819e-01 DIIS
   @DF-UKS iter   3: -1380.50077868792323   -8.40175e+01   1.17687e-01 DIIS
   @DF-UKS iter   4: -1382.83538177509581   -2.33460e+00   1.15724e-02 DIIS
   @DF-UKS iter   5: -1382.82294330378727    1.24385e-02   1.95014e-02 DIIS
   @DF-UKS iter   6: -1382.85906917891771   -3.61259e-02   9.76842e-03 DIIS
   @DF-UKS iter   7: -1382.87115031688973   -1.20811e-02   2.09623e-04 DIIS
   @DF-UKS iter   8: -1382.87116863630717   -1.83194e-05   1.24485e-04 DIIS
   @DF-UKS iter   9: -1382.87117096518955   -2.32888e-06   1.39908e-05 DIIS
   @DF-UKS iter  10: -1382.87117102293269   -5.77431e-08   2.04741e-06 DIIS
   @DF-UKS iter  11: -1382.87117102505999   -2.12731e-09   6.05555e-07 DIIS
  Energy and wave function converged.


  ==> Post-Iterations <==

   Electrons on quadrature grid:
      Nalpha   =   15.0000001656 ; deviation = 1.656e-07
      Nbeta    =   12.0000001655 ; deviation = 1.655e-07
      Ntotal   =   27.0000003311 ; deviation = 3.311e-07 

   @Spin Contamination Metric:   3.958990874E-03
   @S^2 Expected:                3.750000000E+00
   @S^2 Observed:                3.753958991E+00
   @S   Expected:                1.500000000E+00
   @S   Observed:                1.500000000E+00

    Orbital Energies [Eh]
    ---------------------

    Alpha Occupied:                                                       

       1Ag  -275.347130     2Ag   -31.946251     1B2u  -28.171284  
       1B3u  -28.171284     1B1u  -28.171284     3Ag    -3.543448  
       2B2u   -2.379678     2B3u   -2.379678     2B1u   -2.379677  
       4Ag    -0.315768     5Ag    -0.315768     1B1g   -0.294700  
       1B2g   -0.294700     1B3g   -0.294700     6Ag    -0.211695  

    Alpha Virtual:                                                        

       3B1u   -0.001446     3B2u   -0.001446     3B3u   -0.001446  
       4B2u    0.166781     4B3u    0.166781     4B1u    0.166781  
       7Ag     0.168745     8Ag     0.244792     9Ag     0.244792  
       2B3g    0.247227     2B2g    0.247227     2B1g    0.247227  
       5B2u    0.672996     5B3u    0.672996     5B1u    0.672996  
      10Ag     1.021020    11Ag     1.021020     3B1g    1.035894  
       3B3g    1.035894     3B2g    1.035894     6B2u    2.652284  
       6B3u    2.652284     6B1u    2.652284     7B2u    2.691085  
       7B3u    2.691085     7B1u    2.691085     8B2u    2.703833  
       8B1u    2.703833     8B3u    2.703833     1Au     2.722943  
      12Ag     2.850691    13Ag     3.722639    14Ag     3.722639  
       4B1g    3.763419     4B3g    3.763419     4B2g    3.763419  
      15Ag     9.778871     5B1g    9.799633     5B3g    9.799633  
       5B2g    9.799633    16Ag     9.807992    17Ag     9.807992  
       6B2g    9.840557     6B3g    9.840557     6B1g    9.840557  
       9B3u   10.307351     9B2u   10.307351     9B1u   10.307352  
      10B2u   10.332957    10B1u   10.332957    10B3u   10.332957  
       2Au    10.360700  

    Beta Occupied:                                                        

       1Ag  -275.348318     2Ag   -31.938850     1B2u  -28.157211  
       1B3u  -28.157211     1B1u  -28.157211     3Ag    -3.497803  
       2B2u   -2.314807     2B3u   -2.314807     2B1u   -2.314807  
       1B1g   -0.235682     1B3g   -0.235682     1B2g   -0.235682  

    Beta Virtual:                                                         

       4Ag    -0.056755     5Ag     0.029946     6Ag     0.029946  
       3B1u    0.061047     3B2u    0.061047     3B3u    0.061047  
       4B1u    0.172443     4B2u    0.172443     4B3u    0.172443  
       7Ag     0.227926     2B3g    0.281460     2B2g    0.281460  
       2B1g    0.281460     8Ag     0.317077     9Ag     0.317077  
       5B2u    0.701341     5B3u    0.701341     5B1u    0.701341  
       3B1g    1.054741     3B2g    1.054741     3B3g    1.054741  
      10Ag     1.085970    11Ag     1.085970     6B2u    2.689988  
       6B3u    2.689988     6B1u    2.689988     1Au     2.751212  
       7B2u    2.764598     7B3u    2.764598     7B1u    2.764598  
       8B3u    2.801486     8B2u    2.801486     8B1u    2.801486  
      12Ag     2.890509     4B1g    3.790763     4B3g    3.790763  
       4B2g    3.790763    13Ag     3.815429    14Ag     3.815429  
       5B2g    9.855240     5B3g    9.855240     5B1g    9.855240  
       6B1g    9.859029     6B3g    9.859029     6B2g    9.859029  
      15Ag     9.863416    16Ag     9.863416    17Ag     9.880639  
       9B2u   10.348780     9B3u   10.348780     9B1u   10.348780  
      10B2u   10.350133    10B1u   10.350133    10B3u   10.350133  
       2Au    10.404283  

    Final Occupation by Irrep:
             Ag   B1g   B2g   B3g    Au   B1u   B2u   B3u 
    DOCC [     3,    1,    1,    1,    0,    2,    2,    2 ]
    SOCC [     3,    0,    0,    0,    0,    0,    0,    0 ]

  @DF-UKS Final Energy: -1382.87117102505999

   => Energetics <=

    Nuclear Repulsion Energy =              0.0000000000000000
    One-Electron Energy =               -1917.6109860455837861
    Two-Electron Energy =                 568.7696074602505405
    DFT Exchange-Correlation Energy =     -34.0297924397265419
    Empirical Dispersion Energy =           0.0000000000000000
    VV10 Nonlocal Energy =                  0.0000000000000000
    Total Energy =                      -1382.8711710250597662

  UHF NO Occupations:
  HONO-2 :    4 Ag 1.0000000
  HONO-1 :    5 Ag 1.0000000
  HONO-0 :    6 Ag 1.0000000
  LUNO+0 :    2B2g 0.0006271
  LUNO+1 :    2B3g 0.0006271
  LUNO+2 :    2B1g 0.0006271
  LUNO+3 :    3B2u 0.0000307


Computation Completed


Properties will be evaluated at   0.000000,   0.000000,   0.000000 [a0]

Properties computed using the SCF density matrix

  Nuclear Dipole Moment: [e a0]
     X:     0.0000      Y:     0.0000      Z:     0.0000

  Electronic Dipole Moment: [e a0]
     X:     0.0000      Y:     0.0000      Z:     0.0000

  Dipole Moment: [e a0]
     X:     0.0000      Y:     0.0000      Z:     0.0000     Total:     0.0000

  Dipole Moment: [D]
     X:     0.0000      Y:     0.0000      Z:     0.0000     Total:     0.0000


*** tstop() called on compute350.bc4.acrc.priv at Sun Nov  7 05:09:25 2021
Module time:
	user time   =      71.69 seconds =       1.19 minutes
	system time =       2.93 seconds =       0.05 minutes
	total time  =          4 seconds =       0.07 minutes
Total time:
	user time   =      71.69 seconds =       1.19 minutes
	system time =       2.93 seconds =       0.05 minutes
	total time  =          4 seconds =       0.07 minutes

    Psi4 stopped on: Sunday, 07 November 2021 05:09AM
    Psi4 wall time for execution: 0:00:04.38

*** Psi4 exiting successfully. Buy a developer a beer!
