
    -----------------------------------------------------------------------
          Psi4: An Open-Source Ab Initio Electronic Structure Package
                               Psi4 1.4.1 release

                         Git: Rev {HEAD} cd00f19 


    D. G. A. Smith, L. A. Burns, A. C. Simmonett, R. M. Parrish,
    M. C. Schieber, R. Galvelis, P. Kraus, H. Kruse, R. Di Remigio,
    A. Alenaizan, A. M. James, S. Lehtola, J. P. Misiewicz, M. Scheurer,
    R. A. Shaw, J. B. Schriber, Y. Xie, Z. L. Glick, D. A. Sirianni,
    J. S. O'Brien, J. M. Waldrop, A. Kumar, E. G. Hohenstein,
    B. P. Pritchard, B. R. Brooks, H. F. Schaefer III, A. Yu. Sokolov,
    K. Patkowski, A. E. DePrince III, U. Bozkaya, R. A. King,
    F. A. Evangelista, J. M. Turney, T. D. Crawford, C. D. Sherrill,
    J. Chem. Phys. 152(18) 184108 (2020). https://doi.org/10.1063/5.0006002

                            Additional Code Authors
    E. T. Seidl, C. L. Janssen, E. F. Valeev, M. L. Leininger,
    J. F. Gonthier, R. M. Richard, H. R. McAlexander, M. Saitow, X. Wang,
    P. Verma, and M. H. Lechner

             Previous Authors, Complete List of Code Contributors,
                       and Citations for Specific Modules
    https://github.com/psi4/psi4/blob/master/codemeta.json
    https://github.com/psi4/psi4/graphs/contributors
    http://psicode.org/psi4manual/master/introduction.html#citing-psifour

    -----------------------------------------------------------------------


    Psi4 started on: Sunday, 07 November 2021 05:09AM

    Process ID: 23928
    Host:       compute500.bc4.acrc.priv
    PSIDATADIR: /mnt/storage/home/zw18965/.conda/envs/p4env/share/psi4
    Memory:     500.0 MiB
    Threads:    28
    
  ==> Input File <==

--------------------------------------------------------------------------
memory 120 GB

molecule {
0 3
Co         0.00000        0.00000        0.00000
H          0.00000        0.00000        1.53100
 }

set reference uks
set dynamic_level 1
set basis Def2-TZVPPD

energy("MN15-D3BJ")
--------------------------------------------------------------------------

  Memory set to 111.759 GiB by Python driver.

Scratch directory: /tmp/

*** tstart() called on compute500.bc4.acrc.priv
*** at Sun Nov  7 05:09:21 2021

   => Loading Basis Set <=

    Name: DEF2-TZVPPD
    Role: ORBITAL
    Keyword: BASIS
    atoms 1 entry CO         line  1168 file /mnt/storage/home/zw18965/.conda/envs/p4env/share/psi4/basis/def2-tzvppd.gbs 
    atoms 2 entry H          line    14 file /mnt/storage/home/zw18965/.conda/envs/p4env/share/psi4/basis/def2-tzvppd.gbs 

   => MN15-D3(BJ): Empirical Dispersion <=

    Grimme's -D3 (BJ-damping) Dispersion Correction
    Grimme S.; Ehrlich S.; Goerigk L. (2011), J. Comput. Chem., 32: 1456
    Parametrisation from:    L. Goerigk, A. Hansen, C. Bauer, S. Ehrlich, A. Najibi, S. Grimme, Phys. Chem. Chem. Phys. 19, 32184-32215, 2017

        s6 =       1.000000
        s8 =       2.097100
        a1 =       0.786200
        a2 =       7.592300


         ---------------------------------------------------------
                                   SCF
               by Justin Turney, Rob Parrish, Andy Simmonett
                          and Daniel G. A. Smith
                              UKS Reference
                       28 Threads, 114440 MiB Core
         ---------------------------------------------------------

  ==> Geometry <==

    Molecular point group: c2v
    Full point group: C_inf_v

    Geometry (in Angstrom), charge = 0, multiplicity = 3:

       Center              X                  Y                   Z               Mass       
    ------------   -----------------  -----------------  -----------------  -----------------
         CO           0.000000000000     0.000000000000    -0.025741639728    58.933194290000
         H            0.000000000000     0.000000000000     1.505258360272     1.007825032230

  Running in c2v symmetry.

  Rotational constants: A = ************  B =      7.25814  C =      7.25814 [cm^-1]
  Rotational constants: A = ************  B = 217593.45074  C = 217593.45074 [MHz]
  Nuclear repulsion =    9.332321808027434

  Charge       = 0
  Multiplicity = 3
  Electrons    = 28
  Nalpha       = 15
  Nbeta        = 13

  ==> Algorithm <==

  SCF Algorithm Type is DF.
  DIIS enabled.
  MOM disabled.
  Fractional occupation disabled.
  Guess Type is SAD.
  Energy threshold   = 1.00e-06
  Density threshold  = 1.00e-06
  Integral threshold = 1.00e-12

  ==> Primary Basis <==

  Basis Set: DEF2-TZVPPD
    Blend: DEF2-TZVPPD
    Number of shells: 26
    Number of basis functions: 84
    Number of Cartesian functions: 101
    Spherical Harmonics?: true
    Max angular momentum: 4

  ==> DFT Potential <==

   => Composite Functional: MN15-D3BJ <= 

   MN15 Hybrid Meta-GGA Exchange-Correlation Functional

    H. S. Yu, X. He, S. L. Li, and D. G. Truhlar, Chem. Sci. 7, 5032-5051, 2016


    Deriv               =              1
    GGA                 =           TRUE
    Meta                =           TRUE

    Exchange Hybrid     =           TRUE
    MP2 Hybrid          =          FALSE

   => Exchange Functionals <=

    1.0000   XC_HYB_MGGA_X_MN15

   => Exact (HF) Exchange <=

    0.4400               HF 

   => Correlation Functionals <=

    1.0000   XC_MGGA_C_MN15

   => LibXC Density Thresholds  <==

    XC_MGGA_C_MN15:  1.00E-15 
    XC_HYB_MGGA_X_MN15:  1.00E-15 

   => Molecular Quadrature <=

    Radial Scheme          =       TREUTLER
    Pruning Scheme         =           NONE
    Nuclear Scheme         =       TREUTLER

    BS radius alpha        =              1
    Pruning alpha          =              1
    Radial Points          =             75
    Spherical Points       =            302
    Total Points           =          43984
    Total Blocks           =            407
    Max Points             =            256
    Max Functions          =             84
    Weights Tolerance      =       1.00E-15

   => Loading Basis Set <=

    Name: (DEF2-TZVPPD AUX)
    Role: JKFIT
    Keyword: DF_BASIS_SCF
    atoms 1 entry CO         line  2104 file /mnt/storage/home/zw18965/.conda/envs/p4env/share/psi4/basis/def2-universal-jkfit.gbs 
    atoms 2 entry H          line    18 file /mnt/storage/home/zw18965/.conda/envs/p4env/share/psi4/basis/def2-universal-jkfit.gbs 

  ==> Integral Setup <==

  DFHelper Memory: AOs need 0.019 GiB; user supplied 83.588 GiB. Using in-core AOs.

  ==> MemDFJK: Density-Fitted J/K Matrices <==

    J tasked:                   Yes
    K tasked:                   Yes
    wK tasked:                   No
    OpenMP threads:              28
    Memory [MiB]:             85594
    Algorithm:                 Core
    Schwarz Cutoff:           1E-12
    Mask sparsity (%):       0.0000
    Fitting Condition:        1E-10

   => Auxiliary Basis Set <=

  Basis Set: (DEF2-TZVPPD AUX)
    Blend: DEF2-UNIVERSAL-JKFIT
    Number of shells: 64
    Number of basis functions: 282
    Number of Cartesian functions: 397
    Spherical Harmonics?: true
    Max angular momentum: 6

  Cached 100.0% of DFT collocation blocks in 0.231 [GiB].

  Minimum eigenvalue in the overlap matrix is 3.0343844833E-03.
  Reciprocal condition number of the overlap matrix is 7.0113517897E-04.
    Using symmetric orthogonalization.

  ==> Pre-Iterations <==

  SCF Guess: Superposition of Atomic Densities via on-the-fly atomic UHF (no occupation information).

   -------------------------
    Irrep   Nso     Nmo    
   -------------------------
     A1        35      35 
     A2         9       9 
     B1        20      20 
     B2        20      20 
   -------------------------
    Total      84      84
   -------------------------

  ==> Iterations <==

                           Total Energy        Delta E     RMS |[F,P]|

   @DF-UKS iter SAD: -1381.74277309714489   -1.38174e+03   0.00000e+00 
    Occupation by irrep:
             A1    A2    B1    B2 
    DOCC [     7,    0,    3,    3 ]
    SOCC [     2,    0,    0,    0 ]

   @DF-UKS iter   1: -1380.29066035922165    1.45211e+00   8.65980e-02 DIIS
    Occupation by irrep:
             A1    A2    B1    B2 
    DOCC [     7,    0,    3,    3 ]
    SOCC [     1,    1,    0,    0 ]

   @DF-UKS iter   2: -1355.71126799229978    2.45794e+01   1.72040e-01 DIIS
   @DF-UKS iter   3: -1382.54367904553283   -2.68324e+01   3.65615e-02 DIIS
   @DF-UKS iter   4: -1377.18747919667385    5.35620e+00   9.81632e-02 DIIS
   @DF-UKS iter   5: -1383.15199875882081   -5.96452e+00   2.58632e-02 DIIS
   @DF-UKS iter   6: -1383.30125507645153   -1.49256e-01   1.86690e-02 DIIS
   @DF-UKS iter   7: -1383.39727250904389   -9.60174e-02   1.14563e-02 DIIS
   @DF-UKS iter   8: -1383.46224107014632   -6.49686e-02   6.32351e-04 DIIS
   @DF-UKS iter   9: -1383.46415028969841   -1.90922e-03   4.46686e-04 DIIS
   @DF-UKS iter  10: -1383.46487304097013   -7.22751e-04   2.08263e-04 DIIS
   @DF-UKS iter  11: -1383.46537318005448   -5.00139e-04   6.79677e-05 DIIS
   @DF-UKS iter  12: -1383.46538830041936   -1.51204e-05   1.43664e-05 DIIS
   @DF-UKS iter  13: -1383.46538891999830   -6.19579e-07   5.26713e-06 DIIS
   @DF-UKS iter  14: -1383.46538902556358   -1.05565e-07   2.02457e-06 DIIS
   @DF-UKS iter  15: -1383.46538904978843   -2.42248e-08   5.43003e-07 DIIS
  Energy and wave function converged.


  ==> Post-Iterations <==

   Electrons on quadrature grid:
      Nalpha   =   14.9999999836 ; deviation = -1.644e-08
      Nbeta    =   12.9999999504 ; deviation = -4.964e-08
      Ntotal   =   27.9999999339 ; deviation = -6.608e-08 

   @Spin Contamination Metric:   2.190794263E-02
   @S^2 Expected:                2.000000000E+00
   @S^2 Observed:                2.021907943E+00
   @S   Expected:                1.000000000E+00
   @S   Observed:                1.000000000E+00

    Orbital Energies [Eh]
    ---------------------

    Alpha Occupied:                                                       

       1A1  -275.352722     2A1   -31.954487     3A1   -28.181781  
       1B1   -28.177048     1B2   -28.177048     4A1    -3.546381  
       2B1    -2.383196     2B2    -2.383196     5A1    -2.378882  
       6A1    -0.342041     1A2    -0.320044     7A1    -0.299088  
       3B1    -0.293554     3B2    -0.293554     8A1    -0.257275  

    Alpha Virtual:                                                        

       9A1    -0.042171     4B1     0.009976     4B2     0.009976  
      10A1     0.111734    11A1     0.124242     5B1     0.164372  
       5B2     0.164372    12A1     0.196209     6B1     0.224789  
       6B2     0.224789     2A2     0.242953    13A1     0.246370  
      14A1     0.355382     7B1     0.361580     7B2     0.361580  
      15A1     0.448193    16A1     0.523415     8B1     0.666944  
       8B2     0.666944    17A1     0.705456     9B1     0.907330  
       9B2     0.907330     3A2     1.022551    18A1     1.037334  
      19A1     1.141259    10B1     1.200090    10B2     1.200090  
      20A1     1.344234    21A1     2.403843    11B1     2.584840  
      11B2     2.584840    22A1     2.604455    12B1     2.663975  
      12B2     2.663975     4A2     2.672042    23A1     2.690037  
      13B1     2.696665    13B2     2.696665    24A1     2.952949  
      25A1     3.178644     5A2     3.248198    26A1     3.250278  
      14B1     3.621083    14B2     3.621083    27A1     3.642775  
       6A2     3.725723    28A1     3.766406    15B1     3.814842  
      15B2     3.814842    16B1     3.919822    16B2     3.919822  
      29A1     4.084406    30A1     4.930012    31A1     9.788772  
       7A2     9.796028     8A2     9.808361    17B2     9.817536  
      17B1     9.817536    32A1     9.840935    18B1     9.844660  
      18B2     9.844660    33A1     9.849189    19B2    10.310013  
      19B1    10.310013     9A2    10.335156    34A1    10.362901  
      20B1    10.424980    20B2    10.424980    35A1    10.686250  

    Beta Occupied:                                                        

       1A1  -275.354226     2A1   -31.947628     1B1   -28.166119  
       1B2   -28.166119     3A1   -28.163829     4A1    -3.506711  
       5A1    -2.328636     2B1    -2.320691     2B2    -2.320691  
       6A1    -0.311396     3B2    -0.245412     3B1    -0.245412  
       7A1    -0.238573  

    Beta Virtual:                                                         

       8A1    -0.044175     9A1     0.004928     1A2     0.026037  
       4B2     0.037921     4B1     0.037921    10A1     0.119577  
      11A1     0.136391     5B2     0.168215     5B1     0.168215  
      12A1     0.209159     6B2     0.227483     6B1     0.227483  
      13A1     0.265045     2A2     0.290447     7B2     0.364649  
       7B1     0.364649    14A1     0.365777    15A1     0.460325  
      16A1     0.513916     8B2     0.690518     8B1     0.690518  
      17A1     0.711508     9B1     0.903571     9B2     0.903571  
      18A1     1.055000     3A2     1.089137    19A1     1.164068  
      10B1     1.201532    10B2     1.201532    20A1     1.347551  
      21A1     2.410076    22A1     2.580022    11B1     2.602846  
      11B2     2.602846    23A1     2.701888    12B1     2.710361  
      12B2     2.710361     4A2     2.715816    13B1     2.790215  
      13B2     2.790215    24A1     2.962973    25A1     3.211623  
      26A1     3.212913     5A2     3.214652    14B1     3.596032  
      14B2     3.596032    27A1     3.704595    28A1     3.791402  
       6A2     3.816038    15B1     3.827851    15B2     3.827851  
      16B1     3.890518    16B2     3.890518    29A1     4.042689  
      30A1     4.924343    31A1     9.852856    17B1     9.855139  
      17B2     9.855139     7A2     9.856785     8A2     9.859864  
      32A1     9.866791    18B1     9.873151    18B2     9.873151  
      33A1     9.912872    19B1    10.345831    19B2    10.345831  
       9A2    10.349603    34A1    10.401688    20B1    10.443518  
      20B2    10.443518    35A1    10.717608  

    Final Occupation by Irrep:
             A1    A2    B1    B2 
    DOCC [     7,    0,    3,    3 ]
    SOCC [     1,    1,    0,    0 ]

  @DF-UKS Final Energy: -1383.46538904978843

   => Energetics <=

    Nuclear Repulsion Energy =              9.3323218080274337
    One-Electron Energy =               -1936.7635907666663115
    Two-Electron Energy =                 578.2202034673506432
    DFT Exchange-Correlation Energy =     -34.2543104084999328
    Empirical Dispersion Energy =          -0.0000131500000000
    VV10 Nonlocal Energy =                  0.0000000000000000
    Total Energy =                      -1383.4653890497882003

  UHF NO Occupations:
  HONO-2 :    7 A1 1.9916436
  HONO-1 :    8 A1 1.0000000
  HONO-0 :    1 A2 1.0000000
  LUNO+0 :    9 A1 0.0083564
  LUNO+1 :    4 B1 0.0008732
  LUNO+2 :    4 B2 0.0008732
  LUNO+3 :   10 A1 0.0008071


Computation Completed


Properties will be evaluated at   0.000000,   0.000000,   0.000000 [a0]

Properties computed using the SCF density matrix

  Nuclear Dipole Moment: [e a0]
     X:     0.0000      Y:     0.0000      Z:     1.5311

  Electronic Dipole Moment: [e a0]
     X:     0.0000      Y:     0.0000      Z:    -2.7806

  Dipole Moment: [e a0]
     X:     0.0000      Y:     0.0000      Z:    -1.2495     Total:     1.2495

  Dipole Moment: [D]
     X:     0.0000      Y:     0.0000      Z:    -3.1759     Total:     3.1759


*** tstop() called on compute500.bc4.acrc.priv at Sun Nov  7 05:09:30 2021
Module time:
	user time   =     203.70 seconds =       3.40 minutes
	system time =       7.88 seconds =       0.13 minutes
	total time  =          9 seconds =       0.15 minutes
Total time:
	user time   =     203.70 seconds =       3.40 minutes
	system time =       7.88 seconds =       0.13 minutes
	total time  =          9 seconds =       0.15 minutes

    Psi4 stopped on: Sunday, 07 November 2021 05:09AM
    Psi4 wall time for execution: 0:00:09.38

*** Psi4 exiting successfully. Buy a developer a beer!
