
    -----------------------------------------------------------------------
          Psi4: An Open-Source Ab Initio Electronic Structure Package
                               Psi4 1.4.1 release

                         Git: Rev {HEAD} cd00f19 


    D. G. A. Smith, L. A. Burns, A. C. Simmonett, R. M. Parrish,
    M. C. Schieber, R. Galvelis, P. Kraus, H. Kruse, R. Di Remigio,
    A. Alenaizan, A. M. James, S. Lehtola, J. P. Misiewicz, M. Scheurer,
    R. A. Shaw, J. B. Schriber, Y. Xie, Z. L. Glick, D. A. Sirianni,
    J. S. O'Brien, J. M. Waldrop, A. Kumar, E. G. Hohenstein,
    B. P. Pritchard, B. R. Brooks, H. F. Schaefer III, A. Yu. Sokolov,
    K. Patkowski, A. E. DePrince III, U. Bozkaya, R. A. King,
    F. A. Evangelista, J. M. Turney, T. D. Crawford, C. D. Sherrill,
    J. Chem. Phys. 152(18) 184108 (2020). https://doi.org/10.1063/5.0006002

                            Additional Code Authors
    E. T. Seidl, C. L. Janssen, E. F. Valeev, M. L. Leininger,
    J. F. Gonthier, R. M. Richard, H. R. McAlexander, M. Saitow, X. Wang,
    P. Verma, and M. H. Lechner

             Previous Authors, Complete List of Code Contributors,
                       and Citations for Specific Modules
    https://github.com/psi4/psi4/blob/master/codemeta.json
    https://github.com/psi4/psi4/graphs/contributors
    http://psicode.org/psi4manual/master/introduction.html#citing-psifour

    -----------------------------------------------------------------------


    Psi4 started on: Sunday, 07 November 2021 05:09AM

    Process ID: 21184
    Host:       compute270.bc4.acrc.priv
    PSIDATADIR: /mnt/storage/home/zw18965/.conda/envs/p4env/share/psi4
    Memory:     500.0 MiB
    Threads:    28
    
  ==> Input File <==

--------------------------------------------------------------------------
memory 120 GB

molecule {
1 5
C          0.00000        0.00000        0.00000
H          0.00000        0.00000        1.10000
H          1.03709        0.00000       -0.36667
H         -0.51855        0.89815       -0.36667
Cr        -0.89567       -1.55134       -0.63333
 }

set reference uks
set dynamic_level 1
set basis Def2-TZVPPD

energy("MN15-D3BJ")
--------------------------------------------------------------------------

  Memory set to 111.759 GiB by Python driver.

Scratch directory: /tmp/

*** tstart() called on compute270.bc4.acrc.priv
*** at Sun Nov  7 05:09:20 2021

   => Loading Basis Set <=

    Name: DEF2-TZVPPD
    Role: ORBITAL
    Keyword: BASIS
    atoms 1   entry C          line   144 file /mnt/storage/home/zw18965/.conda/envs/p4env/share/psi4/basis/def2-tzvppd.gbs 
    atoms 2-4 entry H          line    14 file /mnt/storage/home/zw18965/.conda/envs/p4env/share/psi4/basis/def2-tzvppd.gbs 
    atoms 5   entry CR         line   985 file /mnt/storage/home/zw18965/.conda/envs/p4env/share/psi4/basis/def2-tzvppd.gbs 

   => MN15-D3(BJ): Empirical Dispersion <=

    Grimme's -D3 (BJ-damping) Dispersion Correction
    Grimme S.; Ehrlich S.; Goerigk L. (2011), J. Comput. Chem., 32: 1456
    Parametrisation from:    L. Goerigk, A. Hansen, C. Bauer, S. Ehrlich, A. Najibi, S. Grimme, Phys. Chem. Chem. Phys. 19, 32184-32215, 2017

        s6 =       1.000000
        s8 =       2.097100
        a1 =       0.786200
        a2 =       7.592300


         ---------------------------------------------------------
                                   SCF
               by Justin Turney, Rob Parrish, Andy Simmonett
                          and Daniel G. A. Smith
                              UKS Reference
                       28 Threads, 114440 MiB Core
         ---------------------------------------------------------

  ==> Geometry <==

    Molecular point group: c1
    Full point group: C1

    Geometry (in Angstrom), charge = 1, multiplicity = 5:

       Center              X                  Y                   Z               Mass       
    ------------   -----------------  -----------------  -----------------  -----------------
         C            0.686920859714     1.189777030930     0.485723086351    12.000000000000
         H            0.686920859714     1.189777030930     1.585723086351     1.007825032230
         H            1.724010859714     1.189777030930     0.119053086351     1.007825032230
         H            0.168370859714     2.087927030930     0.119053086351     1.007825032230
         CR          -0.208749140286    -0.361562969070    -0.147606913649    51.940506230000

  Running in c1 symmetry.

  Rotational constants: A =      5.18388  B =      0.35603  C =      0.35603 [cm^-1]
  Rotational constants: A = 155408.77023  B =  10673.57504  C =  10673.57318 [MHz]
  Nuclear repulsion =   64.934375232826056

  Charge       = 1
  Multiplicity = 5
  Electrons    = 32
  Nalpha       = 18
  Nbeta        = 14

  ==> Algorithm <==

  SCF Algorithm Type is DF.
  DIIS enabled.
  MOM disabled.
  Fractional occupation disabled.
  Guess Type is SAD.
  Energy threshold   = 1.00e-06
  Density threshold  = 1.00e-06
  Integral threshold = 1.00e-12

  ==> Primary Basis <==

  Basis Set: DEF2-TZVPPD
    Blend: DEF2-TZVPPD
    Number of shells: 53
    Number of basis functions: 155
    Number of Cartesian functions: 180
    Spherical Harmonics?: true
    Max angular momentum: 4

  ==> DFT Potential <==

   => Composite Functional: MN15-D3BJ <= 

   MN15 Hybrid Meta-GGA Exchange-Correlation Functional

    H. S. Yu, X. He, S. L. Li, and D. G. Truhlar, Chem. Sci. 7, 5032-5051, 2016


    Deriv               =              1
    GGA                 =           TRUE
    Meta                =           TRUE

    Exchange Hybrid     =           TRUE
    MP2 Hybrid          =          FALSE

   => Exchange Functionals <=

    1.0000   XC_HYB_MGGA_X_MN15

   => Exact (HF) Exchange <=

    0.4400               HF 

   => Correlation Functionals <=

    1.0000   XC_MGGA_C_MN15

   => LibXC Density Thresholds  <==

    XC_MGGA_C_MN15:  1.00E-15 
    XC_HYB_MGGA_X_MN15:  1.00E-15 

   => Molecular Quadrature <=

    Radial Scheme          =       TREUTLER
    Pruning Scheme         =           NONE
    Nuclear Scheme         =       TREUTLER

    BS radius alpha        =              1
    Pruning alpha          =              1
    Radial Points          =             75
    Spherical Points       =            302
    Total Points           =         109586
    Total Blocks           =            887
    Max Points             =            256
    Max Functions          =            155
    Weights Tolerance      =       1.00E-15

   => Loading Basis Set <=

    Name: (DEF2-TZVPPD AUX)
    Role: JKFIT
    Keyword: DF_BASIS_SCF
    atoms 1   entry C          line   198 file /mnt/storage/home/zw18965/.conda/envs/p4env/share/psi4/basis/def2-universal-jkfit.gbs 
    atoms 2-4 entry H          line    18 file /mnt/storage/home/zw18965/.conda/envs/p4env/share/psi4/basis/def2-universal-jkfit.gbs 
    atoms 5   entry CR         line  1726 file /mnt/storage/home/zw18965/.conda/envs/p4env/share/psi4/basis/def2-universal-jkfit.gbs 

  ==> Integral Setup <==

  DFHelper Memory: AOs need 0.083 GiB; user supplied 82.753 GiB. Using in-core AOs.

  ==> MemDFJK: Density-Fitted J/K Matrices <==

    J tasked:                   Yes
    K tasked:                   Yes
    wK tasked:                   No
    OpenMP threads:              28
    Memory [MiB]:             84738
    Algorithm:                 Core
    Schwarz Cutoff:           1E-12
    Mask sparsity (%):       0.1249
    Fitting Condition:        1E-10

   => Auxiliary Basis Set <=

  Basis Set: (DEF2-TZVPPD AUX)
    Blend: DEF2-UNIVERSAL-JKFIT
    Number of shells: 101
    Number of basis functions: 393
    Number of Cartesian functions: 526
    Spherical Harmonics?: true
    Max angular momentum: 6

  Cached 100.0% of DFT collocation blocks in 1.066 [GiB].

  Minimum eigenvalue in the overlap matrix is 3.7668344833E-05.
  Reciprocal condition number of the overlap matrix is 4.0192041876E-06.
    Using symmetric orthogonalization.

  ==> Pre-Iterations <==

  SCF Guess: Superposition of Atomic Densities via on-the-fly atomic UHF (no occupation information).

   -------------------------
    Irrep   Nso     Nmo    
   -------------------------
     A        155     155 
   -------------------------
    Total     155     155
   -------------------------

  ==> Iterations <==

                           Total Energy        Delta E     RMS |[F,P]|

   @DF-UKS iter SAD: -1083.33706256389178   -1.08334e+03   0.00000e+00 
   @DF-UKS iter   1: -1083.47276983337633   -1.35707e-01   8.99249e-03 DIIS
   @DF-UKS iter   2: -1080.02010002125689    3.45267e+00   1.93796e-02 DIIS
   @DF-UKS iter   3: -1083.86920823421497   -3.84911e+00   4.56956e-03 DIIS
   @DF-UKS iter   4: -1084.00529657247466   -1.36088e-01   2.38601e-03 DIIS
   @DF-UKS iter   5: -1084.06197948134468   -5.66829e-02   6.36649e-04 DIIS
   @DF-UKS iter   6: -1084.06578998614191   -3.81050e-03   1.58788e-04 DIIS
   @DF-UKS iter   7: -1084.06638660103681   -5.96615e-04   5.73580e-05 DIIS
   @DF-UKS iter   8: -1084.06660164980167   -2.15049e-04   4.47383e-05 DIIS
   @DF-UKS iter   9: -1084.06674704885040   -1.45399e-04   1.64764e-05 DIIS
   @DF-UKS iter  10: -1084.06676180444538   -1.47556e-05   4.01431e-06 DIIS
   @DF-UKS iter  11: -1084.06676412132265   -2.31688e-06   1.09035e-06 DIIS
   @DF-UKS iter  12: -1084.06676423061162   -1.09289e-07   4.87646e-07 DIIS
  Energy and wave function converged.


  ==> Post-Iterations <==

   Electrons on quadrature grid:
      Nalpha   =   17.9999981675 ; deviation = -1.833e-06
      Nbeta    =   13.9999975035 ; deviation = -2.497e-06
      Ntotal   =   31.9999956709 ; deviation = -4.329e-06 

   @Spin Contamination Metric:   1.437982447E-01
   @S^2 Expected:                6.000000000E+00
   @S^2 Observed:                6.143798245E+00
   @S   Expected:                2.000000000E+00
   @S   Observed:                2.000000000E+00

    Orbital Energies [Eh]
    ---------------------

    Alpha Occupied:                                                       

       1A   -214.103522     2A    -24.251312     3A    -21.028952  
       4A    -21.023260     5A    -21.023249     6A    -10.207119  
       7A     -3.060363     8A     -2.135106     9A     -2.124016  
      10A     -2.124009    11A     -0.899190    12A     -0.632494  
      13A     -0.632493    14A     -0.537326    15A     -0.531379  
      16A     -0.531378    17A     -0.514647    18A     -0.514644  

    Alpha Virtual:                                                        

      19A     -0.311060    20A     -0.228919    21A     -0.150708  
      22A     -0.150695    23A     -0.085615    24A     -0.043134  
      25A     -0.040164    26A     -0.040164    27A     -0.022807  
      28A     -0.022805    29A     -0.003747    30A     -0.003205  
      31A     -0.003204    32A      0.027114    33A      0.036728  
      34A      0.036729    35A      0.059734    36A      0.081844  
      37A      0.081845    38A      0.132210    39A      0.175669  
      40A      0.175672    41A      0.198940    42A      0.198941  
      43A      0.199454    44A      0.200727    45A      0.213131  
      46A      0.219635    47A      0.219638    48A      0.230378  
      49A      0.241484    50A      0.241487    51A      0.321650  
      52A      0.342100    53A      0.342102    54A      0.375461  
      55A      0.387297    56A      0.387304    57A      0.403536  
      58A      0.403538    59A      0.452204    60A      0.574629  
      61A      0.574631    62A      0.596630    63A      0.596632  
      64A      0.612096    65A      0.661429    66A      0.694596  
      67A      0.694598    68A      0.895158    69A      0.911585  
      70A      0.911619    71A      0.950404    72A      0.997942  
      73A      0.997963    74A      1.108040    75A      1.108046  
      76A      1.115791    77A      1.260655    78A      1.279707  
      79A      1.379637    80A      1.428891    81A      1.428899  
      82A      1.491679    83A      1.491682    84A      1.508688  
      85A      1.551969    86A      1.551978    87A      1.641043  
      88A      1.641046    89A      1.647885    90A      1.754277  
      91A      1.816553    92A      1.837636    93A      1.837648  
      94A      1.863567    95A      1.863572    96A      1.868352  
      97A      2.027814    98A      2.027823    99A      2.254466  
     100A      2.512520   101A      2.512532   102A      2.514523  
     103A      2.616078   104A      2.719938   105A      2.719982  
     106A      2.738768   107A      2.738781   108A      2.903006  
     109A      2.903029   110A      2.918126   111A      3.106581  
     112A      3.217771   113A      3.217819   114A      3.306257  
     115A      3.306305   116A      3.331764   117A      3.574957  
     118A      3.597021   119A      3.597165   120A      3.704953  
     121A      3.797475   122A      3.797500   123A      3.899564  
     124A      3.984556   125A      3.984618   126A      4.039950  
     127A      4.299861   128A      4.299909   129A      4.351929  
     130A      4.725568   131A      4.725656   132A      4.778731  
     133A      4.789006   134A      4.892962   135A      4.986042  
     136A      4.986061   137A      5.181051   138A      5.181161  
     139A      5.206830   140A      5.206856   141A      5.209053  
     142A      5.213721   143A      5.282398   144A      5.282402  
     145A      5.368831   146A      5.368836   147A      5.420375  
     148A      5.864067   149A      5.871895   150A      5.955427  
     151A      5.955436   152A      6.136979   153A      6.136987  
     154A      6.185916   155A     22.241877  

    Beta Occupied:                                                        

       1A   -214.106668     2A    -24.230422     3A    -21.004233  
       4A    -20.992395     5A    -20.992386     6A    -10.209807  
       7A     -2.973215     8A     -2.018359     9A     -1.987961  
      10A     -1.987943    11A     -0.907523    12A     -0.626677  
      13A     -0.626674    14A     -0.514408  

    Beta Virtual:                                                         

      15A     -0.216859    16A     -0.181480    17A     -0.181470  
      18A     -0.168789    19A     -0.166479    20A     -0.166477  
      21A     -0.112234    22A     -0.112227    23A     -0.077730  
      24A     -0.034171    25A     -0.026835    26A     -0.026831  
      27A     -0.007666    28A     -0.007664    29A     -0.002730  
      30A      0.000404    31A      0.000405    32A      0.039274  
      33A      0.048664    34A      0.048667    35A      0.056404  
      36A      0.087055    37A      0.087056    38A      0.140849  
      39A      0.180463    40A      0.180464    41A      0.202280  
      42A      0.206004    43A      0.206341    44A      0.206344  
      45A      0.214469    46A      0.232288    47A      0.232874  
      48A      0.232877    49A      0.247603    50A      0.247605  
      51A      0.336308    52A      0.377880    53A      0.379298  
      54A      0.379302    55A      0.393716    56A      0.393720  
      57A      0.470059    58A      0.475289    59A      0.475294  
      60A      0.591429    61A      0.591433    62A      0.615173  
      63A      0.628327    64A      0.628333    65A      0.686823  
      66A      0.697476    67A      0.697478    68A      0.898801  
      69A      0.911266    70A      0.911294    71A      0.944870  
      72A      1.005423    73A      1.005450    74A      1.111360  
      75A      1.136993    76A      1.137001    77A      1.325532  
      78A      1.409351    79A      1.424450    80A      1.461647  
      81A      1.461652    82A      1.525102    83A      1.563769  
      84A      1.563773    85A      1.589591    86A      1.589600  
      87A      1.653828    88A      1.694580    89A      1.694593  
      90A      1.787709    91A      1.884398    92A      1.929837  
      93A      1.929842    94A      1.935688    95A      1.936319  
      96A      1.936334    97A      2.081745    98A      2.081752  
      99A      2.246958   100A      2.519558   101A      2.519558  
     102A      2.520558   103A      2.634559   104A      2.719945  
     105A      2.719975   106A      2.753401   107A      2.753416  
     108A      2.866342   109A      2.866360   110A      2.900724  
     111A      3.115197   112A      3.217168   113A      3.217201  
     114A      3.305515   115A      3.305566   116A      3.331221  
     117A      3.568746   118A      3.603895   119A      3.604036  
     120A      3.710393   121A      3.806233   122A      3.806256  
     123A      3.920622   124A      3.994105   125A      3.994152  
     126A      4.043435   127A      4.328067   128A      4.328110  
     129A      4.358055   130A      4.730562   131A      4.730637  
     132A      4.786194   133A      4.812721   134A      4.939979  
     135A      5.015786   136A      5.015808   137A      5.245133  
     138A      5.245228   139A      5.354813   140A      5.354863  
     141A      5.369676   142A      5.373938   143A      5.417159  
     144A      5.417195   145A      5.474534   146A      5.474549  
     147A      5.504166   148A      5.964350   149A      5.971948  
     150A      6.039826   151A      6.039836   152A      6.208548  
     153A      6.208549   154A      6.248083   155A     22.233757  

    Final Occupation by Irrep:
              A 
    DOCC [    14 ]
    SOCC [     4 ]

  @DF-UKS Final Energy: -1084.06676423061162

   => Energetics <=

    Nuclear Repulsion Energy =             64.9343752328260564
    One-Electron Energy =               -1612.0665007873847117
    Two-Electron Energy =                 494.5348419777910181
    DFT Exchange-Correlation Energy =     -31.4693925438438455
    Empirical Dispersion Energy =          -0.0000881100000000
    VV10 Nonlocal Energy =                  0.0000000000000000
    Total Energy =                      -1084.0667642306113976

  UHF NO Occupations:
  HONO-2 :   16  A 1.0000000
  HONO-1 :   17  A 1.0000000
  HONO-0 :   18  A 1.0000000
  LUNO+0 :   19  A 0.0737101
  LUNO+1 :   20  A 0.0002816
  LUNO+2 :   21  A 0.0002815
  LUNO+3 :   22  A 0.0001018


Computation Completed


Properties will be evaluated at   0.000000,   0.000000,   0.000000 [a0]

Properties computed using the SCF density matrix

  Nuclear Dipole Moment: [e a0]
     X:     3.1952      Y:     5.5343      Z:     2.2594

  Electronic Dipole Moment: [e a0]
     X:    -3.6914      Y:    -6.3936      Z:    -2.6102

  Dipole Moment: [e a0]
     X:    -0.4961      Y:    -0.8593      Z:    -0.3508     Total:     1.0524

  Dipole Moment: [D]
     X:    -1.2610      Y:    -2.1842      Z:    -0.8917     Total:     2.6751


*** tstop() called on compute270.bc4.acrc.priv at Sun Nov  7 05:09:47 2021
Module time:
	user time   =     661.37 seconds =      11.02 minutes
	system time =      29.94 seconds =       0.50 minutes
	total time  =         27 seconds =       0.45 minutes
Total time:
	user time   =     661.37 seconds =      11.02 minutes
	system time =      29.94 seconds =       0.50 minutes
	total time  =         27 seconds =       0.45 minutes

    Psi4 stopped on: Sunday, 07 November 2021 05:09AM
    Psi4 wall time for execution: 0:00:26.69

*** Psi4 exiting successfully. Buy a developer a beer!
