
    -----------------------------------------------------------------------
          Psi4: An Open-Source Ab Initio Electronic Structure Package
                               Psi4 1.4.1 release

                         Git: Rev {HEAD} cd00f19 


    D. G. A. Smith, L. A. Burns, A. C. Simmonett, R. M. Parrish,
    M. C. Schieber, R. Galvelis, P. Kraus, H. Kruse, R. Di Remigio,
    A. Alenaizan, A. M. James, S. Lehtola, J. P. Misiewicz, M. Scheurer,
    R. A. Shaw, J. B. Schriber, Y. Xie, Z. L. Glick, D. A. Sirianni,
    J. S. O'Brien, J. M. Waldrop, A. Kumar, E. G. Hohenstein,
    B. P. Pritchard, B. R. Brooks, H. F. Schaefer III, A. Yu. Sokolov,
    K. Patkowski, A. E. DePrince III, U. Bozkaya, R. A. King,
    F. A. Evangelista, J. M. Turney, T. D. Crawford, C. D. Sherrill,
    J. Chem. Phys. 152(18) 184108 (2020). https://doi.org/10.1063/5.0006002

                            Additional Code Authors
    E. T. Seidl, C. L. Janssen, E. F. Valeev, M. L. Leininger,
    J. F. Gonthier, R. M. Richard, H. R. McAlexander, M. Saitow, X. Wang,
    P. Verma, and M. H. Lechner

             Previous Authors, Complete List of Code Contributors,
                       and Citations for Specific Modules
    https://github.com/psi4/psi4/blob/master/codemeta.json
    https://github.com/psi4/psi4/graphs/contributors
    http://psicode.org/psi4manual/master/introduction.html#citing-psifour

    -----------------------------------------------------------------------


    Psi4 started on: Sunday, 07 November 2021 05:08AM

    Process ID: 22395
    Host:       compute429.bc4.acrc.priv
    PSIDATADIR: /mnt/storage/home/zw18965/.conda/envs/p4env/share/psi4
    Memory:     500.0 MiB
    Threads:    28
    
  ==> Input File <==

--------------------------------------------------------------------------
memory 120 GB

molecule {
1 1
Cu         0.00000        0.00000        0.00000
 }

set dynamic_level 1
set basis Def2-TZVPPD

energy("MN15-D3BJ")
--------------------------------------------------------------------------

  Memory set to 111.759 GiB by Python driver.

Scratch directory: /tmp/

*** tstart() called on compute429.bc4.acrc.priv
*** at Sun Nov  7 05:08:21 2021

   => Loading Basis Set <=

    Name: DEF2-TZVPPD
    Role: ORBITAL
    Keyword: BASIS
    atoms 1 entry CU         line  1290 file /mnt/storage/home/zw18965/.conda/envs/p4env/share/psi4/basis/def2-tzvppd.gbs 

   => MN15-D3(BJ): Empirical Dispersion <=

    Grimme's -D3 (BJ-damping) Dispersion Correction
    Grimme S.; Ehrlich S.; Goerigk L. (2011), J. Comput. Chem., 32: 1456
    Parametrisation from:    L. Goerigk, A. Hansen, C. Bauer, S. Ehrlich, A. Najibi, S. Grimme, Phys. Chem. Chem. Phys. 19, 32184-32215, 2017

        s6 =       1.000000
        s8 =       2.097100
        a1 =       0.786200
        a2 =       7.592300


         ---------------------------------------------------------
                                   SCF
               by Justin Turney, Rob Parrish, Andy Simmonett
                          and Daniel G. A. Smith
                              RKS Reference
                       28 Threads, 114440 MiB Core
         ---------------------------------------------------------

  ==> Geometry <==

    Molecular point group: d2h
    Geometry (in Angstrom), charge = 1, multiplicity = 1:

       Center              X                  Y                   Z               Mass       
    ------------   -----------------  -----------------  -----------------  -----------------
         CU           0.000000000000     0.000000000000     0.000000000000    62.929597720000

  Running in d2h symmetry.

  Rotational constants: A = ************  B = ************  C = ************ [cm^-1]
  Rotational constants: A = ************  B = ************  C = ************ [MHz]
  Nuclear repulsion =    0.000000000000000

  Charge       = 1
  Multiplicity = 1
  Electrons    = 28
  Nalpha       = 14
  Nbeta        = 14

  ==> Algorithm <==

  SCF Algorithm Type is DF.
  DIIS enabled.
  MOM disabled.
  Fractional occupation disabled.
  Guess Type is CORE.
  Energy threshold   = 1.00e-06
  Density threshold  = 1.00e-06
  Integral threshold = 1.00e-12

  ==> Primary Basis <==

  Basis Set: DEF2-TZVPPD
    Blend: DEF2-TZVPPD
    Number of shells: 19
    Number of basis functions: 67
    Number of Cartesian functions: 83
    Spherical Harmonics?: true
    Max angular momentum: 4

  ==> DFT Potential <==

   => Composite Functional: MN15-D3BJ <= 

   MN15 Hybrid Meta-GGA Exchange-Correlation Functional

    H. S. Yu, X. He, S. L. Li, and D. G. Truhlar, Chem. Sci. 7, 5032-5051, 2016


    Deriv               =              1
    GGA                 =           TRUE
    Meta                =           TRUE

    Exchange Hybrid     =           TRUE
    MP2 Hybrid          =          FALSE

   => Exchange Functionals <=

    1.0000   XC_HYB_MGGA_X_MN15

   => Exact (HF) Exchange <=

    0.4400               HF 

   => Correlation Functionals <=

    1.0000   XC_MGGA_C_MN15

   => LibXC Density Thresholds  <==

    XC_MGGA_C_MN15:  1.00E-15 
    XC_HYB_MGGA_X_MN15:  1.00E-15 

   => Molecular Quadrature <=

    Radial Scheme          =       TREUTLER
    Pruning Scheme         =           NONE
    Nuclear Scheme         =       TREUTLER

    BS radius alpha        =              1
    Pruning alpha          =              1
    Radial Points          =             75
    Spherical Points       =            302
    Total Points           =          21738
    Total Blocks           =            245
    Max Points             =            245
    Max Functions          =             67
    Weights Tolerance      =       1.00E-15

   => Loading Basis Set <=

    Name: (DEF2-TZVPPD AUX)
    Role: JKFIT
    Keyword: DF_BASIS_SCF
    atoms 1 entry CU         line  2356 file /mnt/storage/home/zw18965/.conda/envs/p4env/share/psi4/basis/def2-universal-jkfit.gbs 

  ==> Integral Setup <==

  DFHelper Memory: AOs need 0.012 GiB; user supplied 83.735 GiB. Using in-core AOs.

  ==> MemDFJK: Density-Fitted J/K Matrices <==

    J tasked:                   Yes
    K tasked:                   Yes
    wK tasked:                   No
    OpenMP threads:              28
    Memory [MiB]:             85744
    Algorithm:                 Core
    Schwarz Cutoff:           1E-12
    Mask sparsity (%):       0.0000
    Fitting Condition:        1E-10

   => Auxiliary Basis Set <=

  Basis Set: (DEF2-TZVPPD AUX)
    Blend: DEF2-UNIVERSAL-JKFIT
    Number of shells: 58
    Number of basis functions: 264
    Number of Cartesian functions: 377
    Spherical Harmonics?: true
    Max angular momentum: 6

  Cached 100.0% of DFT collocation blocks in 0.084 [GiB].

  Minimum eigenvalue in the overlap matrix is 5.2350090433E-02.
  Reciprocal condition number of the overlap matrix is 1.9381610677E-02.
    Using symmetric orthogonalization.

  ==> Pre-Iterations <==

  SCF Guess: Core (One-Electron) Hamiltonian.

   -------------------------------------------------------
    Irrep   Nso     Nmo     Nalpha   Nbeta   Ndocc  Nsocc
   -------------------------------------------------------
     Ag        17      17       5       5       5       0
     B1g        6       6       1       1       1       0
     B2g        6       6       1       1       1       0
     B3g        6       6       1       1       1       0
     Au         2       2       0       0       0       0
     B1u       10      10       2       2       2       0
     B2u       10      10       2       2       2       0
     B3u       10      10       2       2       2       0
   -------------------------------------------------------
    Total      67      67      14      14      14       0
   -------------------------------------------------------

  ==> Iterations <==

                           Total Energy        Delta E     RMS |[F,P]|

    Occupation by irrep:
             Ag   B1g   B2g   B3g    Au   B1u   B2u   B3u 
    DOCC [     5,    0,    0,    0,    0,    3,    3,    3 ]

   @DF-RKS iter   1: -1603.53298764885062   -1.60353e+03   3.86605e-01 DIIS
    Occupation by irrep:
             Ag   B1g   B2g   B3g    Au   B1u   B2u   B3u 
    DOCC [     5,    1,    1,    1,    0,    2,    2,    2 ]

   @DF-RKS iter   2: -1553.76565400440836    4.97673e+01   6.08384e-01 DIIS
    Occupation by irrep:
             Ag   B1g   B2g   B3g    Au   B1u   B2u   B3u 
    DOCC [     6,    1,    1,    0,    0,    2,    2,    2 ]

   @DF-RKS iter   3: -1639.94978754059298   -8.61841e+01   6.92760e-02 DIIS
    Occupation by irrep:
             Ag   B1g   B2g   B3g    Au   B1u   B2u   B3u 
    DOCC [     5,    1,    1,    1,    0,    2,    2,    2 ]

   @DF-RKS iter   4: -1636.60297609438453    3.34681e+00   1.72088e-01 DIIS
   @DF-RKS iter   5: -1639.46401590748746   -2.86104e+00   1.03455e-01 DIIS
   @DF-RKS iter   6: -1639.45930910686297    4.70680e-03   1.03218e-01 DIIS
   @DF-RKS iter   7: -1639.54092834801986   -8.16192e-02   9.88264e-02 DIIS
   @DF-RKS iter   8: -1639.53364050327468    7.28784e-03   9.91074e-02 DIIS
   @DF-RKS iter   9: -1640.05308222246435   -5.19442e-01   6.48975e-02 DIIS
   @DF-RKS iter  10: -1640.43753960650179   -3.84457e-01   1.76476e-02 DIIS
   @DF-RKS iter  11: -1640.46665082093409   -2.91112e-02   6.96495e-04 DIIS
   @DF-RKS iter  12: -1640.46681297449118   -1.62154e-04   2.15896e-04 DIIS
   @DF-RKS iter  13: -1640.46685775878018   -4.47843e-05   5.08849e-05 DIIS
   @DF-RKS iter  14: -1640.46686749901141   -9.74023e-06   1.38925e-05 DIIS
   @DF-RKS iter  15: -1640.46686754259508   -4.35837e-08   1.30581e-06 DIIS
   @DF-RKS iter  16: -1640.46686754462871   -2.03363e-09   3.93729e-07 DIIS
  Energy and wave function converged.


  ==> Post-Iterations <==

   Electrons on quadrature grid:
      Ntotal   =   27.9999999596 ; deviation = -4.043e-08 

    Orbital Energies [Eh]
    ---------------------

    Doubly Occupied:                                                      

       1Ag  -321.000888     2Ag   -38.156606     1B3u  -34.009684  
       1B2u  -34.009684     1B1u  -34.009684     3Ag    -4.384359  
       2B1u   -3.057891     2B2u   -3.057891     2B3u   -3.057890  
       4Ag    -0.629479     1B3g   -0.629478     1B2g   -0.629478  
       1B1g   -0.629478     5Ag    -0.629478  

    Virtual:                                                              

       6Ag    -0.331185     3B1u   -0.162385     3B2u   -0.162385  
       3B3u   -0.162384     7Ag    -0.034225     4B2u   -0.008425  
       4B1u   -0.008425     4B3u   -0.008425     8Ag     0.050427  
       2B3g    0.050428     2B2g    0.050428     2B1g    0.050428  
       9Ag     0.050428     5B3u    0.485165     5B2u    0.485165  
       5B1u    0.485165    10Ag     0.677040     3B3g    0.677041  
       3B2g    0.677041     3B1g    0.677041    11Ag     0.677041  
      12Ag     2.693301     6B2u    2.698133     6B3u    2.698133  
       6B1u    2.698133     7B3u    3.096270     7B2u    3.096270  
       7B1u    3.096270     8B3u    3.096270     1Au     3.096270  
       8B1u    3.096270     8B2u    3.096270    13Ag     3.319963  
       4B2g    3.319964     4B1g    3.319964    14Ag     3.319964  
       4B3g    3.319964    15Ag    12.401484     5B1g   12.401484  
       5B2g   12.401484     5B3g   12.401484    16Ag    12.401484  
       6B2g   12.401484     6B1g   12.401484     6B3g   12.401484  
      17Ag    12.401484     9B1u   12.568864     9B2u   12.568864  
       9B3u   12.568864     2Au    12.568864    10B1u   12.568864  
      10B2u   12.568864    10B3u   12.568864  

    Final Occupation by Irrep:
             Ag   B1g   B2g   B3g    Au   B1u   B2u   B3u 
    DOCC [     5,    1,    1,    1,    0,    2,    2,    2 ]

  @DF-RKS Final Energy: -1640.46686754462871

   => Energetics <=

    Nuclear Repulsion Energy =              0.0000000000000000
    One-Electron Energy =               -2278.4654209155423814
    Two-Electron Energy =                 676.4798742554617093
    DFT Exchange-Correlation Energy =     -38.4813208845479409
    Empirical Dispersion Energy =           0.0000000000000000
    VV10 Nonlocal Energy =                  0.0000000000000000
    Total Energy =                      -1640.4668675446287125

Computation Completed


Properties will be evaluated at   0.000000,   0.000000,   0.000000 [a0]

Properties computed using the SCF density matrix

  Nuclear Dipole Moment: [e a0]
     X:     0.0000      Y:     0.0000      Z:     0.0000

  Electronic Dipole Moment: [e a0]
     X:     0.0000      Y:     0.0000      Z:     0.0000

  Dipole Moment: [e a0]
     X:     0.0000      Y:     0.0000      Z:     0.0000     Total:     0.0000

  Dipole Moment: [D]
     X:     0.0000      Y:     0.0000      Z:     0.0000     Total:     0.0000


*** tstop() called on compute429.bc4.acrc.priv at Sun Nov  7 05:08:23 2021
Module time:
	user time   =      21.52 seconds =       0.36 minutes
	system time =       1.13 seconds =       0.02 minutes
	total time  =          2 seconds =       0.03 minutes
Total time:
	user time   =      21.52 seconds =       0.36 minutes
	system time =       1.13 seconds =       0.02 minutes
	total time  =          2 seconds =       0.03 minutes

    Psi4 stopped on: Sunday, 07 November 2021 05:08AM
    Psi4 wall time for execution: 0:00:02.47

*** Psi4 exiting successfully. Buy a developer a beer!
