
    -----------------------------------------------------------------------
          Psi4: An Open-Source Ab Initio Electronic Structure Package
                               Psi4 1.4.1 release

                         Git: Rev {HEAD} cd00f19 


    D. G. A. Smith, L. A. Burns, A. C. Simmonett, R. M. Parrish,
    M. C. Schieber, R. Galvelis, P. Kraus, H. Kruse, R. Di Remigio,
    A. Alenaizan, A. M. James, S. Lehtola, J. P. Misiewicz, M. Scheurer,
    R. A. Shaw, J. B. Schriber, Y. Xie, Z. L. Glick, D. A. Sirianni,
    J. S. O'Brien, J. M. Waldrop, A. Kumar, E. G. Hohenstein,
    B. P. Pritchard, B. R. Brooks, H. F. Schaefer III, A. Yu. Sokolov,
    K. Patkowski, A. E. DePrince III, U. Bozkaya, R. A. King,
    F. A. Evangelista, J. M. Turney, T. D. Crawford, C. D. Sherrill,
    J. Chem. Phys. 152(18) 184108 (2020). https://doi.org/10.1063/5.0006002

                            Additional Code Authors
    E. T. Seidl, C. L. Janssen, E. F. Valeev, M. L. Leininger,
    J. F. Gonthier, R. M. Richard, H. R. McAlexander, M. Saitow, X. Wang,
    P. Verma, and M. H. Lechner

             Previous Authors, Complete List of Code Contributors,
                       and Citations for Specific Modules
    https://github.com/psi4/psi4/blob/master/codemeta.json
    https://github.com/psi4/psi4/graphs/contributors
    http://psicode.org/psi4manual/master/introduction.html#citing-psifour

    -----------------------------------------------------------------------


    Psi4 started on: Sunday, 07 November 2021 05:09AM

    Process ID: 6843
    Host:       compute379.bc4.acrc.priv
    PSIDATADIR: /mnt/storage/home/zw18965/.conda/envs/p4env/share/psi4
    Memory:     500.0 MiB
    Threads:    28
    
  ==> Input File <==

--------------------------------------------------------------------------
memory 120 GB

molecule {
0 2
Cu         0.00000        0.00000        0.00000
 }

set reference uks
set dynamic_level 1
set basis Def2-TZVPPD

energy("MN15-D3BJ")
--------------------------------------------------------------------------

  Memory set to 111.759 GiB by Python driver.

Scratch directory: /tmp/

*** tstart() called on compute379.bc4.acrc.priv
*** at Sun Nov  7 05:09:21 2021

   => Loading Basis Set <=

    Name: DEF2-TZVPPD
    Role: ORBITAL
    Keyword: BASIS
    atoms 1 entry CU         line  1290 file /mnt/storage/home/zw18965/.conda/envs/p4env/share/psi4/basis/def2-tzvppd.gbs 

   => MN15-D3(BJ): Empirical Dispersion <=

    Grimme's -D3 (BJ-damping) Dispersion Correction
    Grimme S.; Ehrlich S.; Goerigk L. (2011), J. Comput. Chem., 32: 1456
    Parametrisation from:    L. Goerigk, A. Hansen, C. Bauer, S. Ehrlich, A. Najibi, S. Grimme, Phys. Chem. Chem. Phys. 19, 32184-32215, 2017

        s6 =       1.000000
        s8 =       2.097100
        a1 =       0.786200
        a2 =       7.592300


         ---------------------------------------------------------
                                   SCF
               by Justin Turney, Rob Parrish, Andy Simmonett
                          and Daniel G. A. Smith
                              UKS Reference
                       28 Threads, 114440 MiB Core
         ---------------------------------------------------------

  ==> Geometry <==

    Molecular point group: d2h
    Geometry (in Angstrom), charge = 0, multiplicity = 2:

       Center              X                  Y                   Z               Mass       
    ------------   -----------------  -----------------  -----------------  -----------------
         CU           0.000000000000     0.000000000000     0.000000000000    62.929597720000

  Running in d2h symmetry.

  Rotational constants: A = ************  B = ************  C = ************ [cm^-1]
  Rotational constants: A = ************  B = ************  C = ************ [MHz]
  Nuclear repulsion =    0.000000000000000

  Charge       = 0
  Multiplicity = 2
  Electrons    = 29
  Nalpha       = 15
  Nbeta        = 14

  ==> Algorithm <==

  SCF Algorithm Type is DF.
  DIIS enabled.
  MOM disabled.
  Fractional occupation disabled.
  Guess Type is CORE.
  Energy threshold   = 1.00e-06
  Density threshold  = 1.00e-06
  Integral threshold = 1.00e-12

  ==> Primary Basis <==

  Basis Set: DEF2-TZVPPD
    Blend: DEF2-TZVPPD
    Number of shells: 19
    Number of basis functions: 67
    Number of Cartesian functions: 83
    Spherical Harmonics?: true
    Max angular momentum: 4

  ==> DFT Potential <==

   => Composite Functional: MN15-D3BJ <= 

   MN15 Hybrid Meta-GGA Exchange-Correlation Functional

    H. S. Yu, X. He, S. L. Li, and D. G. Truhlar, Chem. Sci. 7, 5032-5051, 2016


    Deriv               =              1
    GGA                 =           TRUE
    Meta                =           TRUE

    Exchange Hybrid     =           TRUE
    MP2 Hybrid          =          FALSE

   => Exchange Functionals <=

    1.0000   XC_HYB_MGGA_X_MN15

   => Exact (HF) Exchange <=

    0.4400               HF 

   => Correlation Functionals <=

    1.0000   XC_MGGA_C_MN15

   => LibXC Density Thresholds  <==

    XC_MGGA_C_MN15:  1.00E-15 
    XC_HYB_MGGA_X_MN15:  1.00E-15 

   => Molecular Quadrature <=

    Radial Scheme          =       TREUTLER
    Pruning Scheme         =           NONE
    Nuclear Scheme         =       TREUTLER

    BS radius alpha        =              1
    Pruning alpha          =              1
    Radial Points          =             75
    Spherical Points       =            302
    Total Points           =          21738
    Total Blocks           =            245
    Max Points             =            245
    Max Functions          =             67
    Weights Tolerance      =       1.00E-15

   => Loading Basis Set <=

    Name: (DEF2-TZVPPD AUX)
    Role: JKFIT
    Keyword: DF_BASIS_SCF
    atoms 1 entry CU         line  2356 file /mnt/storage/home/zw18965/.conda/envs/p4env/share/psi4/basis/def2-universal-jkfit.gbs 

  ==> Integral Setup <==

  DFHelper Memory: AOs need 0.012 GiB; user supplied 83.735 GiB. Using in-core AOs.

  ==> MemDFJK: Density-Fitted J/K Matrices <==

    J tasked:                   Yes
    K tasked:                   Yes
    wK tasked:                   No
    OpenMP threads:              28
    Memory [MiB]:             85744
    Algorithm:                 Core
    Schwarz Cutoff:           1E-12
    Mask sparsity (%):       0.0000
    Fitting Condition:        1E-10

   => Auxiliary Basis Set <=

  Basis Set: (DEF2-TZVPPD AUX)
    Blend: DEF2-UNIVERSAL-JKFIT
    Number of shells: 58
    Number of basis functions: 264
    Number of Cartesian functions: 377
    Spherical Harmonics?: true
    Max angular momentum: 6

  Cached 100.0% of DFT collocation blocks in 0.084 [GiB].

  Minimum eigenvalue in the overlap matrix is 5.2350090433E-02.
  Reciprocal condition number of the overlap matrix is 1.9381610677E-02.
    Using symmetric orthogonalization.

  ==> Pre-Iterations <==

  SCF Guess: Core (One-Electron) Hamiltonian.

   -------------------------------------------------------
    Irrep   Nso     Nmo     Nalpha   Nbeta   Ndocc  Nsocc
   -------------------------------------------------------
     Ag        17      17       5       5       5       0
     B1g        6       6       1       1       1       0
     B2g        6       6       1       1       1       0
     B3g        6       6       1       1       1       0
     Au         2       2       0       0       0       0
     B1u       10      10       2       2       2       0
     B2u       10      10       2       2       2       0
     B3u       10      10       3       2       2       1
   -------------------------------------------------------
    Total      67      67      15      14      14       1
   -------------------------------------------------------

  ==> Iterations <==

                           Total Energy        Delta E     RMS |[F,P]|

    Occupation by irrep:
             Ag   B1g   B2g   B3g    Au   B1u   B2u   B3u 
    DOCC [     5,    0,    0,    0,    0,    3,    3,    3 ]
    SOCC [     0,    0,    0,    1,    0,    0,    0,    0 ]

   @DF-UKS iter   1: -1588.63116900518980   -1.58863e+03   4.41679e-01 DIIS
    Occupation by irrep:
             Ag   B1g   B2g   B3g    Au   B1u   B2u   B3u 
    DOCC [     5,    1,    1,    1,    0,    2,    2,    2 ]
    SOCC [     1,    0,    0,    0,    0,    0,    0,    0 ]

   @DF-UKS iter   2: -1518.24818511642707    7.03830e+01   5.17987e-01 DIIS
   @DF-UKS iter   3: -1637.97765579509087   -1.19729e+02   1.39047e-01 DIIS
   @DF-UKS iter   4: -1640.70724931690665   -2.72959e+00   1.47215e-02 DIIS
   @DF-UKS iter   5: -1640.68119470097463    2.60546e-02   2.55865e-02 DIIS
   @DF-UKS iter   6: -1640.72772123915775   -4.65265e-02   1.44621e-02 DIIS
   @DF-UKS iter   7: -1640.74926767985608   -2.15464e-02   4.15092e-04 DIIS
   @DF-UKS iter   8: -1640.74930373001553   -3.60502e-05   1.83082e-04 DIIS
   @DF-UKS iter   9: -1640.74930793105136   -4.20104e-06   2.34718e-05 DIIS
   @DF-UKS iter  10: -1640.74930804580322   -1.14752e-07   2.24278e-06 DIIS
   @DF-UKS iter  11: -1640.74930804964379   -3.84057e-09   8.04180e-07 DIIS
  Energy and wave function converged.


  ==> Post-Iterations <==

   Electrons on quadrature grid:
      Nalpha   =   14.9999999798 ; deviation = -2.023e-08
      Nbeta    =   13.9999999798 ; deviation = -2.022e-08
      Ntotal   =   28.9999999596 ; deviation = -4.045e-08 

   @Spin Contamination Metric:   1.132063763E-03
   @S^2 Expected:                7.500000000E-01
   @S^2 Observed:                7.511320638E-01
   @S   Expected:                5.000000000E-01
   @S   Observed:                5.000000000E-01

    Orbital Energies [Eh]
    ---------------------

    Alpha Occupied:                                                       

       1Ag  -320.688735     2Ag   -37.854880     1B3u  -33.705562  
       1B2u  -33.705562     1B1u  -33.705561     3Ag    -4.078739  
       2B3u   -2.748168     2B2u   -2.748168     2B1u   -2.748168  
       4Ag    -0.319851     1B3g   -0.319850     1B2g   -0.319850  
       5Ag    -0.319850     1B1g   -0.319850     6Ag    -0.219290  

    Alpha Virtual:                                                        

       3B1u    0.001631     3B2u    0.001633     3B3u    0.001633  
       7Ag     0.127860     4B1u    0.169704     4B2u    0.169706  
       4B3u    0.169706     8Ag     0.215858     2B3g    0.215858  
       2B2g    0.215858     2B1g    0.215859     9Ag     0.215859  
       5B1u    0.719052     5B2u    0.719054     5B3u    0.719055  
      10Ag     0.930151     3B3g    0.930151     3B2g    0.930152  
       3B1g    0.930154    11Ag     0.930154     6B1u    2.981576  
       6B2u    2.981580     6B3u    2.981580    12Ag     2.984084  
       7B1u    3.412248     7B2u    3.412249     7B3u    3.412249  
       1Au     3.412251     8B1u    3.412251     8B3u    3.412254  
       8B2u    3.412254    13Ag     3.614504     4B3g    3.614505  
       4B2g    3.614505    14Ag     3.614507     4B1g    3.614507  
      15Ag    12.715532     5B3g   12.715532     5B2g   12.715532  
       5B1g   12.715532    16Ag    12.715532     6B2g   12.715532  
       6B3g   12.715532    17Ag    12.715533     6B1g   12.715533  
       9B3u   12.875659     9B2u   12.875660     9B1u   12.875661  
       2Au    12.875661    10B3u   12.875662    10B2u   12.875662  
      10B1u   12.875662  

    Beta Occupied:                                                        

       1Ag  -320.687982     2Ag   -37.855241     1B1u  -33.706623  
       1B2u  -33.706620     1B3u  -33.706620     3Ag    -4.076507  
       2B3u   -2.748408     2B2u   -2.748407     2B1u   -2.748405  
       4Ag    -0.317969     1B1g   -0.317969     1B2g   -0.317968  
       1B3g   -0.317968     5Ag    -0.317967  

    Beta Virtual:                                                         

       6Ag    -0.070940     3B3u    0.063568     3B2u    0.063568  
       3B1u    0.063575     4B3u    0.170973     4B2u    0.170973  
       4B1u    0.170978     7Ag     0.175005     8Ag     0.272219  
       2B1g    0.272219     2B2g    0.272224     2B3g    0.272225  
       9Ag     0.272227     5B3u    0.742364     5B2u    0.742364  
       5B1u    0.742366    10Ag     0.935893     3B1g    0.935893  
       3B2g    0.935893     3B3g    0.935893    11Ag     0.935894  
       6B3u    2.991241     6B2u    2.991241     6B1u    2.991242  
      12Ag     2.996795     7B3u    3.425882     7B2u    3.425882  
       7B1u    3.425882     1Au     3.425882     8B3u    3.425883  
       8B2u    3.425883     8B1u    3.425883    13Ag     3.624924  
       4B1g    3.624924     4B2g    3.624925     4B3g    3.624925  
      14Ag     3.624925    15Ag    12.714290     5B1g   12.714290  
      16Ag    12.714290     5B3g   12.714290     5B2g   12.714290  
      17Ag    12.714290     6B1g   12.714290     6B3g   12.714290  
       6B2g   12.714290     9B2u   12.876825     9B3u   12.876825  
       9B1u   12.876827     2Au    12.876827    10B3u   12.876828  
      10B2u   12.876828    10B1u   12.876828  

    Final Occupation by Irrep:
             Ag   B1g   B2g   B3g    Au   B1u   B2u   B3u 
    DOCC [     5,    1,    1,    1,    0,    2,    2,    2 ]
    SOCC [     1,    0,    0,    0,    0,    0,    0,    0 ]

  @DF-UKS Final Energy: -1640.74930804964379

   => Energetics <=

    Nuclear Repulsion Energy =              0.0000000000000000
    One-Electron Energy =               -2287.3792105574507332
    Two-Electron Energy =                 685.2111752661841138
    DFT Exchange-Correlation Energy =     -38.5812727583770680
    Empirical Dispersion Energy =           0.0000000000000000
    VV10 Nonlocal Energy =                  0.0000000000000000
    Total Energy =                      -1640.7493080496437869

  UHF NO Occupations:
  HONO-2 :    1B3g 1.9998875
  HONO-1 :    5 Ag 1.9998875
  HONO-0 :    6 Ag 1.0000000
  LUNO+0 :    7 Ag 0.0001125
  LUNO+1 :    2B3g 0.0001125
  LUNO+2 :    2B2g 0.0001125
  LUNO+3 :    2B1g 0.0001124


Computation Completed


Properties will be evaluated at   0.000000,   0.000000,   0.000000 [a0]

Properties computed using the SCF density matrix

  Nuclear Dipole Moment: [e a0]
     X:     0.0000      Y:     0.0000      Z:     0.0000

  Electronic Dipole Moment: [e a0]
     X:     0.0000      Y:     0.0000      Z:     0.0000

  Dipole Moment: [e a0]
     X:     0.0000      Y:     0.0000      Z:     0.0000     Total:     0.0000

  Dipole Moment: [D]
     X:     0.0000      Y:     0.0000      Z:     0.0000     Total:     0.0000


*** tstop() called on compute379.bc4.acrc.priv at Sun Nov  7 05:09:26 2021
Module time:
	user time   =      92.85 seconds =       1.55 minutes
	system time =       3.75 seconds =       0.06 minutes
	total time  =          5 seconds =       0.08 minutes
Total time:
	user time   =      92.85 seconds =       1.55 minutes
	system time =       3.75 seconds =       0.06 minutes
	total time  =          5 seconds =       0.08 minutes

    Psi4 stopped on: Sunday, 07 November 2021 05:09AM
    Psi4 wall time for execution: 0:00:05.11

*** Psi4 exiting successfully. Buy a developer a beer!
