
    -----------------------------------------------------------------------
          Psi4: An Open-Source Ab Initio Electronic Structure Package
                               Psi4 1.4.1 release

                         Git: Rev {HEAD} cd00f19 


    D. G. A. Smith, L. A. Burns, A. C. Simmonett, R. M. Parrish,
    M. C. Schieber, R. Galvelis, P. Kraus, H. Kruse, R. Di Remigio,
    A. Alenaizan, A. M. James, S. Lehtola, J. P. Misiewicz, M. Scheurer,
    R. A. Shaw, J. B. Schriber, Y. Xie, Z. L. Glick, D. A. Sirianni,
    J. S. O'Brien, J. M. Waldrop, A. Kumar, E. G. Hohenstein,
    B. P. Pritchard, B. R. Brooks, H. F. Schaefer III, A. Yu. Sokolov,
    K. Patkowski, A. E. DePrince III, U. Bozkaya, R. A. King,
    F. A. Evangelista, J. M. Turney, T. D. Crawford, C. D. Sherrill,
    J. Chem. Phys. 152(18) 184108 (2020). https://doi.org/10.1063/5.0006002

                            Additional Code Authors
    E. T. Seidl, C. L. Janssen, E. F. Valeev, M. L. Leininger,
    J. F. Gonthier, R. M. Richard, H. R. McAlexander, M. Saitow, X. Wang,
    P. Verma, and M. H. Lechner

             Previous Authors, Complete List of Code Contributors,
                       and Citations for Specific Modules
    https://github.com/psi4/psi4/blob/master/codemeta.json
    https://github.com/psi4/psi4/graphs/contributors
    http://psicode.org/psi4manual/master/introduction.html#citing-psifour

    -----------------------------------------------------------------------


    Psi4 started on: Sunday, 07 November 2021 05:09AM

    Process ID: 8315
    Host:       compute476.bc4.acrc.priv
    PSIDATADIR: /mnt/storage/home/zw18965/.conda/envs/p4env/share/psi4
    Memory:     500.0 MiB
    Threads:    28
    
  ==> Input File <==

--------------------------------------------------------------------------
memory 120 GB

molecule {
0 1
Cu         0.00000        0.00000        0.00000
Cu         0.00000        0.00000        2.22000
 }

set dynamic_level 1
set basis Def2-TZVPPD

energy("MN15-D3BJ")
--------------------------------------------------------------------------

  Memory set to 111.759 GiB by Python driver.

Scratch directory: /tmp/

*** tstart() called on compute476.bc4.acrc.priv
*** at Sun Nov  7 05:09:21 2021

   => Loading Basis Set <=

    Name: DEF2-TZVPPD
    Role: ORBITAL
    Keyword: BASIS
    atoms 1-2 entry CU         line  1290 file /mnt/storage/home/zw18965/.conda/envs/p4env/share/psi4/basis/def2-tzvppd.gbs 

   => MN15-D3(BJ): Empirical Dispersion <=

    Grimme's -D3 (BJ-damping) Dispersion Correction
    Grimme S.; Ehrlich S.; Goerigk L. (2011), J. Comput. Chem., 32: 1456
    Parametrisation from:    L. Goerigk, A. Hansen, C. Bauer, S. Ehrlich, A. Najibi, S. Grimme, Phys. Chem. Chem. Phys. 19, 32184-32215, 2017

        s6 =       1.000000
        s8 =       2.097100
        a1 =       0.786200
        a2 =       7.592300


         ---------------------------------------------------------
                                   SCF
               by Justin Turney, Rob Parrish, Andy Simmonett
                          and Daniel G. A. Smith
                              RKS Reference
                       28 Threads, 114440 MiB Core
         ---------------------------------------------------------

  ==> Geometry <==

    Molecular point group: d2h
    Full point group: D_inf_h

    Geometry (in Angstrom), charge = 0, multiplicity = 1:

       Center              X                  Y                   Z               Mass       
    ------------   -----------------  -----------------  -----------------  -----------------
         CU           0.000000000000     0.000000000000    -1.110000000000    62.929597720000
         CU           0.000000000000     0.000000000000     1.110000000000    62.929597720000

  Running in d2h symmetry.

  Rotational constants: A = ************  B =      0.10871  C =      0.10871 [cm^-1]
  Rotational constants: A = ************  B =   3259.01448  C =   3259.01448 [MHz]
  Nuclear repulsion =  200.467582961022515

  Charge       = 0
  Multiplicity = 1
  Electrons    = 58
  Nalpha       = 29
  Nbeta        = 29

  ==> Algorithm <==

  SCF Algorithm Type is DF.
  DIIS enabled.
  MOM disabled.
  Fractional occupation disabled.
  Guess Type is SAD.
  Energy threshold   = 1.00e-06
  Density threshold  = 1.00e-06
  Integral threshold = 1.00e-12

  ==> Primary Basis <==

  Basis Set: DEF2-TZVPPD
    Blend: DEF2-TZVPPD
    Number of shells: 38
    Number of basis functions: 134
    Number of Cartesian functions: 166
    Spherical Harmonics?: true
    Max angular momentum: 4

  ==> DFT Potential <==

   => Composite Functional: MN15-D3BJ <= 

   MN15 Hybrid Meta-GGA Exchange-Correlation Functional

    H. S. Yu, X. He, S. L. Li, and D. G. Truhlar, Chem. Sci. 7, 5032-5051, 2016


    Deriv               =              1
    GGA                 =           TRUE
    Meta                =           TRUE

    Exchange Hybrid     =           TRUE
    MP2 Hybrid          =          FALSE

   => Exchange Functionals <=

    1.0000   XC_HYB_MGGA_X_MN15

   => Exact (HF) Exchange <=

    0.4400               HF 

   => Correlation Functionals <=

    1.0000   XC_MGGA_C_MN15

   => LibXC Density Thresholds  <==

    XC_MGGA_C_MN15:  1.00E-15 
    XC_HYB_MGGA_X_MN15:  1.00E-15 

   => Molecular Quadrature <=

    Radial Scheme          =       TREUTLER
    Pruning Scheme         =           NONE
    Nuclear Scheme         =       TREUTLER

    BS radius alpha        =              1
    Pruning alpha          =              1
    Radial Points          =             75
    Spherical Points       =            302
    Total Points           =          43516
    Total Blocks           =            428
    Max Points             =            252
    Max Functions          =            129
    Weights Tolerance      =       1.00E-15

   => Loading Basis Set <=

    Name: (DEF2-TZVPPD AUX)
    Role: JKFIT
    Keyword: DF_BASIS_SCF
    atoms 1-2 entry CU         line  2356 file /mnt/storage/home/zw18965/.conda/envs/p4env/share/psi4/basis/def2-universal-jkfit.gbs 

  ==> Integral Setup <==

  DFHelper Memory: AOs need 0.078 GiB; user supplied 83.535 GiB. Using in-core AOs.

  ==> MemDFJK: Density-Fitted J/K Matrices <==

    J tasked:                   Yes
    K tasked:                   Yes
    wK tasked:                   No
    OpenMP threads:              28
    Memory [MiB]:             85540
    Algorithm:                 Core
    Schwarz Cutoff:           1E-12
    Mask sparsity (%):       4.9231
    Fitting Condition:        1E-10

   => Auxiliary Basis Set <=

  Basis Set: (DEF2-TZVPPD AUX)
    Blend: DEF2-UNIVERSAL-JKFIT
    Number of shells: 116
    Number of basis functions: 528
    Number of Cartesian functions: 754
    Spherical Harmonics?: true
    Max angular momentum: 6

  Cached 100.0% of DFT collocation blocks in 0.284 [GiB].

  Minimum eigenvalue in the overlap matrix is 1.8045865433E-03.
  Reciprocal condition number of the overlap matrix is 4.2878613612E-04.
    Using symmetric orthogonalization.

  ==> Pre-Iterations <==

  SCF Guess: Superposition of Atomic Densities via on-the-fly atomic UHF (no occupation information).

   -------------------------
    Irrep   Nso     Nmo    
   -------------------------
     Ag        27      27 
     B1g        8       8 
     B2g       16      16 
     B3g       16      16 
     Au         8       8 
     B1u       27      27 
     B2u       16      16 
     B3u       16      16 
   -------------------------
    Total     134     134
   -------------------------

  ==> Iterations <==

                           Total Energy        Delta E     RMS |[F,P]|

   @DF-RKS iter SAD: -3276.50315284189764   -3.27650e+03   0.00000e+00 
    Occupation by irrep:
             Ag   B1g   B2g   B3g    Au   B1u   B2u   B3u 
    DOCC [     8,    1,    3,    3,    0,    7,    3,    4 ]

   @DF-RKS iter   1: -3275.58056915162433    9.22584e-01   1.19149e-01 DIIS
    Occupation by irrep:
             Ag   B1g   B2g   B3g    Au   B1u   B2u   B3u 
    DOCC [     8,    1,    3,    3,    1,    7,    3,    3 ]

   @DF-RKS iter   2: -3189.81131965614577    8.57692e+01   2.66108e-01 DIIS
   @DF-RKS iter   3: -3279.69526650523630   -8.98839e+01   5.63991e-02 DIIS
   @DF-RKS iter   4: -3279.11985805723089    5.75408e-01   6.67267e-02 DIIS
   @DF-RKS iter   5: -3281.53223022743850   -2.41237e+00   9.93191e-03 DIIS
   @DF-RKS iter   6: -3281.55881611976520   -2.65859e-02   5.12663e-03 DIIS
   @DF-RKS iter   7: -3281.56934861367563   -1.05325e-02   1.50444e-03 DIIS
   @DF-RKS iter   8: -3281.57042645728507   -1.07784e-03   1.23538e-04 DIIS
   @DF-RKS iter   9: -3281.57043485051645   -8.39323e-06   4.51287e-05 DIIS
   @DF-RKS iter  10: -3281.57043600259522   -1.15208e-06   9.52264e-06 DIIS
   @DF-RKS iter  11: -3281.57043616969167   -1.67096e-07   2.22300e-06 DIIS
   @DF-RKS iter  12: -3281.57043619526212   -2.55704e-08   9.45782e-07 DIIS
  Energy and wave function converged.


  ==> Post-Iterations <==

   Electrons on quadrature grid:
      Ntotal   =   58.0000057573 ; deviation = 5.757e-06 

    Orbital Energies [Eh]
    ---------------------

    Doubly Occupied:                                                      

       1B1u -320.685166     1Ag  -320.685152     2B1u  -37.855204  
       2Ag   -37.854988     3B1u  -33.707168     3Ag   -33.707159  
       1B2g  -33.704434     1B3g  -33.704434     1B3u  -33.704425  
       1B2u  -33.704425     4Ag    -4.075802     4B1u   -4.074951  
       5Ag    -2.750338     2B2u   -2.744548     2B3u   -2.744548  
       2B3g   -2.743996     2B2g   -2.743996     5B1u   -2.743991  
       6Ag    -0.346226     3B2u   -0.334263     3B3u   -0.334263  
       7Ag    -0.317372     1B1g   -0.317368     6B1u   -0.309085  
       1Au    -0.309081     3B2g   -0.297286     3B3g   -0.297286  
       7B1u   -0.292818     8Ag    -0.236844  

    Virtual:                                                              

       8B1u   -0.061580     4B3u   -0.007225     4B2u   -0.007225  
       9Ag     0.035784     4B2g    0.074969     4B3g    0.074969  
       9B1u    0.084706    10Ag     0.140654    11Ag     0.159402  
       5B3u    0.159531     5B2u    0.159531    12Ag     0.195950  
       2B1g    0.195953     5B3g    0.204741     5B2g    0.204741  
      10B1u    0.228175    11B1u    0.265815     6B3u    0.267800  
       6B2u    0.267800    12B1u    0.283372     2Au     0.283374  
      13Ag     0.371335     6B2g    0.387299     6B3g    0.387299  
      13B1u    0.559942    14Ag     0.680231     7B3u    0.694290  
       7B2u    0.694290     7B2g    0.783167     7B3g    0.783167  
      14B1u    0.837257     8B3u    0.883369     8B2u    0.883369  
       3B1g    0.913507    15Ag     0.913529     3Au     0.993403  
      15B1u    0.993427    16Ag     1.021528     8B2g    1.131443  
       8B3g    1.131443    16B1u    1.340576     9B3u    2.975521  
       9B2u    2.975521    17Ag     3.021448    17B1u    3.030302  
       9B3g    3.059313     9B2g    3.059313    18Ag     3.118012  
      10B3u    3.391483    10B2u    3.391483    19Ag     3.409877  
       4B1g    3.417167    20Ag     3.417190    11B2u    3.430101  
      11B3u    3.430101    10B3g    3.430660    10B2g    3.430660  
       4Au     3.431009    18B1u    3.431030    11B2g    3.440805  
      11B3g    3.440805    19B1u    3.464218    20B1u    3.565158  
      21Ag     3.615797     5B1g    3.615825    21B1u    3.659853  
       5Au     3.659874    12B3u    3.680573    12B2u    3.680573  
      12B3g    3.760923    12B2g    3.760923    22Ag     3.939917  
      22B1u    4.075483    23Ag    12.717403    13B3u   12.717767  
      13B2u   12.717767    13B2g   12.718334    13B3g   12.718334  
      24Ag    12.718596    23B1u   12.718626     6B1g   12.718651  
       6Au    12.718680    24B1u   12.719265    14B3u   12.720201  
      14B2u   12.720201    14B2g   12.720201    14B3g   12.720201  
      25B1u   12.721754    25Ag    12.721755     7Au    12.721927  
       7B1g   12.721928    26Ag    12.869276    15B3u   12.874528  
      15B2u   12.874528     8B1g   12.877778    27Ag    12.877896  
      16B3u   12.879414    16B2u   12.879414    15B3g   12.879573  
      15B2g   12.879573     8Au    12.881146    26B1u   12.881263  
      16B2g   12.903974    16B3g   12.903974    27B1u   13.018508  

    Final Occupation by Irrep:
             Ag   B1g   B2g   B3g    Au   B1u   B2u   B3u 
    DOCC [     8,    1,    3,    3,    1,    7,    3,    3 ]

  @DF-RKS Final Energy: -3281.57043619526212

   => Energetics <=

    Nuclear Repulsion Energy =            200.4675829610225151
    One-Electron Energy =               -4975.9028013512634061
    Two-Electron Energy =                1571.0678657674641272
    DFT Exchange-Correlation Energy =     -77.2030520524854325
    Empirical Dispersion Energy =          -0.0000315200000000
    VV10 Nonlocal Energy =                  0.0000000000000000
    Total Energy =                      -3281.5704361952621184

Computation Completed


Properties will be evaluated at   0.000000,   0.000000,   0.000000 [a0]

Properties computed using the SCF density matrix

  Nuclear Dipole Moment: [e a0]
     X:     0.0000      Y:     0.0000      Z:     0.0000

  Electronic Dipole Moment: [e a0]
     X:     0.0000      Y:     0.0000      Z:     0.0000

  Dipole Moment: [e a0]
     X:     0.0000      Y:     0.0000      Z:     0.0000     Total:     0.0000

  Dipole Moment: [D]
     X:     0.0000      Y:     0.0000      Z:     0.0000     Total:     0.0000


*** tstop() called on compute476.bc4.acrc.priv at Sun Nov  7 05:09:24 2021
Module time:
	user time   =      43.42 seconds =       0.72 minutes
	system time =       2.16 seconds =       0.04 minutes
	total time  =          3 seconds =       0.05 minutes
Total time:
	user time   =      43.42 seconds =       0.72 minutes
	system time =       2.16 seconds =       0.04 minutes
	total time  =          3 seconds =       0.05 minutes

    Psi4 stopped on: Sunday, 07 November 2021 05:09AM
    Psi4 wall time for execution: 0:00:03.68

*** Psi4 exiting successfully. Buy a developer a beer!
