
    -----------------------------------------------------------------------
          Psi4: An Open-Source Ab Initio Electronic Structure Package
                               Psi4 1.4.1 release

                         Git: Rev {HEAD} cd00f19 


    D. G. A. Smith, L. A. Burns, A. C. Simmonett, R. M. Parrish,
    M. C. Schieber, R. Galvelis, P. Kraus, H. Kruse, R. Di Remigio,
    A. Alenaizan, A. M. James, S. Lehtola, J. P. Misiewicz, M. Scheurer,
    R. A. Shaw, J. B. Schriber, Y. Xie, Z. L. Glick, D. A. Sirianni,
    J. S. O'Brien, J. M. Waldrop, A. Kumar, E. G. Hohenstein,
    B. P. Pritchard, B. R. Brooks, H. F. Schaefer III, A. Yu. Sokolov,
    K. Patkowski, A. E. DePrince III, U. Bozkaya, R. A. King,
    F. A. Evangelista, J. M. Turney, T. D. Crawford, C. D. Sherrill,
    J. Chem. Phys. 152(18) 184108 (2020). https://doi.org/10.1063/5.0006002

                            Additional Code Authors
    E. T. Seidl, C. L. Janssen, E. F. Valeev, M. L. Leininger,
    J. F. Gonthier, R. M. Richard, H. R. McAlexander, M. Saitow, X. Wang,
    P. Verma, and M. H. Lechner

             Previous Authors, Complete List of Code Contributors,
                       and Citations for Specific Modules
    https://github.com/psi4/psi4/blob/master/codemeta.json
    https://github.com/psi4/psi4/graphs/contributors
    http://psicode.org/psi4manual/master/introduction.html#citing-psifour

    -----------------------------------------------------------------------


    Psi4 started on: Sunday, 07 November 2021 05:08AM

    Process ID: 17818
    Host:       compute139.bc4.acrc.priv
    PSIDATADIR: /mnt/storage/home/zw18965/.conda/envs/p4env/share/psi4
    Memory:     500.0 MiB
    Threads:    28
    
  ==> Input File <==

--------------------------------------------------------------------------
memory 120 GB

molecule {
0 1
Cu         0.00000        0.00000        0.00000
Ag         0.00000        0.00000        2.25929
 }

set dynamic_level 1
set basis Def2-TZVPPD

energy("MN15-D3BJ")
--------------------------------------------------------------------------

  Memory set to 111.759 GiB by Python driver.

Scratch directory: /tmp/

*** tstart() called on compute139.bc4.acrc.priv
*** at Sun Nov  7 05:08:21 2021

   => Loading Basis Set <=

    Name: DEF2-TZVPPD
    Role: ORBITAL
    Keyword: BASIS
    atoms 1 entry CU         line  1290 file /mnt/storage/home/zw18965/.conda/envs/p4env/share/psi4/basis/def2-tzvppd.gbs 
    atoms 2 entry AG         line  2174 (ECP: line  3646) file /mnt/storage/home/zw18965/.conda/envs/p4env/share/psi4/basis/def2-tzvppd.gbs 

    !!!  WARNING: ECP capability is in beta. Please check occupations closely.  !!!

   => MN15-D3(BJ): Empirical Dispersion <=

    Grimme's -D3 (BJ-damping) Dispersion Correction
    Grimme S.; Ehrlich S.; Goerigk L. (2011), J. Comput. Chem., 32: 1456
    Parametrisation from:    L. Goerigk, A. Hansen, C. Bauer, S. Ehrlich, A. Najibi, S. Grimme, Phys. Chem. Chem. Phys. 19, 32184-32215, 2017

        s6 =       1.000000
        s8 =       2.097100
        a1 =       0.786200
        a2 =       7.592300


         ---------------------------------------------------------
                                   SCF
               by Justin Turney, Rob Parrish, Andy Simmonett
                          and Daniel G. A. Smith
                              RKS Reference
                       28 Threads, 114440 MiB Core
         ---------------------------------------------------------

  ==> Geometry <==

    Molecular point group: c2v
    Full point group: C_inf_v

    Geometry (in Angstrom), charge = 0, multiplicity = 1:

       Center              X                  Y                   Z               Mass       
    ------------   -----------------  -----------------  -----------------  -----------------
         CU           0.000000000000     0.000000000000    -1.422145295334    62.929597720000
         AG           0.000000000000     0.000000000000     0.837144704666   106.905091600000

  Running in c2v symmetry.

  Rotational constants: A = ************  B =      0.08337  C =      0.08337 [cm^-1]
  Rotational constants: A = ************  B =   2499.46060  C =   2499.46060 [MHz]
  Nuclear repulsion =  129.056758131612156

  Charge       = 0
  Multiplicity = 1
  Electrons    = 48
  Nalpha       = 24
  Nbeta        = 24

  ==> Algorithm <==

  SCF Algorithm Type is DF.
  DIIS enabled.
  MOM disabled.
  Fractional occupation disabled.
  Guess Type is SAD.
  Energy threshold   = 1.00e-06
  Density threshold  = 1.00e-06
  Integral threshold = 1.00e-12

  ==> Primary Basis <==

  Basis Set: DEF2-TZVPPD
    Blend: DEF2-TZVPPD
    Number of shells: 35
    Number of basis functions: 123
    Number of Cartesian functions: 154
    Spherical Harmonics?: true
    Max angular momentum: 4

  Core potential: DEF2-TZVPPD
    Number of shells: 4
    Number of ECP primitives: 14
    Number of ECP core electrons: 28
    Max angular momentum: 3

  ==> DFT Potential <==

   => Composite Functional: MN15-D3BJ <= 

   MN15 Hybrid Meta-GGA Exchange-Correlation Functional

    H. S. Yu, X. He, S. L. Li, and D. G. Truhlar, Chem. Sci. 7, 5032-5051, 2016


    Deriv               =              1
    GGA                 =           TRUE
    Meta                =           TRUE

    Exchange Hybrid     =           TRUE
    MP2 Hybrid          =          FALSE

   => Exchange Functionals <=

    1.0000   XC_HYB_MGGA_X_MN15

   => Exact (HF) Exchange <=

    0.4400               HF 

   => Correlation Functionals <=

    1.0000   XC_MGGA_C_MN15

   => LibXC Density Thresholds  <==

    XC_MGGA_C_MN15:  1.00E-15 
    XC_HYB_MGGA_X_MN15:  1.00E-15 

   => Molecular Quadrature <=

    Radial Scheme          =       TREUTLER
    Pruning Scheme         =           NONE
    Nuclear Scheme         =       TREUTLER

    BS radius alpha        =              1
    Pruning alpha          =              1
    Radial Points          =             75
    Spherical Points       =            302
    Total Points           =          42944
    Total Blocks           =            427
    Max Points             =            256
    Max Functions          =            121
    Weights Tolerance      =       1.00E-15

   => Loading Basis Set <=

    Name: (DEF2-TZVPPD AUX)
    Role: JKFIT
    Keyword: DF_BASIS_SCF
    atoms 1 entry CU         line  2356 file /mnt/storage/home/zw18965/.conda/envs/p4env/share/psi4/basis/def2-universal-jkfit.gbs 
    atoms 2 entry AG         line  4364 file /mnt/storage/home/zw18965/.conda/envs/p4env/share/psi4/basis/def2-universal-jkfit.gbs 

  ==> Integral Setup <==

  DFHelper Memory: AOs need 0.067 GiB; user supplied 83.548 GiB. Using in-core AOs.

  ==> MemDFJK: Density-Fitted J/K Matrices <==

    J tasked:                   Yes
    K tasked:                   Yes
    wK tasked:                   No
    OpenMP threads:              28
    Memory [MiB]:             85552
    Algorithm:                 Core
    Schwarz Cutoff:           1E-12
    Mask sparsity (%):       1.5070
    Fitting Condition:        1E-10

   => Auxiliary Basis Set <=

  Basis Set: (DEF2-TZVPPD AUX)
    Blend: DEF2-UNIVERSAL-JKFIT
    Number of shells: 107
    Number of basis functions: 519
    Number of Cartesian functions: 761
    Spherical Harmonics?: true
    Max angular momentum: 6

  Cached 100.0% of DFT collocation blocks in 0.271 [GiB].

  Minimum eigenvalue in the overlap matrix is 1.3894909060E-03.
  Reciprocal condition number of the overlap matrix is 3.1777066296E-04.
    Using symmetric orthogonalization.

  ==> Pre-Iterations <==

  SCF Guess: Superposition of Atomic Densities via on-the-fly atomic UHF (no occupation information).

   -------------------------
    Irrep   Nso     Nmo    
   -------------------------
     A1        50      50 
     A2        15      15 
     B1        29      29 
     B2        29      29 
   -------------------------
    Total     123     123
   -------------------------

  ==> Iterations <==

                           Total Energy        Delta E     RMS |[F,P]|

   @DF-RKS iter SAD: -1784.62249975277609   -1.78462e+03   0.00000e+00 
    Occupation by irrep:
             A1    A2    B1    B2 
    DOCC [    12,    1,    5,    6 ]

   @DF-RKS iter   1: -1783.09148404503867    1.53102e+00   7.26070e-02 DIIS
    Occupation by irrep:
             A1    A2    B1    B2 
    DOCC [    12,    2,    5,    5 ]

   @DF-RKS iter   2: -1732.86679841720593    5.02247e+01   1.57760e-01 DIIS
   @DF-RKS iter   3: -1785.58450666310705   -5.27177e+01   3.61815e-02 DIIS
   @DF-RKS iter   4: -1773.12490465422184    1.24596e+01   8.92948e-02 DIIS
   @DF-RKS iter   5: -1787.21569161157026   -1.40908e+01   1.51146e-02 DIIS
   @DF-RKS iter   6: -1787.40484369063392   -1.89152e-01   9.21497e-03 DIIS
   @DF-RKS iter   7: -1787.48871369552603   -8.38700e-02   1.70340e-03 DIIS
   @DF-RKS iter   8: -1787.49100607124956   -2.29238e-03   1.02302e-03 DIIS
   @DF-RKS iter   9: -1787.49237103234009   -1.36496e-03   3.86323e-04 DIIS
   @DF-RKS iter  10: -1787.49263397442655   -2.62942e-04   4.91543e-05 DIIS
   @DF-RKS iter  11: -1787.49263739438197   -3.41996e-06   1.02564e-05 DIIS
   @DF-RKS iter  12: -1787.49263767701837   -2.82636e-07   3.09853e-06 DIIS
   @DF-RKS iter  13: -1787.49263772676863   -4.97503e-08   7.24413e-07 DIIS
  Energy and wave function converged.


  ==> Post-Iterations <==

   Electrons on quadrature grid:
      Ntotal   =   47.9999970445 ; deviation = -2.955e-06 

    Orbital Energies [Eh]
    ---------------------

    Doubly Occupied:                                                      

       1A1  -320.687010     2A1   -37.856804     3A1   -33.708739  
       1B2   -33.706270     1B1   -33.706270     4A1    -4.078084  
       5A1    -3.637423     6A1    -2.750017     2B1    -2.747255  
       2B2    -2.747255     7A1    -2.290065     3B1    -2.284878  
       3B2    -2.284877     8A1    -0.393117     4B1    -0.377391  
       4B2    -0.377391     9A1    -0.360513     1A2    -0.360504  
      10A1    -0.315797     2A2    -0.315791     5B1    -0.308392  
       5B2    -0.308392    11A1    -0.303257    12A1    -0.240496  

    Virtual:                                                              

      13A1    -0.063344     6B2    -0.005471     6B1    -0.005471  
      14A1     0.037588     7B1     0.079464     7B2     0.079464  
      15A1     0.105001    16A1     0.143116     8B2     0.171712  
       8B1     0.171712    17A1     0.198403    18A1     0.217135  
      19A1     0.217874     3A2     0.217878     9B1     0.250563  
       9B2     0.250563    10B1     0.308941    10B2     0.308941  
      20A1     0.316876    21A1     0.487906     4A2     0.487909  
      22A1     0.496726    11B1     0.614195    11B2     0.614195  
      23A1     0.687103    12B2     0.717302    12B1     0.717302  
      24A1     0.788926     5A2     0.939650    25A1     0.939700  
      13B1     0.945997    13B2     0.945997    26A1     1.057238  
      27A1     1.602586     6A2     1.602605    14B2     1.605504  
      14B1     1.605504    15B1     1.649345    15B2     1.649345  
      16B1     1.697133    16B2     1.697133    28A1     1.707745  
      29A1     1.800624     7A2     2.072411    30A1     2.072432  
      31A1     2.147277    17B1     2.152165    17B2     2.152165  
      32A1     2.263125    18B1     3.004575    18B2     3.004575  
      33A1     3.136540    34A1     3.214309     8A2     3.422615  
      35A1     3.422674    19B2     3.426470    19B1     3.426470  
      20B2     3.435896    20B1     3.435896    36A1     3.537705  
       9A2     3.626435    37A1     3.626452    21B1     3.664049  
      21B2     3.664049    38A1     3.900742    22B2     4.630919  
      22B1     4.630919    39A1     4.631229    10A2     4.631339  
      23B1     4.690253    23B2     4.690253    40A1     4.898399  
      41A1     5.434576    11A2     5.434602    24B2     5.437364  
      24B1     5.437364    25B1     5.440645    25B2     5.440645  
      12A2     5.440805    42A1     5.440825    43A1     5.458716  
      26B1    12.714194    26B2    12.714194    44A1    12.715228  
      45A1    12.715358    13A2    12.715359    27B2    12.717027  
      27B1    12.717027    46A1    12.718497    14A2    12.718744  
      28B1    12.876430    28B2    12.876430    15A2    12.876963  
      47A1    12.877161    29B1    12.885059    29B2    12.885059  
      48A1    12.925836    49A1    32.978891    50A1   110.620980  

    Final Occupation by Irrep:
             A1    A2    B1    B2 
    DOCC [    12,    2,    5,    5 ]

  @DF-RKS Final Energy: -1787.49263772676863

   => Energetics <=

    Nuclear Repulsion Energy =            129.0567581316121561
    One-Electron Energy =               -2806.2397984043841461
    Two-Electron Energy =                 936.2906827844012696
    DFT Exchange-Correlation Energy =     -46.6002434183977456
    Empirical Dispersion Energy =          -0.0000368200000000
    VV10 Nonlocal Energy =                  0.0000000000000000
    Total Energy =                      -1787.4926377267684074

Computation Completed


Properties will be evaluated at   0.000000,   0.000000,   0.000000 [a0]

Properties computed using the SCF density matrix

  Nuclear Dipole Moment: [e a0]
     X:     0.0000      Y:     0.0000      Z:   -47.8790

  Electronic Dipole Moment: [e a0]
     X:     0.0000      Y:     0.0000      Z:    47.7557

  Dipole Moment: [e a0]
     X:     0.0000      Y:     0.0000      Z:    -0.1232     Total:     0.1232

  Dipole Moment: [D]
     X:     0.0000      Y:     0.0000      Z:    -0.3132     Total:     0.3132


*** tstop() called on compute139.bc4.acrc.priv at Sun Nov  7 05:08:29 2021
Module time:
	user time   =      69.46 seconds =       1.16 minutes
	system time =       3.45 seconds =       0.06 minutes
	total time  =          8 seconds =       0.13 minutes
Total time:
	user time   =      69.46 seconds =       1.16 minutes
	system time =       3.45 seconds =       0.06 minutes
	total time  =          8 seconds =       0.13 minutes

    Psi4 stopped on: Sunday, 07 November 2021 05:08AM
    Psi4 wall time for execution: 0:00:07.87

*** Psi4 exiting successfully. Buy a developer a beer!
