
    -----------------------------------------------------------------------
          Psi4: An Open-Source Ab Initio Electronic Structure Package
                               Psi4 1.4.1 release

                         Git: Rev {HEAD} cd00f19 


    D. G. A. Smith, L. A. Burns, A. C. Simmonett, R. M. Parrish,
    M. C. Schieber, R. Galvelis, P. Kraus, H. Kruse, R. Di Remigio,
    A. Alenaizan, A. M. James, S. Lehtola, J. P. Misiewicz, M. Scheurer,
    R. A. Shaw, J. B. Schriber, Y. Xie, Z. L. Glick, D. A. Sirianni,
    J. S. O'Brien, J. M. Waldrop, A. Kumar, E. G. Hohenstein,
    B. P. Pritchard, B. R. Brooks, H. F. Schaefer III, A. Yu. Sokolov,
    K. Patkowski, A. E. DePrince III, U. Bozkaya, R. A. King,
    F. A. Evangelista, J. M. Turney, T. D. Crawford, C. D. Sherrill,
    J. Chem. Phys. 152(18) 184108 (2020). https://doi.org/10.1063/5.0006002

                            Additional Code Authors
    E. T. Seidl, C. L. Janssen, E. F. Valeev, M. L. Leininger,
    J. F. Gonthier, R. M. Richard, H. R. McAlexander, M. Saitow, X. Wang,
    P. Verma, and M. H. Lechner

             Previous Authors, Complete List of Code Contributors,
                       and Citations for Specific Modules
    https://github.com/psi4/psi4/blob/master/codemeta.json
    https://github.com/psi4/psi4/graphs/contributors
    http://psicode.org/psi4manual/master/introduction.html#citing-psifour

    -----------------------------------------------------------------------


    Psi4 started on: Sunday, 07 November 2021 05:08AM

    Process ID: 18959
    Host:       compute428.bc4.acrc.priv
    PSIDATADIR: /mnt/storage/home/zw18965/.conda/envs/p4env/share/psi4
    Memory:     500.0 MiB
    Threads:    28
    
  ==> Input File <==

--------------------------------------------------------------------------
memory 120 GB

molecule {
1 1
Cu         0.00000        0.00000       -0.49385
O          0.00000        0.00000        1.33615
H         -0.83138        0.00000        1.81615
H          0.83138        0.00000        1.81615
 }

set dynamic_level 1
set basis Def2-TZVPPD

energy("MN15-D3BJ")
--------------------------------------------------------------------------

  Memory set to 111.759 GiB by Python driver.

Scratch directory: /tmp/

*** tstart() called on compute428.bc4.acrc.priv
*** at Sun Nov  7 05:08:21 2021

   => Loading Basis Set <=

    Name: DEF2-TZVPPD
    Role: ORBITAL
    Keyword: BASIS
    atoms 1   entry CU         line  1290 file /mnt/storage/home/zw18965/.conda/envs/p4env/share/psi4/basis/def2-tzvppd.gbs 
    atoms 2   entry O          line   218 file /mnt/storage/home/zw18965/.conda/envs/p4env/share/psi4/basis/def2-tzvppd.gbs 
    atoms 3-4 entry H          line    14 file /mnt/storage/home/zw18965/.conda/envs/p4env/share/psi4/basis/def2-tzvppd.gbs 

   => MN15-D3(BJ): Empirical Dispersion <=

    Grimme's -D3 (BJ-damping) Dispersion Correction
    Grimme S.; Ehrlich S.; Goerigk L. (2011), J. Comput. Chem., 32: 1456
    Parametrisation from:    L. Goerigk, A. Hansen, C. Bauer, S. Ehrlich, A. Najibi, S. Grimme, Phys. Chem. Chem. Phys. 19, 32184-32215, 2017

        s6 =       1.000000
        s8 =       2.097100
        a1 =       0.786200
        a2 =       7.592300


         ---------------------------------------------------------
                                   SCF
               by Justin Turney, Rob Parrish, Andy Simmonett
                          and Daniel G. A. Smith
                              RKS Reference
                       28 Threads, 114440 MiB Core
         ---------------------------------------------------------

  ==> Geometry <==

    Molecular point group: c2v
    Full point group: C2v

    Geometry (in Angstrom), charge = 1, multiplicity = 1:

       Center              X                  Y                   Z               Mass       
    ------------   -----------------  -----------------  -----------------  -----------------
         CU           0.000000000000    -0.000000000000    -0.419159591420    62.929597720000
         O            0.000000000000    -0.000000000000     1.410840408580    15.994914619570
         H           -0.831380000000    -0.000000000000     1.890840408580     1.007825032230
         H            0.831380000000     0.000000000000     1.890840408580     1.007825032230

  Running in c2v symmetry.

  Rotational constants: A =     12.09991  B =      0.33648  C =      0.32737 [cm^-1]
  Rotational constants: A = 362746.23798  B =  10087.34150  C =   9814.41957 [MHz]
  Nuclear repulsion =   88.726523002405358

  Charge       = 1
  Multiplicity = 1
  Electrons    = 38
  Nalpha       = 19
  Nbeta        = 19

  ==> Algorithm <==

  SCF Algorithm Type is DF.
  DIIS enabled.
  MOM disabled.
  Fractional occupation disabled.
  Guess Type is SAD.
  Energy threshold   = 1.00e-06
  Density threshold  = 1.00e-06
  Integral threshold = 1.00e-12

  ==> Primary Basis <==

  Basis Set: DEF2-TZVPPD
    Blend: DEF2-TZVPPD
    Number of shells: 47
    Number of basis functions: 141
    Number of Cartesian functions: 165
    Spherical Harmonics?: true
    Max angular momentum: 4

  ==> DFT Potential <==

   => Composite Functional: MN15-D3BJ <= 

   MN15 Hybrid Meta-GGA Exchange-Correlation Functional

    H. S. Yu, X. He, S. L. Li, and D. G. Truhlar, Chem. Sci. 7, 5032-5051, 2016


    Deriv               =              1
    GGA                 =           TRUE
    Meta                =           TRUE

    Exchange Hybrid     =           TRUE
    MP2 Hybrid          =          FALSE

   => Exchange Functionals <=

    1.0000   XC_HYB_MGGA_X_MN15

   => Exact (HF) Exchange <=

    0.4400               HF 

   => Correlation Functionals <=

    1.0000   XC_MGGA_C_MN15

   => LibXC Density Thresholds  <==

    XC_MGGA_C_MN15:  1.00E-15 
    XC_HYB_MGGA_X_MN15:  1.00E-15 

   => Molecular Quadrature <=

    Radial Scheme          =       TREUTLER
    Pruning Scheme         =           NONE
    Nuclear Scheme         =       TREUTLER

    BS radius alpha        =              1
    Pruning alpha          =              1
    Radial Points          =             75
    Spherical Points       =            302
    Total Points           =          87793
    Total Blocks           =            725
    Max Points             =            256
    Max Functions          =            140
    Weights Tolerance      =       1.00E-15

   => Loading Basis Set <=

    Name: (DEF2-TZVPPD AUX)
    Role: JKFIT
    Keyword: DF_BASIS_SCF
    atoms 1   entry CU         line  2356 file /mnt/storage/home/zw18965/.conda/envs/p4env/share/psi4/basis/def2-universal-jkfit.gbs 
    atoms 2   entry O          line   318 file /mnt/storage/home/zw18965/.conda/envs/p4env/share/psi4/basis/def2-universal-jkfit.gbs 
    atoms 3-4 entry H          line    18 file /mnt/storage/home/zw18965/.conda/envs/p4env/share/psi4/basis/def2-universal-jkfit.gbs 

  ==> Integral Setup <==

  DFHelper Memory: AOs need 0.067 GiB; user supplied 83.109 GiB. Using in-core AOs.

  ==> MemDFJK: Density-Fitted J/K Matrices <==

    J tasked:                   Yes
    K tasked:                   Yes
    wK tasked:                   No
    OpenMP threads:              28
    Memory [MiB]:             85103
    Algorithm:                 Core
    Schwarz Cutoff:           1E-12
    Mask sparsity (%):       0.3923
    Fitting Condition:        1E-10

   => Auxiliary Basis Set <=

  Basis Set: (DEF2-TZVPPD AUX)
    Blend: DEF2-UNIVERSAL-JKFIT
    Number of shells: 95
    Number of basis functions: 377
    Number of Cartesian functions: 510
    Spherical Harmonics?: true
    Max angular momentum: 6

  Cached 100.0% of DFT collocation blocks in 0.710 [GiB].

  Minimum eigenvalue in the overlap matrix is 2.0118118913E-04.
  Reciprocal condition number of the overlap matrix is 2.8635659721E-05.
    Using symmetric orthogonalization.

  ==> Pre-Iterations <==

  SCF Guess: Superposition of Atomic Densities via on-the-fly atomic UHF (no occupation information).

   -------------------------
    Irrep   Nso     Nmo    
   -------------------------
     A1        57      57 
     A2        17      17 
     B1        37      37 
     B2        30      30 
   -------------------------
    Total     141     141
   -------------------------

  ==> Iterations <==

                           Total Energy        Delta E     RMS |[F,P]|

   @DF-RKS iter SAD: -1714.42860006199612   -1.71443e+03   0.00000e+00 
    Occupation by irrep:
             A1    A2    B1    B2 
    DOCC [    10,    0,    5,    4 ]

   @DF-RKS iter   1: -1714.00184436285372    4.26756e-01   5.63583e-02 DIIS
    Occupation by irrep:
             A1    A2    B1    B2 
    DOCC [    10,    1,    4,    4 ]

   @DF-RKS iter   2: -1673.98862615115604    4.00132e+01   1.22881e-01 DIIS
   @DF-RKS iter   3: -1715.33624510323398   -4.13476e+01   3.40760e-02 DIIS
   @DF-RKS iter   4: -1716.36357814530425   -1.02733e+00   1.83464e-02 DIIS
   @DF-RKS iter   5: -1716.83510663102606   -4.71528e-01   8.37980e-03 DIIS
   @DF-RKS iter   6: -1716.91612213591111   -8.10155e-02   7.71120e-04 DIIS
   @DF-RKS iter   7: -1716.91673161748167   -6.09482e-04   1.60441e-04 DIIS
   @DF-RKS iter   8: -1716.91677834249185   -4.67250e-05   2.71491e-05 DIIS
   @DF-RKS iter   9: -1716.91677999025524   -1.64776e-06   4.69557e-06 DIIS
   @DF-RKS iter  10: -1716.91678013648743   -1.46232e-07   1.50730e-06 DIIS
   @DF-RKS iter  11: -1716.91678016836772   -3.18803e-08   1.27611e-06 DIIS
   @DF-RKS iter  12: -1716.91678017500499   -6.63726e-09   4.72510e-07 DIIS
  Energy and wave function converged.


  ==> Post-Iterations <==

   Electrons on quadrature grid:
      Ntotal   =   37.9999961193 ; deviation = -3.881e-06 

    Orbital Energies [Eh]
    ---------------------

    Doubly Occupied:                                                      

       1A1  -320.944237     2A1   -38.109149     3A1   -33.963473  
       1B1   -33.959158     1B2   -33.957985     4A1   -19.099670  
       5A1    -4.334492     2B1    -3.008730     2B2    -3.006120  
       6A1    -3.003635     7A1    -1.329420     3B1    -0.877491  
       8A1    -0.761286     3B2    -0.665820     9A1    -0.578227  
       1A2    -0.578185     4B1    -0.574053     4B2    -0.560315  
      10A1    -0.549387  

    Virtual:                                                              

      11A1    -0.258101     5B1    -0.141177    12A1    -0.137069  
       5B2    -0.129582     6B1    -0.061357    13A1    -0.039573  
      14A1    -0.014565     6B2    -0.010901    15A1    -0.006815  
       7B1     0.001282     7B2     0.010075     2A2     0.038222  
      16A1     0.039626     8B1     0.070298    17A1     0.084276  
      18A1     0.124047     9B1     0.124704     8B2     0.127009  
       3A2     0.133704    19A1     0.148614     9B2     0.181232  
      20A1     0.215551    10B1     0.226323    11B1     0.235676  
      21A1     0.239332    12B1     0.306500     4A2     0.341258  
      22A1     0.348590    10B2     0.380251    23A1     0.401624  
      13B1     0.520536    11B2     0.524830    24A1     0.536442  
      12B2     0.563921    25A1     0.564486    14B1     0.619538  
      26A1     0.718015     5A2     0.730880    13B2     0.798288  
      15B1     0.818593    27A1     0.832715    16B1     0.858377  
      28A1     0.864658     6A2     0.878854    14B2     0.926047  
      29A1     0.959951    17B1     1.056380    30A1     1.197016  
      18B1     1.269925    31A1     1.285279    15B2     1.593434  
       7A2     1.668254    32A1     1.733026    19B1     1.884419  
      33A1     2.028746    34A1     2.414295    20B1     2.453396  
      35A1     2.525657    16B2     2.542765    17B2     2.758823  
      21B1     2.808854    36A1     2.937310    18B2     2.997186  
       8A2     3.012654    37A1     3.051641    22B1     3.077995  
      23B1     3.119651    38A1     3.136997    24B1     3.160410  
      19B2     3.161579     9A2     3.172693    25B1     3.208666  
      39A1     3.220084    20B2     3.242873    40A1     3.299820  
      10A2     3.387070    41A1     3.408029    21B2     3.451305  
      26B1     3.455381    27B1     3.534496    22B2     3.562394  
      11A2     3.586379    42A1     3.588156    43A1     3.689614  
      12A2     3.880124    44A1     3.890383    23B2     3.920912  
      45A1     3.978274    28B1     4.017623    29B1     4.388618  
      46A1     4.686645    30B1     4.755682    47A1     4.878645  
      24B2     5.123107    48A1     5.515036    13A2     6.067251  
      25B2     6.096240    26B2     6.239196    14A2     6.274539  
      49A1     6.405676    31B1     6.481032    50A1     6.735487  
      32B1     6.753438    33B1     6.992986    51A1     7.420898  
      15A2    12.455739    52A1    12.455777    16A2    12.456548  
      53A1    12.456783    27B2    12.456885    34B1    12.456946  
      28B2    12.458956    35B1    12.459473    54A1    12.466467  
      29B2    12.614300    36B1    12.614518    17A2    12.630270  
      55A1    12.636342    30B2    12.657753    37B1    12.687999  
      56A1    12.830135    57A1    42.002122  

    Final Occupation by Irrep:
             A1    A2    B1    B2 
    DOCC [    10,    1,    4,    4 ]

  @DF-RKS Final Energy: -1716.91678017500499

   => Energetics <=

    Nuclear Repulsion Energy =             88.7265230024053579
    One-Electron Energy =               -2559.3531221641378579
    Two-Electron Energy =                 797.5357049560373071
    DFT Exchange-Correlation Energy =     -43.8258370893098430
    Empirical Dispersion Energy =          -0.0000488800000000
    VV10 Nonlocal Energy =                  0.0000000000000000
    Total Energy =                      -1716.9167801750047602

Computation Completed


Properties will be evaluated at   0.000000,   0.000000,   0.000000 [a0]

Properties computed using the SCF density matrix

  Nuclear Dipole Moment: [e a0]
     X:     0.0000      Y:     0.0000      Z:     5.5043

  Electronic Dipole Moment: [e a0]
     X:     0.0000      Y:     0.0000      Z:    -4.8910

  Dipole Moment: [e a0]
     X:     0.0000      Y:     0.0000      Z:     0.6134     Total:     0.6134

  Dipole Moment: [D]
     X:     0.0000      Y:     0.0000      Z:     1.5590     Total:     1.5590


*** tstop() called on compute428.bc4.acrc.priv at Sun Nov  7 05:08:25 2021
Module time:
	user time   =      56.60 seconds =       0.94 minutes
	system time =       3.66 seconds =       0.06 minutes
	total time  =          4 seconds =       0.07 minutes
Total time:
	user time   =      56.60 seconds =       0.94 minutes
	system time =       3.66 seconds =       0.06 minutes
	total time  =          4 seconds =       0.07 minutes

    Psi4 stopped on: Sunday, 07 November 2021 05:08AM
    Psi4 wall time for execution: 0:00:04.26

*** Psi4 exiting successfully. Buy a developer a beer!
