
    -----------------------------------------------------------------------
          Psi4: An Open-Source Ab Initio Electronic Structure Package
                               Psi4 1.4.1 release

                         Git: Rev {HEAD} cd00f19 


    D. G. A. Smith, L. A. Burns, A. C. Simmonett, R. M. Parrish,
    M. C. Schieber, R. Galvelis, P. Kraus, H. Kruse, R. Di Remigio,
    A. Alenaizan, A. M. James, S. Lehtola, J. P. Misiewicz, M. Scheurer,
    R. A. Shaw, J. B. Schriber, Y. Xie, Z. L. Glick, D. A. Sirianni,
    J. S. O'Brien, J. M. Waldrop, A. Kumar, E. G. Hohenstein,
    B. P. Pritchard, B. R. Brooks, H. F. Schaefer III, A. Yu. Sokolov,
    K. Patkowski, A. E. DePrince III, U. Bozkaya, R. A. King,
    F. A. Evangelista, J. M. Turney, T. D. Crawford, C. D. Sherrill,
    J. Chem. Phys. 152(18) 184108 (2020). https://doi.org/10.1063/5.0006002

                            Additional Code Authors
    E. T. Seidl, C. L. Janssen, E. F. Valeev, M. L. Leininger,
    J. F. Gonthier, R. M. Richard, H. R. McAlexander, M. Saitow, X. Wang,
    P. Verma, and M. H. Lechner

             Previous Authors, Complete List of Code Contributors,
                       and Citations for Specific Modules
    https://github.com/psi4/psi4/blob/master/codemeta.json
    https://github.com/psi4/psi4/graphs/contributors
    http://psicode.org/psi4manual/master/introduction.html#citing-psifour

    -----------------------------------------------------------------------


    Psi4 started on: Sunday, 07 November 2021 05:08AM

    Process ID: 27362
    Host:       compute303.bc4.acrc.priv
    PSIDATADIR: /mnt/storage/home/zw18965/.conda/envs/p4env/share/psi4
    Memory:     500.0 MiB
    Threads:    28
    
  ==> Input File <==

--------------------------------------------------------------------------
memory 120 GB

molecule {
0 4
Fe         0.00000        0.00000        0.00000
H          0.00000        0.00000        1.61000
 }

set reference uks
set dynamic_level 1
set basis Def2-TZVPPD

energy("MN15-D3BJ")
--------------------------------------------------------------------------

  Memory set to 111.759 GiB by Python driver.

Scratch directory: /tmp/

*** tstart() called on compute303.bc4.acrc.priv
*** at Sun Nov  7 05:08:21 2021

   => Loading Basis Set <=

    Name: DEF2-TZVPPD
    Role: ORBITAL
    Keyword: BASIS
    atoms 1 entry FE         line  1107 file /mnt/storage/home/zw18965/.conda/envs/p4env/share/psi4/basis/def2-tzvppd.gbs 
    atoms 2 entry H          line    14 file /mnt/storage/home/zw18965/.conda/envs/p4env/share/psi4/basis/def2-tzvppd.gbs 

   => MN15-D3(BJ): Empirical Dispersion <=

    Grimme's -D3 (BJ-damping) Dispersion Correction
    Grimme S.; Ehrlich S.; Goerigk L. (2011), J. Comput. Chem., 32: 1456
    Parametrisation from:    L. Goerigk, A. Hansen, C. Bauer, S. Ehrlich, A. Najibi, S. Grimme, Phys. Chem. Chem. Phys. 19, 32184-32215, 2017

        s6 =       1.000000
        s8 =       2.097100
        a1 =       0.786200
        a2 =       7.592300


         ---------------------------------------------------------
                                   SCF
               by Justin Turney, Rob Parrish, Andy Simmonett
                          and Daniel G. A. Smith
                              UKS Reference
                       28 Threads, 114440 MiB Core
         ---------------------------------------------------------

  ==> Geometry <==

    Molecular point group: c2v
    Full point group: C_inf_v

    Geometry (in Angstrom), charge = 0, multiplicity = 4:

       Center              X                  Y                   Z               Mass       
    ------------   -----------------  -----------------  -----------------  -----------------
         FE           0.000000000000     0.000000000000    -0.028495251426    55.934936330000
         H            0.000000000000     0.000000000000     1.581504748574     1.007825032230

  Running in c2v symmetry.

  Rotational constants: A = ************  B =      6.56924  C =      6.56924 [cm^-1]
  Rotational constants: A = ************  B = 196940.79283  C = 196940.79283 [MHz]
  Nuclear repulsion =    8.545718930074534

  Charge       = 0
  Multiplicity = 4
  Electrons    = 27
  Nalpha       = 15
  Nbeta        = 12

  ==> Algorithm <==

  SCF Algorithm Type is DF.
  DIIS enabled.
  MOM disabled.
  Fractional occupation disabled.
  Guess Type is SAD.
  Energy threshold   = 1.00e-06
  Density threshold  = 1.00e-06
  Integral threshold = 1.00e-12

  ==> Primary Basis <==

  Basis Set: DEF2-TZVPPD
    Blend: DEF2-TZVPPD
    Number of shells: 26
    Number of basis functions: 84
    Number of Cartesian functions: 101
    Spherical Harmonics?: true
    Max angular momentum: 4

  ==> DFT Potential <==

   => Composite Functional: MN15-D3BJ <= 

   MN15 Hybrid Meta-GGA Exchange-Correlation Functional

    H. S. Yu, X. He, S. L. Li, and D. G. Truhlar, Chem. Sci. 7, 5032-5051, 2016


    Deriv               =              1
    GGA                 =           TRUE
    Meta                =           TRUE

    Exchange Hybrid     =           TRUE
    MP2 Hybrid          =          FALSE

   => Exchange Functionals <=

    1.0000   XC_HYB_MGGA_X_MN15

   => Exact (HF) Exchange <=

    0.4400               HF 

   => Correlation Functionals <=

    1.0000   XC_MGGA_C_MN15

   => LibXC Density Thresholds  <==

    XC_MGGA_C_MN15:  1.00E-15 
    XC_HYB_MGGA_X_MN15:  1.00E-15 

   => Molecular Quadrature <=

    Radial Scheme          =       TREUTLER
    Pruning Scheme         =           NONE
    Nuclear Scheme         =       TREUTLER

    BS radius alpha        =              1
    Pruning alpha          =              1
    Radial Points          =             75
    Spherical Points       =            302
    Total Points           =          43824
    Total Blocks           =            402
    Max Points             =            253
    Max Functions          =             84
    Weights Tolerance      =       1.00E-15

   => Loading Basis Set <=

    Name: (DEF2-TZVPPD AUX)
    Role: JKFIT
    Keyword: DF_BASIS_SCF
    atoms 1 entry FE         line  1978 file /mnt/storage/home/zw18965/.conda/envs/p4env/share/psi4/basis/def2-universal-jkfit.gbs 
    atoms 2 entry H          line    18 file /mnt/storage/home/zw18965/.conda/envs/p4env/share/psi4/basis/def2-universal-jkfit.gbs 

  ==> Integral Setup <==

  DFHelper Memory: AOs need 0.019 GiB; user supplied 83.587 GiB. Using in-core AOs.

  ==> MemDFJK: Density-Fitted J/K Matrices <==

    J tasked:                   Yes
    K tasked:                   Yes
    wK tasked:                   No
    OpenMP threads:              28
    Memory [MiB]:             85592
    Algorithm:                 Core
    Schwarz Cutoff:           1E-12
    Mask sparsity (%):       0.0000
    Fitting Condition:        1E-10

   => Auxiliary Basis Set <=

  Basis Set: (DEF2-TZVPPD AUX)
    Blend: DEF2-UNIVERSAL-JKFIT
    Number of shells: 64
    Number of basis functions: 282
    Number of Cartesian functions: 397
    Spherical Harmonics?: true
    Max angular momentum: 6

  Cached 100.0% of DFT collocation blocks in 0.232 [GiB].

  Minimum eigenvalue in the overlap matrix is 3.0979901687E-03.
  Reciprocal condition number of the overlap matrix is 7.1898446623E-04.
    Using symmetric orthogonalization.

  ==> Pre-Iterations <==

  SCF Guess: Superposition of Atomic Densities via on-the-fly atomic UHF (no occupation information).

   -------------------------
    Irrep   Nso     Nmo    
   -------------------------
     A1        35      35 
     A2         9       9 
     B1        20      20 
     B2        20      20 
   -------------------------
    Total      84      84
   -------------------------

  ==> Iterations <==

                           Total Energy        Delta E     RMS |[F,P]|

   @DF-UKS iter SAD: -1262.95483878485356   -1.26295e+03   0.00000e+00 
    Occupation by irrep:
             A1    A2    B1    B2 
    DOCC [     7,    0,    2,    3 ]
    SOCC [     2,    0,    1,    0 ]

   @DF-UKS iter   1: -1261.89052401884260    1.06431e+00   7.11861e-02 DIIS
    Occupation by irrep:
             A1    A2    B1    B2 
    DOCC [     6,    0,    3,    3 ]
    SOCC [     2,    1,    0,    0 ]

   @DF-UKS iter   2: -1244.76220546867080    1.71283e+01   1.39483e-01 DIIS
    Occupation by irrep:
             A1    A2    B1    B2 
    DOCC [     7,    0,    2,    3 ]
    SOCC [     1,    1,    1,    0 ]

   @DF-UKS iter   3: -1263.61526028475282   -1.88531e+01   3.01177e-02 DIIS
    Occupation by irrep:
             A1    A2    B1    B2 
    DOCC [     6,    0,    3,    3 ]
    SOCC [     2,    1,    0,    0 ]

   @DF-UKS iter   4: -1262.49804669584000    1.11721e+00   5.46003e-02 DIIS
   @DF-UKS iter   5: -1264.18825058736502   -1.69020e+00   1.68758e-02 DIIS
   @DF-UKS iter   6: -1264.27633300828097   -8.80824e-02   1.14017e-02 DIIS
   @DF-UKS iter   7: -1264.31876389119975   -4.24309e-02   6.96568e-03 DIIS
   @DF-UKS iter   8: -1264.34811851290169   -2.93546e-02   5.34931e-04 DIIS
   @DF-UKS iter   9: -1264.34938213982105   -1.26363e-03   4.69543e-04 DIIS
   @DF-UKS iter  10: -1264.34989539147637   -5.13252e-04   1.67706e-04 DIIS
   @DF-UKS iter  11: -1264.35025916505401   -3.63774e-04   4.06098e-05 DIIS
   @DF-UKS iter  12: -1264.35026922657653   -1.00615e-05   1.77616e-05 DIIS
   @DF-UKS iter  13: -1264.35027036607244   -1.13950e-06   7.41523e-06 DIIS
   @DF-UKS iter  14: -1264.35027071483955   -3.48767e-07   1.81459e-06 DIIS
   @DF-UKS iter  15: -1264.35027076794177   -5.31022e-08   7.39828e-07 DIIS
  Energy and wave function converged.


  ==> Post-Iterations <==

   Electrons on quadrature grid:
      Nalpha   =   14.9999998222 ; deviation = -1.778e-07
      Nbeta    =   11.9999997504 ; deviation = -2.496e-07
      Ntotal   =   26.9999995726 ; deviation = -4.274e-07 

   @Spin Contamination Metric:   3.061492127E-02
   @S^2 Expected:                3.750000000E+00
   @S^2 Observed:                3.780614921E+00
   @S   Expected:                1.500000000E+00
   @S   Observed:                1.500000000E+00

    Orbital Energies [Eh]
    ---------------------

    Alpha Occupied:                                                       

       1A1  -253.988811     2A1   -29.187922     1B2   -25.603954  
       1B1   -25.603953     3A1   -25.582130     4A1    -3.297529  
       2B2    -2.229377     2B1    -2.229376     5A1    -2.176760  
       6A1    -0.329449     1A2    -0.329449     7A1    -0.314415  
       3B2    -0.277640     3B1    -0.277639     8A1    -0.247522  

    Alpha Virtual:                                                        

       9A1    -0.042808     4B2     0.001531     4B1     0.001531  
      10A1     0.105048    11A1     0.120681     5B2     0.148830  
       5B1     0.148830    12A1     0.183493     6B2     0.213883  
       6B1     0.213883    13A1     0.220646     2A2     0.220646  
      14A1     0.338915     7B2     0.340304     7B1     0.340304  
      15A1     0.395739    16A1     0.539310     8B2     0.598835  
       8B1     0.598836    17A1     0.649795     9B2     0.875057  
       9B1     0.875057    18A1     0.934072     3A2     0.934072  
      19A1     1.069142    10B2     1.136543    10B1     1.136543  
      20A1     1.287597    21A1     2.260747    11B1     2.312889  
      11B2     2.312889    12B2     2.330740    12B1     2.330740  
       4A2     2.345094    22A1     2.345100    13B2     2.394388  
      13B1     2.394388    23A1     2.508082    24A1     2.755735  
      25A1     2.903136     5A2     3.228993    26A1     3.229300  
      27A1     3.335467     6A2     3.398648    28A1     3.398663  
      14B2     3.463919    14B1     3.463919    15B2     3.538103  
      15B1     3.538103    16B2     3.889841    16B1     3.889841  
      29A1     3.968058    30A1     4.680019    31A1     8.307530  
       7A2     8.307531    17B1     8.376237    17B2     8.376237  
      32A1     8.384834     8A2     8.384835    18B2     8.402594  
      18B1     8.402594    33A1     8.434167    19B2     8.998713  
      19B1     8.998713    34A1     9.073437     9A2     9.073437  
      20B2     9.156215    20B1     9.156215    35A1     9.420639  

    Beta Occupied:                                                        

       1A1  -253.990889     2A1   -29.174979     1B2   -25.582582  
       1B1   -25.582582     3A1   -25.562490     4A1    -3.239695  
       2B2    -2.131060     2B1    -2.131060     5A1    -2.113474  
       6A1    -0.299866     3B1    -0.215417     3B2    -0.215417  

    Beta Virtual:                                                         

       7A1    -0.041524     8A1     0.019223     4B2     0.037265  
       4B1     0.037266     1A2     0.042303     9A1     0.042311  
      10A1     0.111304    11A1     0.137099     5B2     0.157522  
       5B1     0.157523    12A1     0.197805     6B2     0.214907  
       6B1     0.214909    13A1     0.272071     2A2     0.272120  
       7B2     0.344572     7B1     0.344573    14A1     0.351973  
      15A1     0.411637    16A1     0.528112     8B2     0.634957  
       8B1     0.634957    17A1     0.655080     9B1     0.872746  
       9B2     0.872746     3A2     1.005242    18A1     1.005300  
      19A1     1.099794    10B1     1.131242    10B2     1.131242  
      20A1     1.281088    21A1     2.276412    11B2     2.367800  
      11B1     2.367800     4A2     2.397002    22A1     2.397003  
      12B2     2.466411    12B1     2.466411    13B2     2.467017  
      13B1     2.467017    23A1     2.502273    24A1     2.763453  
      25A1     2.945904     5A2     3.181712    26A1     3.182006  
      27A1     3.405061    14B2     3.469927    14B1     3.469927  
      28A1     3.502206     6A2     3.502214    15B1     3.530073  
      15B2     3.530073    16B1     3.848225    16B2     3.848226  
      29A1     3.937561    30A1     4.660406    17B1     8.425887  
      17B2     8.425887     7A2     8.434217    31A1     8.434219  
      32A1     8.441670     8A2     8.441671    18B2     8.459489  
      18B1     8.459489    33A1     8.511876    19B2     9.090278  
      19B1     9.090278    34A1     9.118530     9A2     9.118531  
      20B2     9.180545    20B1     9.180546    35A1     9.450548  

    Final Occupation by Irrep:
             A1    A2    B1    B2 
    DOCC [     6,    0,    3,    3 ]
    SOCC [     2,    1,    0,    0 ]

  @DF-UKS Final Energy: -1264.35027076794177

   => Energetics <=

    Nuclear Repulsion Energy =              8.5457189300745338
    One-Electron Energy =               -1765.4060384352687834
    Two-Electron Energy =                 524.6155942592306474
    DFT Exchange-Correlation Energy =     -32.1055326219782984
    Empirical Dispersion Energy =          -0.0000129000000000
    VV10 Nonlocal Energy =                  0.0000000000000000
    Total Energy =                      -1264.3502707679417654

  UHF NO Occupations:
  HONO-2 :    7 A1 1.0000000
  HONO-1 :    8 A1 1.0000000
  HONO-0 :    1 A2 1.0000000
  LUNO+0 :    9 A1 0.0110428
  LUNO+1 :    4 B2 0.0020796
  LUNO+2 :    4 B1 0.0020794
  LUNO+3 :    5 B1 0.0000723


Computation Completed


Properties will be evaluated at   0.000000,   0.000000,   0.000000 [a0]

Properties computed using the SCF density matrix

  Nuclear Dipole Moment: [e a0]
     X:     0.0000      Y:     0.0000      Z:     1.5886

  Electronic Dipole Moment: [e a0]
     X:     0.0000      Y:     0.0000      Z:    -2.8499

  Dipole Moment: [e a0]
     X:     0.0000      Y:     0.0000      Z:    -1.2614     Total:     1.2614

  Dipole Moment: [D]
     X:     0.0000      Y:     0.0000      Z:    -3.2061     Total:     3.2061


*** tstop() called on compute303.bc4.acrc.priv at Sun Nov  7 05:08:30 2021
Module time:
	user time   =     199.02 seconds =       3.32 minutes
	system time =       7.45 seconds =       0.12 minutes
	total time  =          9 seconds =       0.15 minutes
Total time:
	user time   =     199.02 seconds =       3.32 minutes
	system time =       7.45 seconds =       0.12 minutes
	total time  =          9 seconds =       0.15 minutes

    Psi4 stopped on: Sunday, 07 November 2021 05:08AM
    Psi4 wall time for execution: 0:00:09.19

*** Psi4 exiting successfully. Buy a developer a beer!
