
    -----------------------------------------------------------------------
          Psi4: An Open-Source Ab Initio Electronic Structure Package
                               Psi4 1.4.1 release

                         Git: Rev {HEAD} cd00f19 


    D. G. A. Smith, L. A. Burns, A. C. Simmonett, R. M. Parrish,
    M. C. Schieber, R. Galvelis, P. Kraus, H. Kruse, R. Di Remigio,
    A. Alenaizan, A. M. James, S. Lehtola, J. P. Misiewicz, M. Scheurer,
    R. A. Shaw, J. B. Schriber, Y. Xie, Z. L. Glick, D. A. Sirianni,
    J. S. O'Brien, J. M. Waldrop, A. Kumar, E. G. Hohenstein,
    B. P. Pritchard, B. R. Brooks, H. F. Schaefer III, A. Yu. Sokolov,
    K. Patkowski, A. E. DePrince III, U. Bozkaya, R. A. King,
    F. A. Evangelista, J. M. Turney, T. D. Crawford, C. D. Sherrill,
    J. Chem. Phys. 152(18) 184108 (2020). https://doi.org/10.1063/5.0006002

                            Additional Code Authors
    E. T. Seidl, C. L. Janssen, E. F. Valeev, M. L. Leininger,
    J. F. Gonthier, R. M. Richard, H. R. McAlexander, M. Saitow, X. Wang,
    P. Verma, and M. H. Lechner

             Previous Authors, Complete List of Code Contributors,
                       and Citations for Specific Modules
    https://github.com/psi4/psi4/blob/master/codemeta.json
    https://github.com/psi4/psi4/graphs/contributors
    http://psicode.org/psi4manual/master/introduction.html#citing-psifour

    -----------------------------------------------------------------------


    Psi4 started on: Sunday, 07 November 2021 05:09AM

    Process ID: 14567
    Host:       compute191.bc4.acrc.priv
    PSIDATADIR: /mnt/storage/home/zw18965/.conda/envs/p4env/share/psi4
    Memory:     500.0 MiB
    Threads:    28
    
  ==> Input File <==

--------------------------------------------------------------------------
memory 120 GB

molecule {
0 1
O          0.00000        0.00000        0.00000
H          0.00000        0.00000        0.95691
H          0.92636        0.00000       -0.23987
 }

set dynamic_level 1
set basis Def2-TZVPPD

energy("MN15-D3BJ")
--------------------------------------------------------------------------

  Memory set to 111.759 GiB by Python driver.

Scratch directory: /tmp/

*** tstart() called on compute191.bc4.acrc.priv
*** at Sun Nov  7 05:09:20 2021

   => Loading Basis Set <=

    Name: DEF2-TZVPPD
    Role: ORBITAL
    Keyword: BASIS
    atoms 1   entry O          line   218 file /mnt/storage/home/zw18965/.conda/envs/p4env/share/psi4/basis/def2-tzvppd.gbs 
    atoms 2-3 entry H          line    14 file /mnt/storage/home/zw18965/.conda/envs/p4env/share/psi4/basis/def2-tzvppd.gbs 

   => MN15-D3(BJ): Empirical Dispersion <=

    Grimme's -D3 (BJ-damping) Dispersion Correction
    Grimme S.; Ehrlich S.; Goerigk L. (2011), J. Comput. Chem., 32: 1456
    Parametrisation from:    L. Goerigk, A. Hansen, C. Bauer, S. Ehrlich, A. Najibi, S. Grimme, Phys. Chem. Chem. Phys. 19, 32184-32215, 2017

        s6 =       1.000000
        s8 =       2.097100
        a1 =       0.786200
        a2 =       7.592300


         ---------------------------------------------------------
                                   SCF
               by Justin Turney, Rob Parrish, Andy Simmonett
                          and Daniel G. A. Smith
                              RKS Reference
                       28 Threads, 114440 MiB Core
         ---------------------------------------------------------

  ==> Geometry <==

    Molecular point group: cs
    Full point group: Cs

    Geometry (in Angstrom), charge = 0, multiplicity = 1:

       Center              X                  Y                   Z               Mass       
    ------------   -----------------  -----------------  -----------------  -----------------
         O            0.051836731010    -0.040123720371     0.000000000000    15.994914619570
         H            0.051836731010     0.916786279629     0.000000000000     1.007825032230
         H           -0.874523268990    -0.279993720371     0.000000000000     1.007825032230

  Running in cs symmetry.

  Rotational constants: A =     27.44992  B =     14.60580  C =      9.53326 [cm^-1]
  Rotational constants: A = 822927.94090  B = 437870.75215  C = 285799.84928 [MHz]
  Nuclear repulsion =    9.197748699306425

  Charge       = 0
  Multiplicity = 1
  Electrons    = 10
  Nalpha       = 5
  Nbeta        = 5

  ==> Algorithm <==

  SCF Algorithm Type is DF.
  DIIS enabled.
  MOM disabled.
  Fractional occupation disabled.
  Guess Type is SAD.
  Energy threshold   = 1.00e-06
  Density threshold  = 1.00e-06
  Integral threshold = 1.00e-12

  ==> Primary Basis <==

  Basis Set: DEF2-TZVPPD
    Blend: DEF2-TZVPPD
    Number of shells: 28
    Number of basis functions: 74
    Number of Cartesian functions: 82
    Spherical Harmonics?: true
    Max angular momentum: 3

  ==> DFT Potential <==

   => Composite Functional: MN15-D3BJ <= 

   MN15 Hybrid Meta-GGA Exchange-Correlation Functional

    H. S. Yu, X. He, S. L. Li, and D. G. Truhlar, Chem. Sci. 7, 5032-5051, 2016


    Deriv               =              1
    GGA                 =           TRUE
    Meta                =           TRUE

    Exchange Hybrid     =           TRUE
    MP2 Hybrid          =          FALSE

   => Exchange Functionals <=

    1.0000   XC_HYB_MGGA_X_MN15

   => Exact (HF) Exchange <=

    0.4400               HF 

   => Correlation Functionals <=

    1.0000   XC_MGGA_C_MN15

   => LibXC Density Thresholds  <==

    XC_MGGA_C_MN15:  1.00E-15 
    XC_HYB_MGGA_X_MN15:  1.00E-15 

   => Molecular Quadrature <=

    Radial Scheme          =       TREUTLER
    Pruning Scheme         =           NONE
    Nuclear Scheme         =       TREUTLER

    BS radius alpha        =              1
    Pruning alpha          =              1
    Radial Points          =             75
    Spherical Points       =            302
    Total Points           =          66708
    Total Blocks           =            563
    Max Points             =            255
    Max Functions          =             74
    Weights Tolerance      =       1.00E-15

   => Loading Basis Set <=

    Name: (DEF2-TZVPPD AUX)
    Role: JKFIT
    Keyword: DF_BASIS_SCF
    atoms 1   entry O          line   318 file /mnt/storage/home/zw18965/.conda/envs/p4env/share/psi4/basis/def2-universal-jkfit.gbs 
    atoms 2-3 entry H          line    18 file /mnt/storage/home/zw18965/.conda/envs/p4env/share/psi4/basis/def2-universal-jkfit.gbs 

  ==> Integral Setup <==

  DFHelper Memory: AOs need 0.007 GiB; user supplied 83.473 GiB. Using in-core AOs.

  ==> MemDFJK: Density-Fitted J/K Matrices <==

    J tasked:                   Yes
    K tasked:                   Yes
    wK tasked:                   No
    OpenMP threads:              28
    Memory [MiB]:             85475
    Algorithm:                 Core
    Schwarz Cutoff:           1E-12
    Mask sparsity (%):       0.0000
    Fitting Condition:        1E-10

   => Auxiliary Basis Set <=

  Basis Set: (DEF2-TZVPPD AUX)
    Blend: DEF2-UNIVERSAL-JKFIT
    Number of shells: 37
    Number of basis functions: 113
    Number of Cartesian functions: 133
    Spherical Harmonics?: true
    Max angular momentum: 4

  Cached 100.0% of DFT collocation blocks in 0.346 [GiB].

  Minimum eigenvalue in the overlap matrix is 6.6004688097E-04.
  Reciprocal condition number of the overlap matrix is 1.0131033719E-04.
    Using symmetric orthogonalization.

  ==> Pre-Iterations <==

  SCF Guess: Superposition of Atomic Densities via on-the-fly atomic UHF (no occupation information).

   -------------------------
    Irrep   Nso     Nmo    
   -------------------------
     A'        51      51 
     A"        23      23 
   -------------------------
    Total      74      74
   -------------------------

  ==> Iterations <==

                           Total Energy        Delta E     RMS |[F,P]|

   @DF-RKS iter SAD:   -75.98686772572339   -7.59869e+01   0.00000e+00 
   @DF-RKS iter   1:   -76.22504352994848   -2.38176e-01   1.23191e-02 DIIS
   @DF-RKS iter   2:   -76.05028625033286    1.74757e-01   1.75637e-02 DIIS
   @DF-RKS iter   3:   -76.38704194210098   -3.36756e-01   4.28248e-04 DIIS
   @DF-RKS iter   4:   -76.38734156452743   -2.99622e-04   1.00064e-04 DIIS
   @DF-RKS iter   5:   -76.38735186864969   -1.03041e-05   1.14639e-05 DIIS
   @DF-RKS iter   6:   -76.38735204801165   -1.79362e-07   1.93645e-06 DIIS
   @DF-RKS iter   7:   -76.38735205690114   -8.88949e-09   2.86134e-07 DIIS
  Energy and wave function converged.


  ==> Post-Iterations <==

   Electrons on quadrature grid:
      Ntotal   =   10.0000000611 ; deviation = 6.111e-08 

    Orbital Energies [Eh]
    ---------------------

    Doubly Occupied:                                                      

       1Ap   -18.819487     2Ap    -1.057262     3Ap    -0.577969  
       4Ap    -0.441209     1App   -0.370901  

    Virtual:                                                              

       5Ap     0.043301     6Ap     0.097572     2App    0.129147  
       7Ap     0.131199     8Ap     0.188703     9Ap     0.220342  
      10Ap     0.247066     3App    0.252094     4App    0.274225  
      11Ap     0.313003    12Ap     0.324877    13Ap     0.375338  
      14Ap     0.457039    15Ap     0.465481     5App    0.494336  
      16Ap     0.543026     6App    0.562081    17Ap     0.698316  
      18Ap     0.726882     7App    0.740971    19Ap     0.752690  
      20Ap     0.913458     8App    1.015836    21Ap     1.016483  
       9App    1.081442    22Ap     1.143586    23Ap     1.216803  
      24Ap     1.334048    25Ap     1.389700    10App    1.859351  
      11App    1.921829    26Ap     1.994324    27Ap     2.088839  
      28Ap     2.216105    29Ap     2.439789    30Ap     2.648624  
      12App    2.752910    31Ap     3.020530    13App    3.086067  
      32Ap     3.185906    33Ap     3.293866    14App    3.362941  
      34Ap     3.376069    35Ap     3.385468    36Ap     3.579593  
      15App    3.749363    16App    3.786772    37Ap     3.898456  
      17App    4.007370    18App    4.082768    38Ap     4.126507  
      39Ap     4.192403    40Ap     4.594356    41Ap     4.666722  
      42Ap     4.877463    43Ap     5.108606    19App    5.512390  
      44Ap     6.066458    20App    6.312954    21App    6.341748  
      22App    6.424994    45Ap     6.455329    46Ap     6.477527  
      23App    6.662201    47Ap     6.785357    48Ap     7.243050  
      49Ap     7.357584    50Ap     7.540168    51Ap    42.125548  

    Final Occupation by Irrep:
             Ap   App 
    DOCC [     4,    1 ]

  @DF-RKS Final Energy:   -76.38735205690114

   => Energetics <=

    Nuclear Repulsion Energy =              9.1977486993064250
    One-Electron Energy =                -123.1104329622138067
    Two-Electron Energy =                  42.8547794835913933
    DFT Exchange-Correlation Energy =      -5.3294347975851482
    Empirical Dispersion Energy =          -0.0000124800000000
    VV10 Nonlocal Energy =                  0.0000000000000000
    Total Energy =                        -76.3873520569011220

Computation Completed


Properties will be evaluated at   0.000000,   0.000000,   0.000000 [a0]

Properties computed using the SCF density matrix

  Nuclear Dipole Moment: [e a0]
     X:    -0.7710      Y:     0.5968      Z:     0.0000

  Electronic Dipole Moment: [e a0]
     X:     0.1807      Y:    -0.1398      Z:     0.0000

  Dipole Moment: [e a0]
     X:    -0.5903      Y:     0.4569      Z:     0.0000     Total:     0.7465

  Dipole Moment: [D]
     X:    -1.5005      Y:     1.1614      Z:     0.0000     Total:     1.8975


*** tstop() called on compute191.bc4.acrc.priv at Sun Nov  7 05:09:22 2021
Module time:
	user time   =      21.46 seconds =       0.36 minutes
	system time =       1.75 seconds =       0.03 minutes
	total time  =          2 seconds =       0.03 minutes
Total time:
	user time   =      21.46 seconds =       0.36 minutes
	system time =       1.75 seconds =       0.03 minutes
	total time  =          2 seconds =       0.03 minutes

    Psi4 stopped on: Sunday, 07 November 2021 05:09AM
    Psi4 wall time for execution: 0:00:02.42

*** Psi4 exiting successfully. Buy a developer a beer!
