
    -----------------------------------------------------------------------
          Psi4: An Open-Source Ab Initio Electronic Structure Package
                               Psi4 1.4.1 release

                         Git: Rev {HEAD} cd00f19 


    D. G. A. Smith, L. A. Burns, A. C. Simmonett, R. M. Parrish,
    M. C. Schieber, R. Galvelis, P. Kraus, H. Kruse, R. Di Remigio,
    A. Alenaizan, A. M. James, S. Lehtola, J. P. Misiewicz, M. Scheurer,
    R. A. Shaw, J. B. Schriber, Y. Xie, Z. L. Glick, D. A. Sirianni,
    J. S. O'Brien, J. M. Waldrop, A. Kumar, E. G. Hohenstein,
    B. P. Pritchard, B. R. Brooks, H. F. Schaefer III, A. Yu. Sokolov,
    K. Patkowski, A. E. DePrince III, U. Bozkaya, R. A. King,
    F. A. Evangelista, J. M. Turney, T. D. Crawford, C. D. Sherrill,
    J. Chem. Phys. 152(18) 184108 (2020). https://doi.org/10.1063/5.0006002

                            Additional Code Authors
    E. T. Seidl, C. L. Janssen, E. F. Valeev, M. L. Leininger,
    J. F. Gonthier, R. M. Richard, H. R. McAlexander, M. Saitow, X. Wang,
    P. Verma, and M. H. Lechner

             Previous Authors, Complete List of Code Contributors,
                       and Citations for Specific Modules
    https://github.com/psi4/psi4/blob/master/codemeta.json
    https://github.com/psi4/psi4/graphs/contributors
    http://psicode.org/psi4manual/master/introduction.html#citing-psifour

    -----------------------------------------------------------------------


    Psi4 started on: Sunday, 07 November 2021 05:08AM

    Process ID: 9208
    Host:       compute153.bc4.acrc.priv
    PSIDATADIR: /mnt/storage/home/zw18965/.conda/envs/p4env/share/psi4
    Memory:     500.0 MiB
    Threads:    28
    
  ==> Input File <==

--------------------------------------------------------------------------
memory 120 GB

molecule {
0 1
Li         0.00000        0.00000        0.00000
Cl         0.00000        0.00000        2.02067
 }

set dynamic_level 1
set basis Def2-TZVPPD

energy("MN15-D3BJ")
--------------------------------------------------------------------------

  Memory set to 111.759 GiB by Python driver.

Scratch directory: /tmp/

*** tstart() called on compute153.bc4.acrc.priv
*** at Sun Nov  7 05:08:28 2021

   => Loading Basis Set <=

    Name: DEF2-TZVPPD
    Role: ORBITAL
    Keyword: BASIS
    atoms 1 entry LI         line    50 file /mnt/storage/home/zw18965/.conda/envs/p4env/share/psi4/basis/def2-tzvppd.gbs 
    atoms 2 entry CL         line   607 file /mnt/storage/home/zw18965/.conda/envs/p4env/share/psi4/basis/def2-tzvppd.gbs 

   => MN15-D3(BJ): Empirical Dispersion <=

    Grimme's -D3 (BJ-damping) Dispersion Correction
    Grimme S.; Ehrlich S.; Goerigk L. (2011), J. Comput. Chem., 32: 1456
    Parametrisation from:    L. Goerigk, A. Hansen, C. Bauer, S. Ehrlich, A. Najibi, S. Grimme, Phys. Chem. Chem. Phys. 19, 32184-32215, 2017

        s6 =       1.000000
        s8 =       2.097100
        a1 =       0.786200
        a2 =       7.592300


         ---------------------------------------------------------
                                   SCF
               by Justin Turney, Rob Parrish, Andy Simmonett
                          and Daniel G. A. Smith
                              RKS Reference
                       28 Threads, 114440 MiB Core
         ---------------------------------------------------------

  ==> Geometry <==

    Molecular point group: c2v
    Full point group: C_inf_v

    Geometry (in Angstrom), charge = 0, multiplicity = 1:

       Center              X                  Y                   Z               Mass       
    ------------   -----------------  -----------------  -----------------  -----------------
         LI           0.000000000000     0.000000000000    -1.682999969068     7.016003436600
         CL           0.000000000000     0.000000000000     0.337670030932    34.968852682000

  Running in c2v symmetry.

  Rotational constants: A = ************  B =      0.70652  C =      0.70652 [cm^-1]
  Rotational constants: A = ************  B =  21181.07044  C =  21181.07044 [MHz]
  Nuclear repulsion =   13.355984769492297

  Charge       = 0
  Multiplicity = 1
  Electrons    = 20
  Nalpha       = 10
  Nbeta        = 10

  ==> Algorithm <==

  SCF Algorithm Type is DF.
  DIIS enabled.
  MOM disabled.
  Fractional occupation disabled.
  Guess Type is SAD.
  Energy threshold   = 1.00e-06
  Density threshold  = 1.00e-06
  Integral threshold = 1.00e-12

  ==> Primary Basis <==

  Basis Set: DEF2-TZVPPD
    Blend: DEF2-TZVPPD
    Number of shells: 27
    Number of basis functions: 73
    Number of Cartesian functions: 81
    Spherical Harmonics?: true
    Max angular momentum: 3

  ==> DFT Potential <==

   => Composite Functional: MN15-D3BJ <= 

   MN15 Hybrid Meta-GGA Exchange-Correlation Functional

    H. S. Yu, X. He, S. L. Li, and D. G. Truhlar, Chem. Sci. 7, 5032-5051, 2016


    Deriv               =              1
    GGA                 =           TRUE
    Meta                =           TRUE

    Exchange Hybrid     =           TRUE
    MP2 Hybrid          =          FALSE

   => Exchange Functionals <=

    1.0000   XC_HYB_MGGA_X_MN15

   => Exact (HF) Exchange <=

    0.4400               HF 

   => Correlation Functionals <=

    1.0000   XC_MGGA_C_MN15

   => LibXC Density Thresholds  <==

    XC_MGGA_C_MN15:  1.00E-15 
    XC_HYB_MGGA_X_MN15:  1.00E-15 

   => Molecular Quadrature <=

    Radial Scheme          =       TREUTLER
    Pruning Scheme         =           NONE
    Nuclear Scheme         =       TREUTLER

    BS radius alpha        =              1
    Pruning alpha          =              1
    Radial Points          =             75
    Spherical Points       =            302
    Total Points           =          44401
    Total Blocks           =            440
    Max Points             =            256
    Max Functions          =             72
    Weights Tolerance      =       1.00E-15

   => Loading Basis Set <=

    Name: (DEF2-TZVPPD AUX)
    Role: JKFIT
    Keyword: DF_BASIS_SCF
    atoms 1 entry LI         line    54 file /mnt/storage/home/zw18965/.conda/envs/p4env/share/psi4/basis/def2-universal-jkfit.gbs 
    atoms 2 entry CL         line   986 file /mnt/storage/home/zw18965/.conda/envs/p4env/share/psi4/basis/def2-universal-jkfit.gbs 

  ==> Integral Setup <==

  DFHelper Memory: AOs need 0.009 GiB; user supplied 83.635 GiB. Using in-core AOs.

  ==> MemDFJK: Density-Fitted J/K Matrices <==

    J tasked:                   Yes
    K tasked:                   Yes
    wK tasked:                   No
    OpenMP threads:              28
    Memory [MiB]:             85642
    Algorithm:                 Core
    Schwarz Cutoff:           1E-12
    Mask sparsity (%):       1.0133
    Fitting Condition:        1E-10

   => Auxiliary Basis Set <=

  Basis Set: (DEF2-TZVPPD AUX)
    Blend: DEF2-UNIVERSAL-JKFIT
    Number of shells: 55
    Number of basis functions: 179
    Number of Cartesian functions: 215
    Spherical Harmonics?: true
    Max angular momentum: 4

  Cached 100.0% of DFT collocation blocks in 0.184 [GiB].

  Minimum eigenvalue in the overlap matrix is 3.9842851479E-03.
  Reciprocal condition number of the overlap matrix is 9.3918265097E-04.
    Using symmetric orthogonalization.

  ==> Pre-Iterations <==

  SCF Guess: Superposition of Atomic Densities via on-the-fly atomic UHF (no occupation information).

   -------------------------
    Irrep   Nso     Nmo    
   -------------------------
     A1        33      33 
     A2         6       6 
     B1        17      17 
     B2        17      17 
   -------------------------
    Total      73      73
   -------------------------

  ==> Iterations <==

                           Total Energy        Delta E     RMS |[F,P]|

   @DF-RKS iter SAD:  -467.31203790346859   -4.67312e+02   0.00000e+00 
   @DF-RKS iter   1:  -467.63110304641992   -3.19065e-01   1.25700e-02 DIIS
   @DF-RKS iter   2:  -467.64264439300791   -1.15413e-02   1.22130e-02 DIIS
   @DF-RKS iter   3:  -467.72593969463901   -8.32953e-02   5.60155e-04 DIIS
   @DF-RKS iter   4:  -467.72620750926421   -2.67815e-04   2.04323e-04 DIIS
   @DF-RKS iter   5:  -467.72623383288936   -2.63236e-05   4.15857e-05 DIIS
   @DF-RKS iter   6:  -467.72623515447276   -1.32158e-06   8.61103e-06 DIIS
   @DF-RKS iter   7:  -467.72623524961546   -9.51427e-08   1.35255e-06 DIIS
   @DF-RKS iter   8:  -467.72623525310570   -3.49024e-09   1.37510e-07 DIIS
  Energy and wave function converged.


  ==> Post-Iterations <==

   Electrons on quadrature grid:
      Ntotal   =   20.0000006882 ; deviation = 6.882e-07 

    Orbital Energies [Eh]
    ---------------------

    Doubly Occupied:                                                      

       1A1  -100.239324     2A1    -9.063478     3A1    -7.076410  
       1B1    -7.075601     1B2    -7.075601     4A1    -2.085498  
       5A1    -0.741725     6A1    -0.312807     2B2    -0.289868  
       2B1    -0.289868  

    Virtual:                                                              

       7A1    -0.012875     3B1     0.034154     3B2     0.034154  
       8A1     0.048672     9A1     0.092682     4B1     0.101537  
       4B2     0.101537    10A1     0.139613     5B1     0.140362  
       5B2     0.140362    11A1     0.196664    12A1     0.240920  
       1A2     0.240921    13A1     0.257253     6B2     0.294381  
       6B1     0.294381    14A1     0.302515     2A2     0.399284  
      15A1     0.399286    16A1     0.449355     7B2     0.468282  
       7B1     0.468282     8B1     0.559664     8B2     0.559664  
      17A1     0.599269     9B1     0.668178     9B2     0.668178  
      18A1     0.703689     3A2     0.703712    10B1     0.732093  
      10B2     0.732093    19A1     0.745282    20A1     0.922053  
      21A1     1.155924    22A1     1.488728     4A2     1.963216  
      23A1     1.963406    11B1     1.987452    11B2     1.987452  
      24A1     2.051413    12B1     2.158338    12B2     2.158338  
      25A1     2.160943     5A2     2.161061    13B1     2.187814  
      13B2     2.187814    14B1     2.373462    14B2     2.373462  
      26A1     2.409414    27A1     2.480883    15B2     5.818901  
      15B1     5.818901    28A1     6.089552     6A2     8.129447  
      29A1     8.129469    16B1     8.146576    16B2     8.146576  
      30A1     8.206717    17B1    10.446770    17B2    10.446770  
      31A1    10.537838    32A1    13.655250    33A1    24.443523  

    Final Occupation by Irrep:
             A1    A2    B1    B2 
    DOCC [     6,    0,    2,    2 ]

  @DF-RKS Final Energy:  -467.72623525310570

   => Energetics <=

    Nuclear Repulsion Energy =             13.3559847694922968
    One-Electron Energy =                -674.0716024245678000
    Two-Electron Energy =                 210.1892614012413389
    DFT Exchange-Correlation Energy =     -17.1998571892716221
    Empirical Dispersion Energy =          -0.0000218100000000
    VV10 Nonlocal Energy =                  0.0000000000000000
    Total Energy =                       -467.7262352531057559

Computation Completed


Properties will be evaluated at   0.000000,   0.000000,   0.000000 [a0]

Properties computed using the SCF density matrix

  Nuclear Dipole Moment: [e a0]
     X:     0.0000      Y:     0.0000      Z:     1.3065

  Electronic Dipole Moment: [e a0]
     X:     0.0000      Y:     0.0000      Z:    -4.1073

  Dipole Moment: [e a0]
     X:     0.0000      Y:     0.0000      Z:    -2.8008     Total:     2.8008

  Dipole Moment: [D]
     X:     0.0000      Y:     0.0000      Z:    -7.1189     Total:     7.1189


*** tstop() called on compute153.bc4.acrc.priv at Sun Nov  7 05:08:31 2021
Module time:
	user time   =      21.46 seconds =       0.36 minutes
	system time =       1.43 seconds =       0.02 minutes
	total time  =          3 seconds =       0.05 minutes
Total time:
	user time   =      21.46 seconds =       0.36 minutes
	system time =       1.43 seconds =       0.02 minutes
	total time  =          3 seconds =       0.05 minutes

    Psi4 stopped on: Sunday, 07 November 2021 05:08AM
    Psi4 wall time for execution: 0:00:02.71

*** Psi4 exiting successfully. Buy a developer a beer!
