
    -----------------------------------------------------------------------
          Psi4: An Open-Source Ab Initio Electronic Structure Package
                               Psi4 1.4.1 release

                         Git: Rev {HEAD} cd00f19 


    D. G. A. Smith, L. A. Burns, A. C. Simmonett, R. M. Parrish,
    M. C. Schieber, R. Galvelis, P. Kraus, H. Kruse, R. Di Remigio,
    A. Alenaizan, A. M. James, S. Lehtola, J. P. Misiewicz, M. Scheurer,
    R. A. Shaw, J. B. Schriber, Y. Xie, Z. L. Glick, D. A. Sirianni,
    J. S. O'Brien, J. M. Waldrop, A. Kumar, E. G. Hohenstein,
    B. P. Pritchard, B. R. Brooks, H. F. Schaefer III, A. Yu. Sokolov,
    K. Patkowski, A. E. DePrince III, U. Bozkaya, R. A. King,
    F. A. Evangelista, J. M. Turney, T. D. Crawford, C. D. Sherrill,
    J. Chem. Phys. 152(18) 184108 (2020). https://doi.org/10.1063/5.0006002

                            Additional Code Authors
    E. T. Seidl, C. L. Janssen, E. F. Valeev, M. L. Leininger,
    J. F. Gonthier, R. M. Richard, H. R. McAlexander, M. Saitow, X. Wang,
    P. Verma, and M. H. Lechner

             Previous Authors, Complete List of Code Contributors,
                       and Citations for Specific Modules
    https://github.com/psi4/psi4/blob/master/codemeta.json
    https://github.com/psi4/psi4/graphs/contributors
    http://psicode.org/psi4manual/master/introduction.html#citing-psifour

    -----------------------------------------------------------------------


    Psi4 started on: Sunday, 07 November 2021 05:08AM

    Process ID: 17440
    Host:       compute427.bc4.acrc.priv
    PSIDATADIR: /mnt/storage/home/zw18965/.conda/envs/p4env/share/psi4
    Memory:     500.0 MiB
    Threads:    28
    
  ==> Input File <==

--------------------------------------------------------------------------
memory 120 GB

molecule {
0 2
Li         0.00000        0.00000        0.00000
O          0.00000        0.00000        1.68900
 }

set reference uks
set dynamic_level 1
set basis Def2-TZVPPD

energy("MN15-D3BJ")
--------------------------------------------------------------------------

  Memory set to 111.759 GiB by Python driver.

Scratch directory: /tmp/

*** tstart() called on compute427.bc4.acrc.priv
*** at Sun Nov  7 05:08:21 2021

   => Loading Basis Set <=

    Name: DEF2-TZVPPD
    Role: ORBITAL
    Keyword: BASIS
    atoms 1 entry LI         line    50 file /mnt/storage/home/zw18965/.conda/envs/p4env/share/psi4/basis/def2-tzvppd.gbs 
    atoms 2 entry O          line   218 file /mnt/storage/home/zw18965/.conda/envs/p4env/share/psi4/basis/def2-tzvppd.gbs 

   => MN15-D3(BJ): Empirical Dispersion <=

    Grimme's -D3 (BJ-damping) Dispersion Correction
    Grimme S.; Ehrlich S.; Goerigk L. (2011), J. Comput. Chem., 32: 1456
    Parametrisation from:    L. Goerigk, A. Hansen, C. Bauer, S. Ehrlich, A. Najibi, S. Grimme, Phys. Chem. Chem. Phys. 19, 32184-32215, 2017

        s6 =       1.000000
        s8 =       2.097100
        a1 =       0.786200
        a2 =       7.592300


         ---------------------------------------------------------
                                   SCF
               by Justin Turney, Rob Parrish, Andy Simmonett
                          and Daniel G. A. Smith
                              UKS Reference
                       28 Threads, 114440 MiB Core
         ---------------------------------------------------------

  ==> Geometry <==

    Molecular point group: c2v
    Full point group: C_inf_v

    Geometry (in Angstrom), charge = 0, multiplicity = 2:

       Center              X                  Y                   Z               Mass       
    ------------   -----------------  -----------------  -----------------  -----------------
         LI           0.000000000000     0.000000000000    -1.174025770137     7.016003436600
         O            0.000000000000     0.000000000000     0.514974229863    15.994914619570

  Running in c2v symmetry.

  Rotational constants: A = ************  B =      1.21171  C =      1.21171 [cm^-1]
  Rotational constants: A = ************  B =  36326.21314  C =  36326.21314 [MHz]
  Nuclear repulsion =    7.519391981101244

  Charge       = 0
  Multiplicity = 2
  Electrons    = 11
  Nalpha       = 6
  Nbeta        = 5

  ==> Algorithm <==

  SCF Algorithm Type is DF.
  DIIS enabled.
  MOM disabled.
  Fractional occupation disabled.
  Guess Type is SAD.
  Energy threshold   = 1.00e-06
  Density threshold  = 1.00e-06
  Integral threshold = 1.00e-12

  ==> Primary Basis <==

  Basis Set: DEF2-TZVPPD
    Blend: DEF2-TZVPPD
    Number of shells: 24
    Number of basis functions: 62
    Number of Cartesian functions: 69
    Spherical Harmonics?: true
    Max angular momentum: 3

  ==> DFT Potential <==

   => Composite Functional: MN15-D3BJ <= 

   MN15 Hybrid Meta-GGA Exchange-Correlation Functional

    H. S. Yu, X. He, S. L. Li, and D. G. Truhlar, Chem. Sci. 7, 5032-5051, 2016


    Deriv               =              1
    GGA                 =           TRUE
    Meta                =           TRUE

    Exchange Hybrid     =           TRUE
    MP2 Hybrid          =          FALSE

   => Exchange Functionals <=

    1.0000   XC_HYB_MGGA_X_MN15

   => Exact (HF) Exchange <=

    0.4400               HF 

   => Correlation Functionals <=

    1.0000   XC_MGGA_C_MN15

   => LibXC Density Thresholds  <==

    XC_MGGA_C_MN15:  1.00E-15 
    XC_HYB_MGGA_X_MN15:  1.00E-15 

   => Molecular Quadrature <=

    Radial Scheme          =       TREUTLER
    Pruning Scheme         =           NONE
    Nuclear Scheme         =       TREUTLER

    BS radius alpha        =              1
    Pruning alpha          =              1
    Radial Points          =             75
    Spherical Points       =            302
    Total Points           =          44342
    Total Blocks           =            422
    Max Points             =            256
    Max Functions          =             62
    Weights Tolerance      =       1.00E-15

   => Loading Basis Set <=

    Name: (DEF2-TZVPPD AUX)
    Role: JKFIT
    Keyword: DF_BASIS_SCF
    atoms 1 entry LI         line    54 file /mnt/storage/home/zw18965/.conda/envs/p4env/share/psi4/basis/def2-universal-jkfit.gbs 
    atoms 2 entry O          line   318 file /mnt/storage/home/zw18965/.conda/envs/p4env/share/psi4/basis/def2-universal-jkfit.gbs 

  ==> Integral Setup <==

  DFHelper Memory: AOs need 0.005 GiB; user supplied 83.647 GiB. Using in-core AOs.

  ==> MemDFJK: Density-Fitted J/K Matrices <==

    J tasked:                   Yes
    K tasked:                   Yes
    wK tasked:                   No
    OpenMP threads:              28
    Memory [MiB]:             85654
    Algorithm:                 Core
    Schwarz Cutoff:           1E-12
    Mask sparsity (%):       0.2081
    Fitting Condition:        1E-10

   => Auxiliary Basis Set <=

  Basis Set: (DEF2-TZVPPD AUX)
    Blend: DEF2-UNIVERSAL-JKFIT
    Number of shells: 42
    Number of basis functions: 128
    Number of Cartesian functions: 153
    Spherical Harmonics?: true
    Max angular momentum: 4

  Cached 100.0% of DFT collocation blocks in 0.172 [GiB].

  Minimum eigenvalue in the overlap matrix is 2.6070108226E-03.
  Reciprocal condition number of the overlap matrix is 5.7160898048E-04.
    Using symmetric orthogonalization.

  ==> Pre-Iterations <==

  SCF Guess: Superposition of Atomic Densities via on-the-fly atomic UHF (no occupation information).

   -------------------------
    Irrep   Nso     Nmo    
   -------------------------
     A1        29      29 
     A2         5       5 
     B1        14      14 
     B2        14      14 
   -------------------------
    Total      62      62
   -------------------------

  ==> Iterations <==

                           Total Energy        Delta E     RMS |[F,P]|

   @DF-UKS iter SAD:   -81.96552066885880   -8.19655e+01   0.00000e+00 
   @DF-UKS iter   1:   -82.50578795408330   -5.40267e-01   1.68819e-02 DIIS
   @DF-UKS iter   2:   -82.22347683747873    2.82311e-01   2.87263e-02 DIIS
   @DF-UKS iter   3:   -82.65098577881247   -4.27509e-01   1.42616e-03 DIIS
   @DF-UKS iter   4:   -82.65265496658697   -1.66919e-03   3.25119e-04 DIIS
   @DF-UKS iter   5:   -82.65271206506897   -5.70985e-05   6.43842e-05 DIIS
   @DF-UKS iter   6:   -82.65271564586708   -3.58080e-06   1.41445e-05 DIIS
   @DF-UKS iter   7:   -82.65271616811788   -5.22251e-07   4.23263e-06 DIIS
   @DF-UKS iter   8:   -82.65271624458245   -7.64646e-08   8.21010e-07 DIIS
  Energy and wave function converged.


  ==> Post-Iterations <==

   Electrons on quadrature grid:
      Nalpha   =    5.9999972442 ; deviation = -2.756e-06
      Nbeta    =    4.9999979581 ; deviation = -2.042e-06
      Ntotal   =   10.9999952023 ; deviation = -4.798e-06 

   @Spin Contamination Metric:   3.228892224E-03
   @S^2 Expected:                7.500000000E-01
   @S^2 Observed:                7.532288922E-01
   @S   Expected:                5.000000000E-01
   @S   Observed:                5.000000000E-01

    Orbital Energies [Eh]
    ---------------------

    Alpha Occupied:                                                       

       1A1   -18.740459     2A1    -2.047069     3A1    -0.858175  
       1B1    -0.323562     4A1    -0.292307     1B2    -0.276030  

    Alpha Virtual:                                                        

       5A1    -0.005243     2B1     0.038484     2B2     0.040817  
       6A1     0.052886     7A1     0.104162     3B1     0.121755  
       3B2     0.125361     8A1     0.181773     4B1     0.183395  
       4B2     0.189898     9A1     0.203748    10A1     0.306584  
      11A1     0.344420     1A2     0.344458    12A1     0.412743  
       5B1     0.441765     5B2     0.445945     6B1     0.451827  
       6B2     0.458250     2A2     0.524719    13A1     0.524898  
      14A1     0.597796     7B1     0.666183     7B2     0.683796  
      15A1     0.734095     8B1     0.881738     8B2     0.893583  
      16A1     0.923434    17A1     0.990334    18A1     1.651797  
      19A1     1.792820     3A2     1.795464     9B1     1.805671  
       9B2     1.847354    20A1     2.132513    10B1     2.697456  
      10B2     2.787898    21A1     2.834782    22A1     3.140968  
      11B1     5.068415    11B2     5.085738    23A1     5.103498  
       4A2     5.123025    12B1     5.123187    12B2     5.184005  
      24A1     5.249907    13B1     5.923238    13B2     5.926590  
      25A1     6.154980    26A1     6.254499     5A2     6.263756  
      14B1     6.281276    14B2     6.372602    27A1     6.524677  
      28A1    13.911020    29A1    41.613040  

    Beta Occupied:                                                        

       1A1   -18.727399     2A1    -2.047358     3A1    -0.792263  
       4A1    -0.263159     1B2    -0.246386  

    Beta Virtual:                                                         

       1B1    -0.022314     5A1    -0.005616     2B2     0.039655  
       2B1     0.044272     6A1     0.054119     7A1     0.104840  
       3B2     0.120467     3B1     0.136228     8A1     0.183337  
       4B2     0.189166     4B1     0.207037     9A1     0.208349  
      10A1     0.313524     1A2     0.347260    11A1     0.357193  
      12A1     0.414850     5B2     0.447184     5B1     0.451967  
       6B2     0.455898     6B1     0.460201     2A2     0.536647  
      13A1     0.549645    14A1     0.605215     7B2     0.687688  
       7B1     0.708722    15A1     0.738911     8B2     0.896724  
       8B1     0.911316    16A1     0.941082    17A1     0.993177  
      18A1     1.660293     9B2     1.852207     3A2     1.858279  
      19A1     1.866536     9B1     1.867757    20A1     2.152061  
      10B2     2.790125    21A1     2.835850    10B1     2.850115  
      22A1     3.182376    11B2     5.154195    11B1     5.161698  
       4A2     5.161987    23A1     5.175276    12B2     5.196479  
      12B1     5.212030    24A1     5.256349    13B2     5.925344  
      13B1     5.925843    25A1     6.161891     5A2     6.341934  
      14B2     6.342410    14B1     6.355086    26A1     6.379226  
      27A1     6.538236    28A1    13.910158    29A1    41.665026  

    Final Occupation by Irrep:
             A1    A2    B1    B2 
    DOCC [     4,    0,    0,    1 ]
    SOCC [     0,    0,    1,    0 ]

  @DF-UKS Final Energy:   -82.65271624458245

   => Energetics <=

    Nuclear Repulsion Energy =              7.5193919811012435
    One-Electron Energy =                -129.5409566985595688
    Two-Electron Energy =                  45.3491797523072435
    DFT Exchange-Correlation Energy =      -5.9803205194313485
    Empirical Dispersion Energy =          -0.0000107600000000
    VV10 Nonlocal Energy =                  0.0000000000000000
    Total Energy =                        -82.6527162445824217

  UHF NO Occupations:
  HONO-2 :    4 A1 1.9996424
  HONO-1 :    1 B2 1.9990816
  HONO-0 :    1 B1 1.0000000
  LUNO+0 :    2 B2 0.0009184
  LUNO+1 :    5 A1 0.0003576
  LUNO+2 :    6 A1 0.0003385
  LUNO+3 :    7 A1 0.0000003


Computation Completed


Properties will be evaluated at   0.000000,   0.000000,   0.000000 [a0]

Properties computed using the SCF density matrix

  Nuclear Dipole Moment: [e a0]
     X:     0.0000      Y:     0.0000      Z:     1.1295

  Electronic Dipole Moment: [e a0]
     X:     0.0000      Y:     0.0000      Z:    -3.7383

  Dipole Moment: [e a0]
     X:     0.0000      Y:     0.0000      Z:    -2.6088     Total:     2.6088

  Dipole Moment: [D]
     X:     0.0000      Y:     0.0000      Z:    -6.6308     Total:     6.6308


*** tstop() called on compute427.bc4.acrc.priv at Sun Nov  7 05:08:26 2021
Module time:
	user time   =      96.84 seconds =       1.61 minutes
	system time =       3.98 seconds =       0.07 minutes
	total time  =          5 seconds =       0.08 minutes
Total time:
	user time   =      96.84 seconds =       1.61 minutes
	system time =       3.98 seconds =       0.07 minutes
	total time  =          5 seconds =       0.08 minutes

    Psi4 stopped on: Sunday, 07 November 2021 05:08AM
    Psi4 wall time for execution: 0:00:05.23

*** Psi4 exiting successfully. Buy a developer a beer!
