
    -----------------------------------------------------------------------
          Psi4: An Open-Source Ab Initio Electronic Structure Package
                               Psi4 1.4.1 release

                         Git: Rev {HEAD} cd00f19 


    D. G. A. Smith, L. A. Burns, A. C. Simmonett, R. M. Parrish,
    M. C. Schieber, R. Galvelis, P. Kraus, H. Kruse, R. Di Remigio,
    A. Alenaizan, A. M. James, S. Lehtola, J. P. Misiewicz, M. Scheurer,
    R. A. Shaw, J. B. Schriber, Y. Xie, Z. L. Glick, D. A. Sirianni,
    J. S. O'Brien, J. M. Waldrop, A. Kumar, E. G. Hohenstein,
    B. P. Pritchard, B. R. Brooks, H. F. Schaefer III, A. Yu. Sokolov,
    K. Patkowski, A. E. DePrince III, U. Bozkaya, R. A. King,
    F. A. Evangelista, J. M. Turney, T. D. Crawford, C. D. Sherrill,
    J. Chem. Phys. 152(18) 184108 (2020). https://doi.org/10.1063/5.0006002

                            Additional Code Authors
    E. T. Seidl, C. L. Janssen, E. F. Valeev, M. L. Leininger,
    J. F. Gonthier, R. M. Richard, H. R. McAlexander, M. Saitow, X. Wang,
    P. Verma, and M. H. Lechner

             Previous Authors, Complete List of Code Contributors,
                       and Citations for Specific Modules
    https://github.com/psi4/psi4/blob/master/codemeta.json
    https://github.com/psi4/psi4/graphs/contributors
    http://psicode.org/psi4manual/master/introduction.html#citing-psifour

    -----------------------------------------------------------------------


    Psi4 started on: Sunday, 07 November 2021 05:09AM

    Process ID: 2285
    Host:       compute319.bc4.acrc.priv
    PSIDATADIR: /mnt/storage/home/zw18965/.conda/envs/p4env/share/psi4
    Memory:     500.0 MiB
    Threads:    28
    
  ==> Input File <==

--------------------------------------------------------------------------
memory 120 GB

molecule {
0 3
O          0.00000        0.00000        0.00000
 }

set reference uks
set dynamic_level 1
set basis Def2-TZVPPD

energy("MN15-D3BJ")
--------------------------------------------------------------------------

  Memory set to 111.759 GiB by Python driver.

Scratch directory: /tmp/

*** tstart() called on compute319.bc4.acrc.priv
*** at Sun Nov  7 05:09:21 2021

   => Loading Basis Set <=

    Name: DEF2-TZVPPD
    Role: ORBITAL
    Keyword: BASIS
    atoms 1 entry O          line   218 file /mnt/storage/home/zw18965/.conda/envs/p4env/share/psi4/basis/def2-tzvppd.gbs 

   => MN15-D3(BJ): Empirical Dispersion <=

    Grimme's -D3 (BJ-damping) Dispersion Correction
    Grimme S.; Ehrlich S.; Goerigk L. (2011), J. Comput. Chem., 32: 1456
    Parametrisation from:    L. Goerigk, A. Hansen, C. Bauer, S. Ehrlich, A. Najibi, S. Grimme, Phys. Chem. Chem. Phys. 19, 32184-32215, 2017

        s6 =       1.000000
        s8 =       2.097100
        a1 =       0.786200
        a2 =       7.592300


         ---------------------------------------------------------
                                   SCF
               by Justin Turney, Rob Parrish, Andy Simmonett
                          and Daniel G. A. Smith
                              UKS Reference
                       28 Threads, 114440 MiB Core
         ---------------------------------------------------------

  ==> Geometry <==

    Molecular point group: d2h
    Geometry (in Angstrom), charge = 0, multiplicity = 3:

       Center              X                  Y                   Z               Mass       
    ------------   -----------------  -----------------  -----------------  -----------------
         O            0.000000000000     0.000000000000     0.000000000000    15.994914619570

  Running in d2h symmetry.

  Rotational constants: A = ************  B = ************  C = ************ [cm^-1]
  Rotational constants: A = ************  B = ************  C = ************ [MHz]
  Nuclear repulsion =    0.000000000000000

  Charge       = 0
  Multiplicity = 3
  Electrons    = 8
  Nalpha       = 5
  Nbeta        = 3

  ==> Algorithm <==

  SCF Algorithm Type is DF.
  DIIS enabled.
  MOM disabled.
  Fractional occupation disabled.
  Guess Type is CORE.
  Energy threshold   = 1.00e-06
  Density threshold  = 1.00e-06
  Integral threshold = 1.00e-12

  ==> Primary Basis <==

  Basis Set: DEF2-TZVPPD
    Blend: DEF2-TZVPPD
    Number of shells: 14
    Number of basis functions: 40
    Number of Cartesian functions: 46
    Spherical Harmonics?: true
    Max angular momentum: 3

  ==> DFT Potential <==

   => Composite Functional: MN15-D3BJ <= 

   MN15 Hybrid Meta-GGA Exchange-Correlation Functional

    H. S. Yu, X. He, S. L. Li, and D. G. Truhlar, Chem. Sci. 7, 5032-5051, 2016


    Deriv               =              1
    GGA                 =           TRUE
    Meta                =           TRUE

    Exchange Hybrid     =           TRUE
    MP2 Hybrid          =          FALSE

   => Exchange Functionals <=

    1.0000   XC_HYB_MGGA_X_MN15

   => Exact (HF) Exchange <=

    0.4400               HF 

   => Correlation Functionals <=

    1.0000   XC_MGGA_C_MN15

   => LibXC Density Thresholds  <==

    XC_MGGA_C_MN15:  1.00E-15 
    XC_HYB_MGGA_X_MN15:  1.00E-15 

   => Molecular Quadrature <=

    Radial Scheme          =       TREUTLER
    Pruning Scheme         =           NONE
    Nuclear Scheme         =       TREUTLER

    BS radius alpha        =              1
    Pruning alpha          =              1
    Radial Points          =             75
    Spherical Points       =            302
    Total Points           =          22348
    Total Blocks           =            224
    Max Points             =            252
    Max Functions          =             40
    Weights Tolerance      =       1.00E-15

   => Loading Basis Set <=

    Name: (DEF2-TZVPPD AUX)
    Role: JKFIT
    Keyword: DF_BASIS_SCF
    atoms 1 entry O          line   318 file /mnt/storage/home/zw18965/.conda/envs/p4env/share/psi4/basis/def2-universal-jkfit.gbs 

  ==> Integral Setup <==

  DFHelper Memory: AOs need 0.002 GiB; user supplied 83.757 GiB. Using in-core AOs.

  ==> MemDFJK: Density-Fitted J/K Matrices <==

    J tasked:                   Yes
    K tasked:                   Yes
    wK tasked:                   No
    OpenMP threads:              28
    Memory [MiB]:             85767
    Algorithm:                 Core
    Schwarz Cutoff:           1E-12
    Mask sparsity (%):       0.0000
    Fitting Condition:        1E-10

   => Auxiliary Basis Set <=

  Basis Set: (DEF2-TZVPPD AUX)
    Blend: DEF2-UNIVERSAL-JKFIT
    Number of shells: 25
    Number of basis functions: 77
    Number of Cartesian functions: 93
    Spherical Harmonics?: true
    Max angular momentum: 4

  Cached 100.0% of DFT collocation blocks in 0.062 [GiB].

  Minimum eigenvalue in the overlap matrix is 1.4986248253E-02.
  Reciprocal condition number of the overlap matrix is 4.6483012928E-03.
    Using symmetric orthogonalization.

  ==> Pre-Iterations <==

  SCF Guess: Core (One-Electron) Hamiltonian.

   -------------------------------------------------------
    Irrep   Nso     Nmo     Nalpha   Nbeta   Ndocc  Nsocc
   -------------------------------------------------------
     Ag        12      12       2       2       2       0
     B1g        3       3       0       0       0       0
     B2g        3       3       0       0       0       0
     B3g        3       3       0       0       0       0
     Au         1       1       0       0       0       0
     B1u        6       6       1       0       0       1
     B2u        6       6       1       0       0       1
     B3u        6       6       1       1       1       0
   -------------------------------------------------------
    Total      40      40       5       3       3       2
   -------------------------------------------------------

  ==> Iterations <==

                           Total Energy        Delta E     RMS |[F,P]|

    Occupation by irrep:
             Ag   B1g   B2g   B3g    Au   B1u   B2u   B3u 
    DOCC [     2,    0,    0,    0,    0,    0,    1,    0 ]
    SOCC [     0,    0,    0,    0,    0,    1,    0,    1 ]

   @DF-UKS iter   1:   -69.27509485244252   -6.92751e+01   3.11275e-01 DIIS
    Occupation by irrep:
             Ag   B1g   B2g   B3g    Au   B1u   B2u   B3u 
    DOCC [     2,    0,    0,    0,    0,    0,    0,    1 ]
    SOCC [     0,    0,    0,    0,    0,    1,    1,    0 ]

   @DF-UKS iter   2:   -68.28823246006121    9.86862e-01   1.50123e-01 DIIS
   @DF-UKS iter   3:   -74.23095420625360   -5.94272e+00   9.02572e-02 DIIS
   @DF-UKS iter   4:   -74.98054400220985   -7.49590e-01   1.60647e-02 DIIS
   @DF-UKS iter   5:   -75.02031630550687   -3.97723e-02   1.38384e-03 DIIS
   @DF-UKS iter   6:   -75.02083480744827   -5.18502e-04   3.26795e-04 DIIS
   @DF-UKS iter   7:   -75.02084756464117   -1.27572e-05   3.19112e-05 DIIS
   @DF-UKS iter   8:   -75.02084785977510   -2.95134e-07   4.56807e-06 DIIS
   @DF-UKS iter   9:   -75.02084786787630   -8.10120e-09   7.78219e-07 DIIS
  Energy and wave function converged.


  ==> Post-Iterations <==

   Electrons on quadrature grid:
      Nalpha   =    5.0000000000 ; deviation = 4.336e-11
      Nbeta    =    3.0000000000 ; deviation = 4.351e-11
      Ntotal   =    8.0000000001 ; deviation = 8.687e-11 

   @Spin Contamination Metric:   2.353712875E-03
   @S^2 Expected:                2.000000000E+00
   @S^2 Observed:                2.002353713E+00
   @S   Expected:                1.000000000E+00
   @S   Observed:                1.000000000E+00

    Orbital Energies [Eh]
    ---------------------

    Alpha Occupied:                                                       

       1Ag   -18.962958     2Ag    -1.045981     1B1u   -0.500347  
       1B2u   -0.500347     1B3u   -0.449031  

    Alpha Virtual:                                                        

       3Ag     0.105325     2B2u    0.126677     2B1u    0.126677  
       2B3u    0.134276     4Ag     0.400883     1B3g    0.400883  
       1B1g    0.411867     1B2g    0.411867     5Ag     0.414856  
       3B1u    0.575096     3B2u    0.575096     3B3u    0.598156  
       6Ag     0.674825     2B3g    1.618605     7Ag     1.618605  
       2B1g    1.664938     2B2g    1.664938     8Ag     1.678270  
       4B1u    2.498412     4B2u    2.498412     4B3u    2.596834  
       9Ag     2.847940     5B1u    4.859628     5B2u    4.859628  
       1Au     4.934015     5B3u    4.934015     6B2u    4.974653  
       6B1u    4.974653     6B3u    4.990134     3B3g    6.006754  
      10Ag     6.006754     3B1g    6.112109     3B2g    6.112109  
      11Ag     6.143267    12Ag    41.222751  

    Beta Occupied:                                                        

       1Ag   -18.932597     2Ag    -0.907231     1B3u   -0.383834  

    Beta Virtual:                                                         

       1B2u   -0.123886     1B1u   -0.123886     3Ag     0.127638  
       2B3u    0.135903     2B2u    0.145412     2B1u    0.145412  
       1B1g    0.426853     1B2g    0.426853     4Ag     0.436101  
       1B3g    0.459569     5Ag     0.459569     3B3u    0.610231  
       3B2u    0.662948     3B1u    0.662948     6Ag     0.713610  
       2B1g    1.735943     2B2g    1.735943     7Ag     1.738111  
       2B3g    1.758399     8Ag     1.758399     4B3u    2.584965  
       4B2u    2.674815     4B1u    2.674815     9Ag     2.936463  
       5B2u    5.040550     5B1u    5.040550     1Au     5.045942  
       5B3u    5.045942     6B3u    5.048430     6B2u    5.101572  
       6B1u    5.101572     3B1g    6.154451     3B2g    6.154451  
      10Ag     6.200681    11Ag     6.251443     3B3g    6.251443  
      12Ag    41.342324  

    Final Occupation by Irrep:
             Ag   B1g   B2g   B3g    Au   B1u   B2u   B3u 
    DOCC [     2,    0,    0,    0,    0,    0,    0,    1 ]
    SOCC [     0,    0,    0,    0,    0,    1,    1,    0 ]

  @DF-UKS Final Energy:   -75.02084786787630

   => Energetics <=

    Nuclear Repulsion Energy =              0.0000000000000000
    One-Electron Energy =                -103.2270348825808526
    Two-Electron Energy =                  32.9994965984962363
    DFT Exchange-Correlation Energy =      -4.7933095837916859
    Empirical Dispersion Energy =           0.0000000000000000
    VV10 Nonlocal Energy =                  0.0000000000000000
    Total Energy =                        -75.0208478678762987

  UHF NO Occupations:
  HONO-2 :    1B3u 1.9992343
  HONO-1 :    1B1u 1.0000000
  HONO-0 :    1B2u 1.0000000
  LUNO+0 :    2B3u 0.0007657
  LUNO+1 :    3 Ag 0.0004104
  LUNO+2 :    4 Ag 0.0000011
  LUNO+3 :    5 Ag 0.0000000


Computation Completed


Properties will be evaluated at   0.000000,   0.000000,   0.000000 [a0]

Properties computed using the SCF density matrix

  Nuclear Dipole Moment: [e a0]
     X:     0.0000      Y:     0.0000      Z:     0.0000

  Electronic Dipole Moment: [e a0]
     X:     0.0000      Y:     0.0000      Z:     0.0000

  Dipole Moment: [e a0]
     X:     0.0000      Y:     0.0000      Z:     0.0000     Total:     0.0000

  Dipole Moment: [D]
     X:     0.0000      Y:     0.0000      Z:     0.0000     Total:     0.0000


*** tstop() called on compute319.bc4.acrc.priv at Sun Nov  7 05:09:24 2021
Module time:
	user time   =      46.36 seconds =       0.77 minutes
	system time =       1.71 seconds =       0.03 minutes
	total time  =          3 seconds =       0.05 minutes
Total time:
	user time   =      46.36 seconds =       0.77 minutes
	system time =       1.71 seconds =       0.03 minutes
	total time  =          3 seconds =       0.05 minutes

    Psi4 stopped on: Sunday, 07 November 2021 05:09AM
    Psi4 wall time for execution: 0:00:03.20

*** Psi4 exiting successfully. Buy a developer a beer!
