
    -----------------------------------------------------------------------
          Psi4: An Open-Source Ab Initio Electronic Structure Package
                               Psi4 1.4.1 release

                         Git: Rev {HEAD} cd00f19 


    D. G. A. Smith, L. A. Burns, A. C. Simmonett, R. M. Parrish,
    M. C. Schieber, R. Galvelis, P. Kraus, H. Kruse, R. Di Remigio,
    A. Alenaizan, A. M. James, S. Lehtola, J. P. Misiewicz, M. Scheurer,
    R. A. Shaw, J. B. Schriber, Y. Xie, Z. L. Glick, D. A. Sirianni,
    J. S. O'Brien, J. M. Waldrop, A. Kumar, E. G. Hohenstein,
    B. P. Pritchard, B. R. Brooks, H. F. Schaefer III, A. Yu. Sokolov,
    K. Patkowski, A. E. DePrince III, U. Bozkaya, R. A. King,
    F. A. Evangelista, J. M. Turney, T. D. Crawford, C. D. Sherrill,
    J. Chem. Phys. 152(18) 184108 (2020). https://doi.org/10.1063/5.0006002

                            Additional Code Authors
    E. T. Seidl, C. L. Janssen, E. F. Valeev, M. L. Leininger,
    J. F. Gonthier, R. M. Richard, H. R. McAlexander, M. Saitow, X. Wang,
    P. Verma, and M. H. Lechner

             Previous Authors, Complete List of Code Contributors,
                       and Citations for Specific Modules
    https://github.com/psi4/psi4/blob/master/codemeta.json
    https://github.com/psi4/psi4/graphs/contributors
    http://psicode.org/psi4manual/master/introduction.html#citing-psifour

    -----------------------------------------------------------------------


    Psi4 started on: Sunday, 07 November 2021 05:08AM

    Process ID: 3066
    Host:       compute134.bc4.acrc.priv
    PSIDATADIR: /mnt/storage/home/zw18965/.conda/envs/p4env/share/psi4
    Memory:     500.0 MiB
    Threads:    28
    
  ==> Input File <==

--------------------------------------------------------------------------
memory 120 GB

molecule {
1 5
V          0.00000        0.00000        0.00000
 }

set reference uks
set dynamic_level 1
set basis Def2-TZVPPD

energy("MN15-D3BJ")
--------------------------------------------------------------------------

  Memory set to 111.759 GiB by Python driver.

Scratch directory: /tmp/

*** tstart() called on compute134.bc4.acrc.priv
*** at Sun Nov  7 05:08:21 2021

   => Loading Basis Set <=

    Name: DEF2-TZVPPD
    Role: ORBITAL
    Keyword: BASIS
    atoms 1 entry V          line   924 file /mnt/storage/home/zw18965/.conda/envs/p4env/share/psi4/basis/def2-tzvppd.gbs 

   => MN15-D3(BJ): Empirical Dispersion <=

    Grimme's -D3 (BJ-damping) Dispersion Correction
    Grimme S.; Ehrlich S.; Goerigk L. (2011), J. Comput. Chem., 32: 1456
    Parametrisation from:    L. Goerigk, A. Hansen, C. Bauer, S. Ehrlich, A. Najibi, S. Grimme, Phys. Chem. Chem. Phys. 19, 32184-32215, 2017

        s6 =       1.000000
        s8 =       2.097100
        a1 =       0.786200
        a2 =       7.592300


         ---------------------------------------------------------
                                   SCF
               by Justin Turney, Rob Parrish, Andy Simmonett
                          and Daniel G. A. Smith
                              UKS Reference
                       28 Threads, 114440 MiB Core
         ---------------------------------------------------------

  ==> Geometry <==

    Molecular point group: d2h
    Geometry (in Angstrom), charge = 1, multiplicity = 5:

       Center              X                  Y                   Z               Mass       
    ------------   -----------------  -----------------  -----------------  -----------------
         V            0.000000000000     0.000000000000     0.000000000000    50.943957040000

  Running in d2h symmetry.

  Rotational constants: A = ************  B = ************  C = ************ [cm^-1]
  Rotational constants: A = ************  B = ************  C = ************ [MHz]
  Nuclear repulsion =    0.000000000000000

  Charge       = 1
  Multiplicity = 5
  Electrons    = 22
  Nalpha       = 13
  Nbeta        = 9

  ==> Algorithm <==

  SCF Algorithm Type is DF.
  DIIS enabled.
  MOM disabled.
  Fractional occupation disabled.
  Guess Type is CORE.
  Energy threshold   = 1.00e-06
  Density threshold  = 1.00e-06
  Integral threshold = 1.00e-12

  ==> Primary Basis <==

  Basis Set: DEF2-TZVPPD
    Blend: DEF2-TZVPPD
    Number of shells: 19
    Number of basis functions: 67
    Number of Cartesian functions: 83
    Spherical Harmonics?: true
    Max angular momentum: 4

  ==> DFT Potential <==

   => Composite Functional: MN15-D3BJ <= 

   MN15 Hybrid Meta-GGA Exchange-Correlation Functional

    H. S. Yu, X. He, S. L. Li, and D. G. Truhlar, Chem. Sci. 7, 5032-5051, 2016


    Deriv               =              1
    GGA                 =           TRUE
    Meta                =           TRUE

    Exchange Hybrid     =           TRUE
    MP2 Hybrid          =          FALSE

   => Exchange Functionals <=

    1.0000   XC_HYB_MGGA_X_MN15

   => Exact (HF) Exchange <=

    0.4400               HF 

   => Correlation Functionals <=

    1.0000   XC_MGGA_C_MN15

   => LibXC Density Thresholds  <==

    XC_MGGA_C_MN15:  1.00E-15 
    XC_HYB_MGGA_X_MN15:  1.00E-15 

   => Molecular Quadrature <=

    Radial Scheme          =       TREUTLER
    Pruning Scheme         =           NONE
    Nuclear Scheme         =       TREUTLER

    BS radius alpha        =              1
    Pruning alpha          =              1
    Radial Points          =             75
    Spherical Points       =            302
    Total Points           =          22040
    Total Blocks           =            248
    Max Points             =            245
    Max Functions          =             67
    Weights Tolerance      =       1.00E-15

   => Loading Basis Set <=

    Name: (DEF2-TZVPPD AUX)
    Role: JKFIT
    Keyword: DF_BASIS_SCF
    atoms 1 entry V          line  1600 file /mnt/storage/home/zw18965/.conda/envs/p4env/share/psi4/basis/def2-universal-jkfit.gbs 

  ==> Integral Setup <==

  DFHelper Memory: AOs need 0.012 GiB; user supplied 83.727 GiB. Using in-core AOs.

  ==> MemDFJK: Density-Fitted J/K Matrices <==

    J tasked:                   Yes
    K tasked:                   Yes
    wK tasked:                   No
    OpenMP threads:              28
    Memory [MiB]:             85735
    Algorithm:                 Core
    Schwarz Cutoff:           1E-12
    Mask sparsity (%):       0.0000
    Fitting Condition:        1E-10

   => Auxiliary Basis Set <=

  Basis Set: (DEF2-TZVPPD AUX)
    Blend: DEF2-UNIVERSAL-JKFIT
    Number of shells: 58
    Number of basis functions: 264
    Number of Cartesian functions: 377
    Spherical Harmonics?: true
    Max angular momentum: 6

  Cached 100.0% of DFT collocation blocks in 0.092 [GiB].

  Minimum eigenvalue in the overlap matrix is 3.6743538076E-02.
  Reciprocal condition number of the overlap matrix is 1.2975168697E-02.
    Using symmetric orthogonalization.

  ==> Pre-Iterations <==

  SCF Guess: Core (One-Electron) Hamiltonian.

   -------------------------------------------------------
    Irrep   Nso     Nmo     Nalpha   Nbeta   Ndocc  Nsocc
   -------------------------------------------------------
     Ag        17      17       5       3       3       2
     B1g        6       6       1       0       0       1
     B2g        6       6       0       0       0       0
     B3g        6       6       1       0       0       1
     Au         2       2       0       0       0       0
     B1u       10      10       2       2       2       0
     B2u       10      10       2       2       2       0
     B3u       10      10       2       2       2       0
   -------------------------------------------------------
    Total      67      67      13       9       9       4
   -------------------------------------------------------

  ==> Iterations <==

                           Total Energy        Delta E     RMS |[F,P]|

    Occupation by irrep:
             Ag   B1g   B2g   B3g    Au   B1u   B2u   B3u 
    DOCC [     3,    0,    0,    0,    0,    2,    2,    2 ]
    SOCC [     1,    0,    0,    0,    0,    1,    1,    1 ]

   @DF-UKS iter   1:  -929.41345887471221   -9.29413e+02   1.95794e-01 DIIS
    Occupation by irrep:
             Ag   B1g   B2g   B3g    Au   B1u   B2u   B3u 
    DOCC [     3,    0,    0,    0,    0,    2,    2,    2 ]
    SOCC [     2,    1,    0,    1,    0,    0,    0,    0 ]

   @DF-UKS iter   2:  -928.08625078147725    1.32721e+00   2.51798e-01 DIIS
   @DF-UKS iter   3:  -943.60052348665499   -1.55143e+01   1.25295e-02 DIIS
   @DF-UKS iter   4:  -943.63235515498650   -3.18317e-02   1.52465e-02 DIIS
   @DF-UKS iter   5:  -943.66197279782773   -2.96176e-02   7.44799e-03 DIIS
   @DF-UKS iter   6:  -943.67188252636925   -9.90973e-03   4.31741e-04 DIIS
   @DF-UKS iter   7:  -943.67199379936960   -1.11273e-04   1.00333e-04 DIIS
   @DF-UKS iter   8:  -943.67211651644561   -1.22717e-04   1.57431e-04 DIIS
   @DF-UKS iter   9:  -943.67221661170970   -1.00095e-04   1.17387e-04 DIIS
   @DF-UKS iter  10:  -943.67222006427096   -3.45256e-06   3.33876e-05 DIIS
   @DF-UKS iter  11:  -943.67222114668652   -1.08242e-06   6.35114e-06 DIIS
   @DF-UKS iter  12:  -943.67222118109817   -3.44116e-08   1.37264e-06 DIIS
   @DF-UKS iter  13:  -943.67222118173822   -6.40057e-10   7.19989e-08 DIIS
  Energy and wave function converged.


  ==> Post-Iterations <==

   Electrons on quadrature grid:
      Nalpha   =   12.9999998311 ; deviation = -1.689e-07
      Nbeta    =    8.9999998311 ; deviation = -1.689e-07
      Ntotal   =   21.9999996621 ; deviation = -3.379e-07 

   @Spin Contamination Metric:   6.816784989E-04
   @S^2 Expected:                6.000000000E+00
   @S^2 Observed:                6.000681678E+00
   @S   Expected:                2.000000000E+00
   @S   Observed:                2.000000000E+00

    Orbital Energies [Eh]
    ---------------------

    Alpha Occupied:                                                       

       1Ag  -195.279574     2Ag   -21.759355     1B3u  -18.721969  
       1B1u  -18.721969     1B2u  -18.702464     3Ag    -2.756947  
       2B1u   -1.898231     2B3u   -1.898231     2B2u   -1.880977  
       4Ag    -0.457240     1B1g   -0.454647     1B3g   -0.454647  
       5Ag    -0.447128  

    Alpha Virtual:                                                        

       6Ag    -0.272407     1B2g   -0.229542     3B2u   -0.161862  
       3B1u   -0.149547     3B3u   -0.149547     4B1u   -0.024020  
       4B3u   -0.024020     4B2u   -0.023394     7Ag    -0.013090  
       8Ag     0.013910     2B3g    0.014819     2B1g    0.014819  
       9Ag     0.017585     2B2g    0.029758     5B2u    0.268069  
       5B1u    0.269944     5B3u    0.269944    10Ag     0.477628  
       3B1g    0.483486     3B3g    0.483486    11Ag     0.490075  
       3B2g    0.512918     6B2u    0.914487     6B3u    0.919755  
       6B1u    0.919755     7B2u    0.926901     1Au     0.938372  
       7B1u    0.959438     7B3u    0.959438     8B3u    1.514817  
       8B1u    1.514817     8B2u    1.524750    12Ag     1.709024  
      13Ag     2.177263     4B1g    2.183796     4B3g    2.183796  
      14Ag     2.189093     4B2g    2.196807     5B3g    3.809556  
       5B1g    3.809556    15Ag     3.810476    16Ag     3.813476  
       5B2g    3.815986     6B3g    3.825322     6B1g    3.825322  
       6B2g    3.827392    17Ag     3.836232     2Au     4.335744  
       9B3u    4.335864     9B1u    4.335864     9B2u    4.345501  
      10B1u    4.347065    10B3u    4.347065    10B2u    4.349172  

    Beta Occupied:                                                        

       1Ag  -195.281847     2Ag   -21.742322     1B3u  -18.699729  
       1B1u  -18.699729     1B2u  -18.679157     3Ag    -2.678558  
       2B1u   -1.794256     2B3u   -1.794256     2B2u   -1.748806  

    Beta Virtual:                                                         

       4Ag    -0.188006     1B2g   -0.158235     5Ag    -0.144429  
       1B1g   -0.121176     1B3g   -0.121176     6Ag    -0.113825  
       3B3u   -0.107051     3B1u   -0.107051     3B2u   -0.092689  
       7Ag    -0.002577     4B1u   -0.000590     4B3u   -0.000590  
       4B2u    0.015464     2B2g    0.035720     8Ag     0.041519  
       2B3g    0.052785     2B1g    0.052785     9Ag     0.056381  
       5B1u    0.290455     5B3u    0.290455     5B2u    0.306517  
       3B2g    0.548372    10Ag     0.567274     3B3g    0.579849  
       3B1g    0.579849    11Ag     0.581210     6B1u    1.011249  
       6B3u    1.011249     1Au     1.023413     6B2u    1.035974  
       7B3u    1.036489     7B1u    1.036489     7B2u    1.037175  
       8B3u    1.570088     8B1u    1.570088     8B2u    1.606945  
      12Ag     1.785756     4B2g    2.234805    13Ag     2.269223  
       4B3g    2.283678     4B1g    2.283678    14Ag     2.288426  
      15Ag     3.914212     5B2g    3.918513     5B3g    3.940034  
       5B1g    3.940034     6B2g    3.946917    16Ag     3.969028  
       6B3g    3.970045     6B1g    3.970045    17Ag     3.971299  
       9B3u    4.398836     9B1u    4.398836     2Au     4.423199  
       9B2u    4.442901    10B1u    4.447505    10B3u    4.447505  
      10B2u    4.449922  

    Final Occupation by Irrep:
             Ag   B1g   B2g   B3g    Au   B1u   B2u   B3u 
    DOCC [     3,    0,    0,    0,    0,    2,    2,    2 ]
    SOCC [     2,    1,    0,    1,    0,    0,    0,    0 ]

  @DF-UKS Final Energy:  -943.67222118173822

   => Energetics <=

    Nuclear Repulsion Energy =              0.0000000000000000
    One-Electron Energy =               -1292.0195136614777311
    Two-Electron Energy =                 374.1690342983762889
    DFT Exchange-Correlation Energy =     -25.8217418186368768
    Empirical Dispersion Energy =           0.0000000000000000
    VV10 Nonlocal Energy =                  0.0000000000000000
    Total Energy =                       -943.6722211817382231

  UHF NO Occupations:
  HONO-2 :    5 Ag 1.0000000
  HONO-1 :    1B3g 1.0000000
  HONO-0 :    1B1g 1.0000000
  LUNO+0 :    3B2u 0.0001556
  LUNO+1 :    3B3u 0.0000709
  LUNO+2 :    3B1u 0.0000709
  LUNO+3 :    6 Ag 0.0000432


Computation Completed


Properties will be evaluated at   0.000000,   0.000000,   0.000000 [a0]

Properties computed using the SCF density matrix

  Nuclear Dipole Moment: [e a0]
     X:     0.0000      Y:     0.0000      Z:     0.0000

  Electronic Dipole Moment: [e a0]
     X:     0.0000      Y:     0.0000      Z:     0.0000

  Dipole Moment: [e a0]
     X:     0.0000      Y:     0.0000      Z:     0.0000     Total:     0.0000

  Dipole Moment: [D]
     X:     0.0000      Y:     0.0000      Z:     0.0000     Total:     0.0000


*** tstop() called on compute134.bc4.acrc.priv at Sun Nov  7 05:08:25 2021
Module time:
	user time   =      82.36 seconds =       1.37 minutes
	system time =       3.31 seconds =       0.06 minutes
	total time  =          4 seconds =       0.07 minutes
Total time:
	user time   =      82.36 seconds =       1.37 minutes
	system time =       3.31 seconds =       0.06 minutes
	total time  =          4 seconds =       0.07 minutes

    Psi4 stopped on: Sunday, 07 November 2021 05:08AM
    Psi4 wall time for execution: 0:00:04.73

*** Psi4 exiting successfully. Buy a developer a beer!
