
    -----------------------------------------------------------------------
          Psi4: An Open-Source Ab Initio Electronic Structure Package
                               Psi4 1.4.1 release

                         Git: Rev {HEAD} cd00f19 


    D. G. A. Smith, L. A. Burns, A. C. Simmonett, R. M. Parrish,
    M. C. Schieber, R. Galvelis, P. Kraus, H. Kruse, R. Di Remigio,
    A. Alenaizan, A. M. James, S. Lehtola, J. P. Misiewicz, M. Scheurer,
    R. A. Shaw, J. B. Schriber, Y. Xie, Z. L. Glick, D. A. Sirianni,
    J. S. O'Brien, J. M. Waldrop, A. Kumar, E. G. Hohenstein,
    B. P. Pritchard, B. R. Brooks, H. F. Schaefer III, A. Yu. Sokolov,
    K. Patkowski, A. E. DePrince III, U. Bozkaya, R. A. King,
    F. A. Evangelista, J. M. Turney, T. D. Crawford, C. D. Sherrill,
    J. Chem. Phys. 152(18) 184108 (2020). https://doi.org/10.1063/5.0006002

                            Additional Code Authors
    E. T. Seidl, C. L. Janssen, E. F. Valeev, M. L. Leininger,
    J. F. Gonthier, R. M. Richard, H. R. McAlexander, M. Saitow, X. Wang,
    P. Verma, and M. H. Lechner

             Previous Authors, Complete List of Code Contributors,
                       and Citations for Specific Modules
    https://github.com/psi4/psi4/blob/master/codemeta.json
    https://github.com/psi4/psi4/graphs/contributors
    http://psicode.org/psi4manual/master/introduction.html#citing-psifour

    -----------------------------------------------------------------------


    Psi4 started on: Sunday, 07 November 2021 05:09AM

    Process ID: 21249
    Host:       compute318.bc4.acrc.priv
    PSIDATADIR: /mnt/storage/home/zw18965/.conda/envs/p4env/share/psi4
    Memory:     500.0 MiB
    Threads:    28
    
  ==> Input File <==

--------------------------------------------------------------------------
memory 120 GB

molecule {
1 5
V          0.00000        0.00000        0.00000
C          0.00000        0.00000        2.11314
O          0.00000        0.00000        3.23351
 }

set reference uks
set dynamic_level 1
set basis Def2-TZVPPD

energy("MN15-D3BJ")
--------------------------------------------------------------------------

  Memory set to 111.759 GiB by Python driver.

Scratch directory: /tmp/

*** tstart() called on compute318.bc4.acrc.priv
*** at Sun Nov  7 05:09:37 2021

   => Loading Basis Set <=

    Name: DEF2-TZVPPD
    Role: ORBITAL
    Keyword: BASIS
    atoms 1 entry V          line   924 file /mnt/storage/home/zw18965/.conda/envs/p4env/share/psi4/basis/def2-tzvppd.gbs 
    atoms 2 entry C          line   144 file /mnt/storage/home/zw18965/.conda/envs/p4env/share/psi4/basis/def2-tzvppd.gbs 
    atoms 3 entry O          line   218 file /mnt/storage/home/zw18965/.conda/envs/p4env/share/psi4/basis/def2-tzvppd.gbs 

   => MN15-D3(BJ): Empirical Dispersion <=

    Grimme's -D3 (BJ-damping) Dispersion Correction
    Grimme S.; Ehrlich S.; Goerigk L. (2011), J. Comput. Chem., 32: 1456
    Parametrisation from:    L. Goerigk, A. Hansen, C. Bauer, S. Ehrlich, A. Najibi, S. Grimme, Phys. Chem. Chem. Phys. 19, 32184-32215, 2017

        s6 =       1.000000
        s8 =       2.097100
        a1 =       0.786200
        a2 =       7.592300


         ---------------------------------------------------------
                                   SCF
               by Justin Turney, Rob Parrish, Andy Simmonett
                          and Daniel G. A. Smith
                              UKS Reference
                       28 Threads, 114440 MiB Core
         ---------------------------------------------------------

  ==> Geometry <==

    Molecular point group: c2v
    Full point group: C_inf_v

    Geometry (in Angstrom), charge = 1, multiplicity = 5:

       Center              X                  Y                   Z               Mass       
    ------------   -----------------  -----------------  -----------------  -----------------
         V            0.000000000000     0.000000000000    -0.976418775074    50.943957040000
         C            0.000000000000     0.000000000000     1.136721224926    12.000000000000
         O            0.000000000000     0.000000000000     2.257091224926    15.994914619570

  Running in c2v symmetry.

  Rotational constants: A = ************  B =      0.11581  C =      0.11581 [cm^-1]
  Rotational constants: A = ************  B =   3471.94608  C =   3471.94608 [MHz]
  Nuclear repulsion =   87.342156794418941

  Charge       = 1
  Multiplicity = 5
  Electrons    = 36
  Nalpha       = 20
  Nbeta        = 16

  ==> Algorithm <==

  SCF Algorithm Type is DF.
  DIIS enabled.
  MOM disabled.
  Fractional occupation disabled.
  Guess Type is SAD.
  Energy threshold   = 1.00e-06
  Density threshold  = 1.00e-06
  Integral threshold = 1.00e-12

  ==> Primary Basis <==

  Basis Set: DEF2-TZVPPD
    Blend: DEF2-TZVPPD
    Number of shells: 46
    Number of basis functions: 144
    Number of Cartesian functions: 172
    Spherical Harmonics?: true
    Max angular momentum: 4

  ==> DFT Potential <==

   => Composite Functional: MN15-D3BJ <= 

   MN15 Hybrid Meta-GGA Exchange-Correlation Functional

    H. S. Yu, X. He, S. L. Li, and D. G. Truhlar, Chem. Sci. 7, 5032-5051, 2016


    Deriv               =              1
    GGA                 =           TRUE
    Meta                =           TRUE

    Exchange Hybrid     =           TRUE
    MP2 Hybrid          =          FALSE

   => Exchange Functionals <=

    1.0000   XC_HYB_MGGA_X_MN15

   => Exact (HF) Exchange <=

    0.4400               HF 

   => Correlation Functionals <=

    1.0000   XC_MGGA_C_MN15

   => LibXC Density Thresholds  <==

    XC_MGGA_C_MN15:  1.00E-15 
    XC_HYB_MGGA_X_MN15:  1.00E-15 

   => Molecular Quadrature <=

    Radial Scheme          =       TREUTLER
    Pruning Scheme         =           NONE
    Nuclear Scheme         =       TREUTLER

    BS radius alpha        =              1
    Pruning alpha          =              1
    Radial Points          =             75
    Spherical Points       =            302
    Total Points           =          66346
    Total Blocks           =            580
    Max Points             =            255
    Max Functions          =            142
    Weights Tolerance      =       1.00E-15

   => Loading Basis Set <=

    Name: (DEF2-TZVPPD AUX)
    Role: JKFIT
    Keyword: DF_BASIS_SCF
    atoms 1 entry V          line  1600 file /mnt/storage/home/zw18965/.conda/envs/p4env/share/psi4/basis/def2-universal-jkfit.gbs 
    atoms 2 entry C          line   198 file /mnt/storage/home/zw18965/.conda/envs/p4env/share/psi4/basis/def2-universal-jkfit.gbs 
    atoms 3 entry O          line   318 file /mnt/storage/home/zw18965/.conda/envs/p4env/share/psi4/basis/def2-universal-jkfit.gbs 

  ==> Integral Setup <==

  DFHelper Memory: AOs need 0.074 GiB; user supplied 83.260 GiB. Using in-core AOs.

  ==> MemDFJK: Density-Fitted J/K Matrices <==

    J tasked:                   Yes
    K tasked:                   Yes
    wK tasked:                   No
    OpenMP threads:              28
    Memory [MiB]:             85257
    Algorithm:                 Core
    Schwarz Cutoff:           1E-12
    Mask sparsity (%):       2.3341
    Fitting Condition:        1E-10

   => Auxiliary Basis Set <=

  Basis Set: (DEF2-TZVPPD AUX)
    Blend: DEF2-UNIVERSAL-JKFIT
    Number of shells: 108
    Number of basis functions: 416
    Number of Cartesian functions: 559
    Spherical Harmonics?: true
    Max angular momentum: 6

  Cached 100.0% of DFT collocation blocks in 0.559 [GiB].

  Minimum eigenvalue in the overlap matrix is 1.0074175382E-04.
  Reciprocal condition number of the overlap matrix is 1.4209822468E-05.
    Using symmetric orthogonalization.

  ==> Pre-Iterations <==

  SCF Guess: Superposition of Atomic Densities via on-the-fly atomic UHF (no occupation information).

   -------------------------
    Irrep   Nso     Nmo    
   -------------------------
     A1        62      62 
     A2        16      16 
     B1        33      33 
     B2        33      33 
   -------------------------
    Total     144     144
   -------------------------

  ==> Iterations <==

                           Total Energy        Delta E     RMS |[F,P]|

   @DF-UKS iter SAD: -1056.22659769798383   -1.05623e+03   0.00000e+00 
   @DF-UKS iter   1: -1056.70255498510710   -4.75957e-01   1.21535e-02 DIIS
   @DF-UKS iter   2: -1055.53631643034169    1.16624e+00   2.32974e-02 DIIS
   @DF-UKS iter   3: -1056.89116317372395   -1.35485e+00   5.32472e-03 DIIS
   @DF-UKS iter   4: -1056.95041915809338   -5.92560e-02   2.60072e-03 DIIS
   @DF-UKS iter   5: -1056.96075190126021   -1.03327e-02   1.27367e-03 DIIS
   @DF-UKS iter   6: -1056.96452458976728   -3.77269e-03   2.25186e-04 DIIS
   @DF-UKS iter   7: -1056.96465385006923   -1.29260e-04   3.06504e-05 DIIS
   @DF-UKS iter   8: -1056.96465823124640   -4.38118e-06   1.24228e-05 DIIS
   @DF-UKS iter   9: -1056.96465883105498   -5.99809e-07   4.57146e-06 DIIS
   @DF-UKS iter  10: -1056.96465890226500   -7.12100e-08   8.17966e-07 DIIS
  Energy and wave function converged.


  ==> Post-Iterations <==

   Electrons on quadrature grid:
      Nalpha   =   19.9999993414 ; deviation = -6.586e-07
      Nbeta    =   15.9999996351 ; deviation = -3.649e-07
      Ntotal   =   35.9999989765 ; deviation = -1.024e-06 

   @Spin Contamination Metric:   3.377999859E-03
   @S^2 Expected:                6.000000000E+00
   @S^2 Observed:                6.003378000E+00
   @S   Expected:                2.000000000E+00
   @S   Observed:                2.000000000E+00

    Orbital Energies [Eh]
    ---------------------

    Alpha Occupied:                                                       

       1A1  -195.278437     2A1   -21.764842     3A1   -19.108454  
       4A1   -18.731253     1B2   -18.713493     1B1   -18.713493  
       5A1   -10.354891     6A1    -2.756970     7A1    -1.903272  
       2B2    -1.884138     2B1    -1.884137     8A1    -1.390333  
       9A1    -0.805889     3B2    -0.715414     3B1    -0.715414  
      10A1    -0.683299     4B2    -0.451415     4B1    -0.451415  
      11A1    -0.449576     1A2    -0.449576  

    Alpha Virtual:                                                        

      12A1    -0.260563     5B1    -0.209195     5B2    -0.209195  
      13A1    -0.205835     6B1    -0.109963     6B2    -0.109962  
      14A1    -0.066730    15A1    -0.046007     7B1    -0.021785  
       7B2    -0.021785    16A1    -0.017989     8B2     0.001857  
       8B1     0.001857    17A1     0.015180     2A2     0.015180  
      18A1     0.029920    19A1     0.036635     9B1     0.061130  
       9B2     0.061130    20A1     0.105193     3A2     0.115803  
      21A1     0.115804    22A1     0.171738    10B2     0.215157  
      10B1     0.215157    23A1     0.217533    11B2     0.257470  
      11B1     0.257470    24A1     0.267860    12B1     0.333192  
      12B2     0.333192    25A1     0.346962    26A1     0.377346  
       4A2     0.377348    13B2     0.403754    13B1     0.403754  
      27A1     0.435651    28A1     0.484813     5A2     0.484815  
      29A1     0.557577    14B2     0.598965    14B1     0.598965  
      30A1     0.632494    31A1     0.679496     6A2     0.679514  
      32A1     0.740235    15B2     0.764151    15B1     0.764151  
      33A1     0.774126    16B1     0.829459    16B2     0.829459  
      17B1     0.937735    17B2     0.937735     7A2     0.975551  
      34A1     0.975556    35A1     0.990510    36A1     1.191548  
      18B1     1.260382    18B2     1.260382    19B2     1.462133  
      19B1     1.462133    37A1     1.507360    20B2     1.552275  
      20B1     1.552275    38A1     1.565034     8A2     1.565037  
      39A1     1.670275    40A1     1.730312    41A1     1.982187  
      21B2     2.024871    21B1     2.024871    42A1     2.108753  
       9A2     2.192650    43A1     2.192651    44A1     2.214141  
      22B2     2.232274    22B1     2.232274    23B1     2.381142  
      23B2     2.381142    45A1     2.520284    10A2     2.607116  
      46A1     2.607282    24B2     2.689908    24B1     2.689908  
      47A1     2.774319    11A2     2.774396    25B2     2.909739  
      25B1     2.909739    48A1     3.039555    49A1     3.171296  
      26B2     3.338964    26B1     3.338964    50A1     3.776899  
      27B2     3.818378    27B1     3.818378    51A1     3.831184  
      12A2     3.831209    13A2     3.834201    52A1     3.834201  
      28B2     4.001224    28B1     4.001224    53A1     4.123003  
      54A1     4.346204    29B1     4.349325    29B2     4.349325  
      55A1     4.373588    14A2     4.373589    30B2     4.504413  
      30B1     4.504413    31B1     4.802497    31B2     4.802497  
      56A1     4.879246    15A2     5.221358    57A1     5.221384  
      32B2     5.983505    32B1     5.983505    58A1     6.038599  
      16A2     6.038693    59A1     6.279256    33B2     6.442747  
      33B1     6.442747    60A1     6.839537    61A1    21.621670  
      62A1    42.050288  

    Beta Occupied:                                                        

       1A1  -195.280666     2A1   -21.748985     3A1   -19.106514  
       4A1   -18.714641     1B2   -18.689890     1B1   -18.689890  
       5A1   -10.355374     6A1    -2.681278     7A1    -1.815075  
       2B2    -1.764401     2B1    -1.764400     8A1    -1.386358  
       9A1    -0.800929     3B2    -0.707189     3B1    -0.707189  
      10A1    -0.675153  

    Beta Virtual:                                                         

       4B2    -0.226223     4B1    -0.226223    11A1    -0.181942  
      12A1    -0.149616     5B2    -0.119600     5B1    -0.119599  
      13A1    -0.119180     1A2    -0.119177     6B2    -0.077071  
       6B1    -0.077071    14A1    -0.058830    15A1    -0.040539  
      16A1    -0.005005     7B2     0.001657     7B1     0.001657  
       8B2     0.010157     8B1     0.010157    17A1     0.035193  
      18A1     0.046095     2A2     0.046096    19A1     0.055107  
       9B2     0.077714     9B1     0.077714    20A1     0.109048  
      21A1     0.118911     3A2     0.118912    22A1     0.179469  
      10B2     0.219741    10B1     0.219741    23A1     0.221705  
      11B2     0.270128    11B1     0.270129    24A1     0.278677  
      12B2     0.348193    12B1     0.348194    25A1     0.350428  
      26A1     0.383723     4A2     0.383728    13B2     0.423995  
      13B1     0.423995    27A1     0.442686    28A1     0.559177  
       5A2     0.559187    29A1     0.566312    30A1     0.643144  
      14B2     0.654536    14B1     0.654536    31A1     0.693125  
       6A2     0.693150    32A1     0.740759    15B2     0.773378  
      15B1     0.773378    33A1     0.806268    16B2     0.860427  
      16B1     0.860427    34A1     0.998066    17B1     1.038143  
      17B2     1.038143     7A2     1.083585    35A1     1.083594  
      36A1     1.214541    18B2     1.310986    18B1     1.310986  
      19B2     1.467291    19B1     1.467291    37A1     1.511896  
      38A1     1.569854     8A2     1.569855    20B2     1.613529  
      20B1     1.613530    39A1     1.704880    40A1     1.751274  
      41A1     2.001166    21B2     2.038596    21B1     2.038596  
      42A1     2.154610    43A1     2.233445     9A2     2.287341  
      44A1     2.287349    22B2     2.316184    22B1     2.316184  
      23B1     2.384089    23B2     2.384089    45A1     2.542125  
      10A2     2.612517    46A1     2.612822    24B2     2.700582  
      24B1     2.700582    47A1     2.773115    11A2     2.773244  
      25B2     2.899657    25B1     2.899657    48A1     3.040383  
      49A1     3.174816    26B2     3.350926    26B1     3.350926  
      50A1     3.818783    12A2     3.971051    51A1     3.971107  
      52A1     3.971206    13A2     3.971234    27B2     3.976882  
      27B1     3.976882    28B2     4.089770    28B1     4.089770  
      53A1     4.122953    54A1     4.365353    29B1     4.456302  
      29B2     4.456302    14A2     4.464008    55A1     4.464038  
      30B2     4.575428    30B1     4.575428    31B1     4.808717  
      31B2     4.808717    56A1     4.917640    15A2     5.222407  
      57A1     5.222458    32B2     5.983695    32B1     5.983695  
      58A1     6.047311    16A2     6.047391    59A1     6.274766  
      33B2     6.442633    33B1     6.442633    60A1     6.835182  
      61A1    21.619676    62A1    42.056825  

    Final Occupation by Irrep:
             A1    A2    B1    B2 
    DOCC [    10,    0,    3,    3 ]
    SOCC [     1,    1,    1,    1 ]

  @DF-UKS Final Energy: -1056.96465890226500

   => Energetics <=

    Nuclear Repulsion Energy =             87.3421567944189405
    One-Electron Energy =               -1617.4005851971844550
    Two-Electron Energy =                 506.8531186966181394
    DFT Exchange-Correlation Energy =     -33.7592851961175811
    Empirical Dispersion Energy =          -0.0000640000000000
    VV10 Nonlocal Energy =                  0.0000000000000000
    Total Energy =                      -1056.9646589022650005

  UHF NO Occupations:
  HONO-2 :    1 A2 1.0000000
  HONO-1 :    4 B2 1.0000000
  HONO-0 :    4 B1 1.0000000
  LUNO+0 :   12 A1 0.0008962
  LUNO+1 :    5 B2 0.0002318
  LUNO+2 :    5 B1 0.0002318
  LUNO+3 :    6 B1 0.0000972


Computation Completed


Properties will be evaluated at   0.000000,   0.000000,   0.000000 [a0]

Properties computed using the SCF density matrix

  Nuclear Dipole Moment: [e a0]
     X:     0.0000      Y:     0.0000      Z:     4.5721

  Electronic Dipole Moment: [e a0]
     X:     0.0000      Y:     0.0000      Z:    -6.4261

  Dipole Moment: [e a0]
     X:     0.0000      Y:     0.0000      Z:    -1.8540     Total:     1.8540

  Dipole Moment: [D]
     X:     0.0000      Y:     0.0000      Z:    -4.7125     Total:     4.7125


*** tstop() called on compute318.bc4.acrc.priv at Sun Nov  7 05:09:52 2021
Module time:
	user time   =     316.69 seconds =       5.28 minutes
	system time =      14.36 seconds =       0.24 minutes
	total time  =         15 seconds =       0.25 minutes
Total time:
	user time   =     316.69 seconds =       5.28 minutes
	system time =      14.36 seconds =       0.24 minutes
	total time  =         15 seconds =       0.25 minutes

    Psi4 stopped on: Sunday, 07 November 2021 05:09AM
    Psi4 wall time for execution: 0:00:15.42

*** Psi4 exiting successfully. Buy a developer a beer!
