
    -----------------------------------------------------------------------
          Psi4: An Open-Source Ab Initio Electronic Structure Package
                               Psi4 1.4.1 release

                         Git: Rev {HEAD} cd00f19 


    D. G. A. Smith, L. A. Burns, A. C. Simmonett, R. M. Parrish,
    M. C. Schieber, R. Galvelis, P. Kraus, H. Kruse, R. Di Remigio,
    A. Alenaizan, A. M. James, S. Lehtola, J. P. Misiewicz, M. Scheurer,
    R. A. Shaw, J. B. Schriber, Y. Xie, Z. L. Glick, D. A. Sirianni,
    J. S. O'Brien, J. M. Waldrop, A. Kumar, E. G. Hohenstein,
    B. P. Pritchard, B. R. Brooks, H. F. Schaefer III, A. Yu. Sokolov,
    K. Patkowski, A. E. DePrince III, U. Bozkaya, R. A. King,
    F. A. Evangelista, J. M. Turney, T. D. Crawford, C. D. Sherrill,
    J. Chem. Phys. 152(18) 184108 (2020). https://doi.org/10.1063/5.0006002

                            Additional Code Authors
    E. T. Seidl, C. L. Janssen, E. F. Valeev, M. L. Leininger,
    J. F. Gonthier, R. M. Richard, H. R. McAlexander, M. Saitow, X. Wang,
    P. Verma, and M. H. Lechner

             Previous Authors, Complete List of Code Contributors,
                       and Citations for Specific Modules
    https://github.com/psi4/psi4/blob/master/codemeta.json
    https://github.com/psi4/psi4/graphs/contributors
    http://psicode.org/psi4manual/master/introduction.html#citing-psifour

    -----------------------------------------------------------------------


    Psi4 started on: Sunday, 07 November 2021 05:09AM

    Process ID: 28151
    Host:       compute361.bc4.acrc.priv
    PSIDATADIR: /mnt/storage/home/zw18965/.conda/envs/p4env/share/psi4
    Memory:     500.0 MiB
    Threads:    28
    
  ==> Input File <==

--------------------------------------------------------------------------
memory 120 GB

molecule {
0 3
Zr         0.00000        0.00000        0.00000
Zr         0.00000        0.00000        2.24000
 }

set reference uks
set dynamic_level 1
set basis Def2-TZVPPD

energy("MN15-D3BJ")
--------------------------------------------------------------------------

  Memory set to 111.759 GiB by Python driver.

Scratch directory: /tmp/

*** tstart() called on compute361.bc4.acrc.priv
*** at Sun Nov  7 05:09:21 2021

   => Loading Basis Set <=

    Name: DEF2-TZVPPD
    Role: ORBITAL
    Keyword: BASIS
    atoms 1-2 entry ZR         line  1892 (ECP: line  3478) file /mnt/storage/home/zw18965/.conda/envs/p4env/share/psi4/basis/def2-tzvppd.gbs 

    !!!  WARNING: ECP capability is in beta. Please check occupations closely.  !!!

   => MN15-D3(BJ): Empirical Dispersion <=

    Grimme's -D3 (BJ-damping) Dispersion Correction
    Grimme S.; Ehrlich S.; Goerigk L. (2011), J. Comput. Chem., 32: 1456
    Parametrisation from:    L. Goerigk, A. Hansen, C. Bauer, S. Ehrlich, A. Najibi, S. Grimme, Phys. Chem. Chem. Phys. 19, 32184-32215, 2017

        s6 =       1.000000
        s8 =       2.097100
        a1 =       0.786200
        a2 =       7.592300


         ---------------------------------------------------------
                                   SCF
               by Justin Turney, Rob Parrish, Andy Simmonett
                          and Daniel G. A. Smith
                              UKS Reference
                       28 Threads, 114440 MiB Core
         ---------------------------------------------------------

  ==> Geometry <==

    Molecular point group: d2h
    Full point group: D_inf_h

    Geometry (in Angstrom), charge = 0, multiplicity = 3:

       Center              X                  Y                   Z               Mass       
    ------------   -----------------  -----------------  -----------------  -----------------
         ZR           0.000000000000     0.000000000000    -1.120000000000    89.904697700000
         ZR           0.000000000000     0.000000000000     1.120000000000    89.904697700000

  Running in d2h symmetry.

  Rotational constants: A = ************  B =      0.07474  C =      0.07474 [cm^-1]
  Rotational constants: A = ************  B =   2240.62292  C =   2240.62292 [MHz]
  Nuclear repulsion =   34.018534971642843

  Charge       = 0
  Multiplicity = 3
  Electrons    = 24
  Nalpha       = 13
  Nbeta        = 11

  ==> Algorithm <==

  SCF Algorithm Type is DF.
  DIIS enabled.
  MOM disabled.
  Fractional occupation disabled.
  Guess Type is SAD.
  Energy threshold   = 1.00e-06
  Density threshold  = 1.00e-06
  Integral threshold = 1.00e-12

  ==> Primary Basis <==

  Basis Set: DEF2-TZVPPD
    Blend: DEF2-TZVPPD
    Number of shells: 32
    Number of basis functions: 112
    Number of Cartesian functions: 142
    Spherical Harmonics?: true
    Max angular momentum: 4

  Core potential: DEF2-TZVPPD
    Number of shells: 8
    Number of ECP primitives: 28
    Number of ECP core electrons: 56
    Max angular momentum: 3

  ==> DFT Potential <==

   => Composite Functional: MN15-D3BJ <= 

   MN15 Hybrid Meta-GGA Exchange-Correlation Functional

    H. S. Yu, X. He, S. L. Li, and D. G. Truhlar, Chem. Sci. 7, 5032-5051, 2016


    Deriv               =              1
    GGA                 =           TRUE
    Meta                =           TRUE

    Exchange Hybrid     =           TRUE
    MP2 Hybrid          =          FALSE

   => Exchange Functionals <=

    1.0000   XC_HYB_MGGA_X_MN15

   => Exact (HF) Exchange <=

    0.4400               HF 

   => Correlation Functionals <=

    1.0000   XC_MGGA_C_MN15

   => LibXC Density Thresholds  <==

    XC_MGGA_C_MN15:  1.00E-15 
    XC_HYB_MGGA_X_MN15:  1.00E-15 

   => Molecular Quadrature <=

    Radial Scheme          =       TREUTLER
    Pruning Scheme         =           NONE
    Nuclear Scheme         =       TREUTLER

    BS radius alpha        =              1
    Pruning alpha          =              1
    Radial Points          =             75
    Spherical Points       =            302
    Total Points           =          42990
    Total Blocks           =            436
    Max Points             =            255
    Max Functions          =            111
    Weights Tolerance      =       1.00E-15

   => Loading Basis Set <=

    Name: (DEF2-TZVPPD AUX)
    Role: JKFIT
    Keyword: DF_BASIS_SCF
    atoms 1-2 entry ZR         line  3622 file /mnt/storage/home/zw18965/.conda/envs/p4env/share/psi4/basis/def2-universal-jkfit.gbs 

  ==> Integral Setup <==

  DFHelper Memory: AOs need 0.056 GiB; user supplied 83.508 GiB. Using in-core AOs.

  ==> MemDFJK: Density-Fitted J/K Matrices <==

    J tasked:                   Yes
    K tasked:                   Yes
    wK tasked:                   No
    OpenMP threads:              28
    Memory [MiB]:             85512
    Algorithm:                 Core
    Schwarz Cutoff:           1E-12
    Mask sparsity (%):       0.0638
    Fitting Condition:        1E-10

   => Auxiliary Basis Set <=

  Basis Set: (DEF2-TZVPPD AUX)
    Blend: DEF2-UNIVERSAL-JKFIT
    Number of shells: 98
    Number of basis functions: 510
    Number of Cartesian functions: 768
    Spherical Harmonics?: true
    Max angular momentum: 6

  Cached 100.0% of DFT collocation blocks in 0.311 [GiB].

  Minimum eigenvalue in the overlap matrix is 2.7957454173E-04.
  Reciprocal condition number of the overlap matrix is 5.8617086553E-05.
    Using symmetric orthogonalization.

  ==> Pre-Iterations <==

  SCF Guess: Superposition of Atomic Densities via on-the-fly atomic UHF (no occupation information).

   -------------------------
    Irrep   Nso     Nmo    
   -------------------------
     Ag        23      23 
     B1g        7       7 
     B2g       13      13 
     B3g       13      13 
     Au         7       7 
     B1u       23      23 
     B2u       13      13 
     B3u       13      13 
   -------------------------
    Total     112     112
   -------------------------

  ==> Iterations <==

                           Total Energy        Delta E     RMS |[F,P]|

   @DF-UKS iter SAD:   -93.86709366584020   -9.38671e+01   0.00000e+00 
    Occupation by irrep:
             Ag   B1g   B2g   B3g    Au   B1u   B2u   B3u 
    DOCC [     3,    0,    1,    1,    0,    3,    2,    1 ]
    SOCC [     2,    0,    0,    0,    0,    0,    0,    0 ]

   @DF-UKS iter   1:   -93.48966521772715    3.77428e-01   1.51618e-02 DIIS
    Occupation by irrep:
             Ag   B1g   B2g   B3g    Au   B1u   B2u   B3u 
    DOCC [     3,    0,    1,    1,    0,    2,    2,    2 ]
    SOCC [     2,    0,    0,    0,    0,    0,    0,    0 ]

   @DF-UKS iter   2:   -92.78926778670171    7.00397e-01   2.64524e-02 DIIS
   @DF-UKS iter   3:   -93.71451766029836   -9.25250e-01   3.43301e-03 DIIS
   @DF-UKS iter   4:   -93.73578132104004   -2.12637e-02   3.94607e-04 DIIS
   @DF-UKS iter   5:   -93.73631179040862   -5.30469e-04   1.61280e-04 DIIS
   @DF-UKS iter   6:   -93.73641822128488   -1.06431e-04   6.66662e-05 DIIS
   @DF-UKS iter   7:   -93.73644755299233   -2.93317e-05   2.68963e-05 DIIS
   @DF-UKS iter   8:   -93.73645928004538   -1.17271e-05   1.14501e-05 DIIS
   @DF-UKS iter   9:   -93.73646163598474   -2.35594e-06   2.41625e-06 DIIS
   @DF-UKS iter  10:   -93.73646172559637   -8.96116e-08   6.24880e-07 DIIS
  Energy and wave function converged.


  ==> Post-Iterations <==

   Electrons on quadrature grid:
      Nalpha   =   13.0000006344 ; deviation = 6.344e-07
      Nbeta    =   11.0000015947 ; deviation = 1.595e-06
      Ntotal   =   24.0000022290 ; deviation = 2.229e-06 

   @Spin Contamination Metric:   3.592145848E-03
   @S^2 Expected:                2.000000000E+00
   @S^2 Observed:                2.003592146E+00
   @S   Expected:                1.000000000E+00
   @S   Observed:                1.000000000E+00

    Orbital Energies [Eh]
    ---------------------

    Alpha Occupied:                                                       

       1Ag    -2.105152     1B1u   -2.074382     2Ag    -1.299612  
       1B3u   -1.245142     1B2u   -1.245140     1B2g   -1.219796  
       1B3g   -1.219794     2B1u   -1.159478     2B3u   -0.198543  
       2B2u   -0.198541     3Ag    -0.198151     4Ag    -0.176814  
       5Ag    -0.150735  

    Alpha Virtual:                                                        

       3B1u   -0.074487     1B1g   -0.039131     3B3u   -0.029139  
       3B2u   -0.029137     4B1u   -0.004621     2B2g    0.002098  
       2B3g    0.002099     5B1u    0.022109     1Au     0.028709  
       6Ag     0.038455     6B1u    0.089837     7Ag     0.097660  
       3B2g    0.104360     3B3g    0.104360     4B3u    0.153258  
       4B2u    0.153260     8Ag     0.166783     7B1u    0.174017  
       9Ag     0.177723     2B1g    0.180156     5B3u    0.199448  
       5B2u    0.199450     8B1u    0.221072     4B2g    0.224488  
       4B3g    0.224491     2Au     0.230729     9B1u    0.269784  
      10Ag     0.273593     5B2g    0.281771     5B3g    0.281773  
       6B2u    0.455283     6B3u    0.455284    11Ag     0.469209  
       3B1g    0.477745    10B1u    0.538855     6B3g    0.566216  
       6B2g    0.566216    12Ag     0.611553     7B3u    0.622382  
       7B2u    0.622385    11B1u    0.696613    12B1u    0.705990  
       7B2g    0.709881     7B3g    0.709883     3Au     0.718971  
      13Ag     0.857461     8B3u    0.860159     8B2u    0.860161  
       4B1g    0.867201    14Ag     0.888446     8B2g    0.903880  
       8B3g    0.903882    13B1u    0.929268     4Au     0.944763  
       9B3u    0.996324     9B2u    0.996327    15Ag     1.000961  
      14B1u    1.046295    10B2u    1.104482    10B3u    1.104482  
       5B1g    1.131895    15B1u    1.144494    16Ag     1.146206  
      17Ag     1.187897     6B1g    1.208267     9B2g    1.231416  
       9B3g    1.231420     5Au     1.233932    16B1u    1.247847  
      11B3u    1.311667    11B2u    1.311670    18Ag     1.333678  
      10B3g    1.418460    10B2g    1.418460    19Ag     1.492670  
      12B2u    1.586947    12B3u    1.586947    11B2g    1.628839  
      11B3g    1.628840    20Ag     1.655463    12B2g    1.660691  
      12B3g    1.660692     7B1g    1.668382    17B1u    1.672292  
      18B1u    1.673684     6Au     1.681120    19B1u    1.728190  
      20B1u    1.756017     7Au     1.757023    13B3u    1.911207  
      13B2u    1.911210    21Ag     2.032592    13B2g    2.175281  
      13B3g    2.175283    21B1u    2.642944    22Ag    19.957897  
      22B1u   20.219335    23Ag    72.495240    23B1u   72.587265  

    Beta Occupied:                                                        

       1Ag    -2.087469     1B1u   -2.058007     2Ag    -1.270981  
       1B2u   -1.228650     1B3u   -1.228650     1B3g   -1.205637  
       1B2g   -1.205636     2B1u   -1.139497     3Ag    -0.190486  
       2B3u   -0.182478     2B2u   -0.182478  

    Beta Virtual:                                                         

       3B1u   -0.066364     4Ag    -0.037206     1B1g   -0.035967  
       3B2u   -0.026319     3B3u   -0.026317     5Ag    -0.023827  
       2B3g    0.003245     2B2g    0.003246     1Au     0.028657  
       4B1u    0.041694     5B1u    0.057664     6Ag     0.063784  
       7Ag     0.104844     6B1u    0.105869     3B3g    0.110964  
       3B2g    0.110964     4B2u    0.157989     4B3u    0.157990  
       7B1u    0.182287     2B1g    0.183196     8Ag     0.185906  
       9Ag     0.193201     5B3u    0.208026     5B2u    0.208026  
       2Au     0.232848     4B3g    0.236446     4B2g    0.236447  
       8B1u    0.243041     9B1u    0.292573    10Ag     0.292578  
       5B3g    0.294431     5B2g    0.294433     3B1g    0.477248  
       6B2u    0.481822     6B3u    0.481823    11Ag     0.485579  
      10B1u    0.558256     6B3g    0.593145     6B2g    0.593146  
       7B2u    0.652890     7B3u    0.652893    12Ag     0.655670  
       3Au     0.714177    11B1u    0.722107    12B1u    0.725938  
       7B3g    0.734002     7B2g    0.734004     4B1g    0.867743  
       8B2u    0.870992     8B3u    0.870993    13Ag     0.876130  
      14Ag     0.919880     8B3g    0.926115     8B2g    0.926116  
       4Au     0.947729    13B1u    0.968691     9B2u    1.011777  
       9B3u    1.011778    15Ag     1.017743    14B1u    1.061230  
      10B2u    1.114986    10B3u    1.114986    16Ag     1.175150  
      15B1u    1.175392     5B1g    1.179051     6B1g    1.220655  
      17Ag     1.237291     9B3g    1.251048     9B2g    1.251050  
      16B1u    1.281172     5Au     1.284692    11B2u    1.348562  
      11B3u    1.348563    18Ag     1.382513    10B3g    1.435473  
      10B2g    1.435474    19Ag     1.535254    12B2u    1.613497  
      12B3u    1.613497    11B2g    1.656503    11B3g    1.656503  
       7B1g    1.668020    20Ag     1.679931     6Au     1.680875  
      17B1u    1.690775    12B3g    1.696162    12B2g    1.696164  
      18B1u    1.696773     7Au     1.767372    19B1u    1.791326  
      20B1u    1.801075    13B2u    1.942006    13B3u    1.942010  
      21Ag     2.051335    13B3g    2.199528    13B2g    2.199529  
      21B1u    2.675322    22Ag    19.910265    22B1u   20.173137  
      23Ag    72.488225    23B1u   72.580336  

    Final Occupation by Irrep:
             Ag   B1g   B2g   B3g    Au   B1u   B2u   B3u 
    DOCC [     3,    0,    1,    1,    0,    2,    2,    2 ]
    SOCC [     2,    0,    0,    0,    0,    0,    0,    0 ]

  @DF-UKS Final Energy:   -93.73646172559637

   => Energetics <=

    Nuclear Repulsion Energy =             34.0185349716428433
    One-Electron Energy =                -225.0284850316024290
    Two-Electron Energy =                 104.2175353298952558
    DFT Exchange-Correlation Energy =      -6.9439825955320273
    Empirical Dispersion Energy =          -0.0000644000000000
    VV10 Nonlocal Energy =                  0.0000000000000000
    Total Energy =                        -93.7364617255963566

  UHF NO Occupations:
  HONO-2 :    3 Ag 1.9993810
  HONO-1 :    4 Ag 1.0000000
  HONO-0 :    5 Ag 1.0000000
  LUNO+0 :    6 Ag 0.0006190
  LUNO+1 :    3B3u 0.0004316
  LUNO+2 :    3B2u 0.0004315
  LUNO+3 :    3B1u 0.0001292


Computation Completed


Properties will be evaluated at   0.000000,   0.000000,   0.000000 [a0]

Properties computed using the SCF density matrix

  Nuclear Dipole Moment: [e a0]
     X:     0.0000      Y:     0.0000      Z:     0.0000

  Electronic Dipole Moment: [e a0]
     X:     0.0000      Y:     0.0000      Z:     0.0000

  Dipole Moment: [e a0]
     X:     0.0000      Y:     0.0000      Z:     0.0000     Total:     0.0000

  Dipole Moment: [D]
     X:     0.0000      Y:     0.0000      Z:     0.0000     Total:     0.0000


*** tstop() called on compute361.bc4.acrc.priv at Sun Nov  7 05:09:35 2021
Module time:
	user time   =     210.80 seconds =       3.51 minutes
	system time =       8.28 seconds =       0.14 minutes
	total time  =         14 seconds =       0.23 minutes
Total time:
	user time   =     210.80 seconds =       3.51 minutes
	system time =       8.28 seconds =       0.14 minutes
	total time  =         14 seconds =       0.23 minutes

    Psi4 stopped on: Sunday, 07 November 2021 05:09AM
    Psi4 wall time for execution: 0:00:14.01

*** Psi4 exiting successfully. Buy a developer a beer!
