
                                 *****************
                                 * O   R   C   A *
                                 *****************

           --- An Ab Initio, DFT and Semiempirical electronic structure package ---

                  #######################################################
                  #                        -***-                        #
                  #          Department of theory and spectroscopy      #
                  #               Directorship: Frank Neese             #
                  #        Max Planck Institute fuer Kohlenforschung    #
                  #                Kaiser Wilhelm Platz 1               #
                  #                 D-45470 Muelheim/Ruhr               #
                  #                      Germany                        #
                  #                                                     #
                  #                  All rights reserved                #
                  #                        -***-                        #
                  #######################################################


                         Program Version 4.2.0 -  RELEASE  -


 With contributions from (in alphabetic order):
   Daniel Aravena         : Magnetic Suceptibility
   Michael Atanasov       : Ab Initio Ligand Field Theory (pilot matlab implementation)
   Alexander A. Auer      : GIAO ZORA, VPT2
   Ute Becker             : Parallelization
   Giovanni Bistoni       : ED, misc. LED, open-shell LED, HFLED
   Martin Brehm           : Molecular dynamics
   Dmytro Bykov           : SCF Hessian
   Vijay G. Chilkuri      : MRCI spin determinant printing, contributions to CSF-ICE
   Dipayan Datta          : RHF DLPNO-CCSD density
   Achintya Kumar Dutta   : EOM-CC, STEOM-CC
   Dmitry Ganyushin       : Spin-Orbit,Spin-Spin,Magnetic field MRCI
   Miquel Garcia          : C-PCM Hessian, Gaussian charge scheme
   Yang Guo               : DLPNO-NEVPT2, CIM, IAO-localization
   Andreas Hansen         : Spin unrestricted coupled pair/coupled cluster methods
   Benjamin Helmich-Paris : CASSCF linear response (MC-RPA)
   Lee Huntington         : MR-EOM, pCC
   Robert Izsak           : Overlap fitted RIJCOSX, COSX-SCS-MP3, EOM
   Christian Kollmar      : KDIIS, OOCD, Brueckner-CCSD(T), CCSD density
   Simone Kossmann        : Meta GGA functionals, TD-DFT gradient, OOMP2, MP2 Hessian
   Martin Krupicka        : AUTO-CI
   Lucas Lang             : DCDCAS
   Dagmar Lenk            : GEPOL surface, SMD
   Dimitrios Liakos       : Extrapolation schemes; Compound Job, initial MDCI parallelization
   Dimitrios Manganas     : Further ROCIS development; embedding schemes
   Dimitrios Pantazis     : SARC Basis sets
   Taras Petrenko         : DFT Hessian,TD-DFT gradient, ASA, ECA, R-Raman, ABS, FL, XAS/XES, NRVS
   Peter Pinski           : DLPNO-MP2, DLPNO-MP2 Gradient
   Christoph Reimann      : Effective Core Potentials
   Marius Retegan         : Local ZFS, SOC
   Christoph Riplinger    : Optimizer, TS searches, QM/MM, DLPNO-CCSD(T), (RO)-DLPNO pert. Triples
   Tobias Risthaus        : Range-separated hybrids, TD-DFT gradient, RPA, STAB
   Michael Roemelt        : Original ROCIS implementation
   Masaaki Saitow         : Open-shell DLPNO-CCSD energy and density
   Barbara Sandhoefer     : DKH picture change effects
   Avijit Sen             : IP-ROCIS
   Kantharuban Sivalingam : CASSCF convergence, NEVPT2, FIC-MRCI
   Bernardo de Souza      : ESD, SOC TD-DFT
   Georgi Stoychev        : AutoAux, RI-MP2 NMR
   Willem Van den Heuvel  : Paramagnetic NMR
   Boris Wezisla          : Elementary symmetry handling
   Frank Wennmohs         : Technical directorship


 We gratefully acknowledge several colleagues who have allowed us to
 interface, adapt or use parts of their codes:
   Stefan Grimme, W. Hujo, H. Kruse,             : VdW corrections, initial TS optimization,
                  C. Bannwarth                     DFT functionals, gCP, sTDA/sTD-DF
   Ed Valeev, F. Pavosevic, A. Kumar             : LibInt (2-el integral package), F12 methods
   Garnet Chan, S. Sharma, J. Yang, R. Olivares  : DMRG
   Ulf Ekstrom                                   : XCFun DFT Library
   Mihaly Kallay                                 : mrcc  (arbitrary order and MRCC methods)
   Andreas Klamt, Michael Diedenhofen            : otool_cosmo (COSMO solvation model)
   Jiri Pittner, Ondrej Demel                    : Mk-CCSD
   Frank Weinhold                                : gennbo (NPA and NBO analysis)
   Christopher J. Cramer and Donald G. Truhlar   : smd solvation model
   Lars Goerigk                                  : TD-DFT with DH, B97 family of functionals
   V. Asgeirsson, H. Jonsson                     : NEB implementation
   FAccTs GmbH                                   : IRC, NEB, NEB-TS, Multilevel, MM, QM/MM, CI optimization
   S Lehtola, MJT Oliveira, MAL Marques          : LibXC Library


 Your calculation uses the libint2 library for the computation of 2-el integrals
 For citations please refer to: http://libint.valeyev.net

 Your ORCA version has been built with support for libXC version: 4.2.3
 For citations please refer to: https://tddft.org/programs/libxc/

 This ORCA versions uses:
   CBLAS   interface :  Fast vector & matrix operations
   LAPACKE interface :  Fast linear algebra routines
   SCALAPACK package :  Parallel linear algebra routines


Your calculation utilizes the DFT-NL dispersion correction.
Cite in your paper:
Vydrov, O. A.; Van Voorhis, T. J. Chem. Phys. 2010, 133, 244103
Hujo, W.; Grimme, S. J. Chem. Theory Comput. 2011, 7, 3866 
   

----- Orbital basis set information -----
Your calculation utilizes the basis: def2-TZVPPD
   F. Weigend and R. Ahlrichs, Phys. Chem. Chem. Phys. 7, 3297 (2005).
   D. Rappoport and F. Furche, J. Chem. Phys. 133 134105 (2010).

----- AuxJK basis set information -----
Your calculation utilizes the auxiliary basis: def2/JK
   H-Ba, Hf-Rn: F. Weigend, J. Comput. Chem. 29, 167 (2008).

================================================================================
                                        WARNINGS
                       Please study these warnings very carefully!
================================================================================

INFO   : Found keyword 'NumGrad' for Energy calculation
  ===> : Setting RunTyp to EnGrad

WARNING: Numerical Gradient with sloppy Convergence Criteria    
         Your results may be not reliable!                      
         Please choose at least TightSCF!                       

WARNING: your system is open-shell and RHF/RKS was chosen
  ===> : WILL SWITCH to UHF/UKS


INFO   : the flag for use of LIBINT has been found!

================================================================================
                                       INPUT FILE
================================================================================
NAME = b2.in
|  1> #
|  2> # b2 wB97X-V/Def2-TZVPPD
|  3> #
|  4> ! wb97x-v def2-tzvppd def2/jk grid4 nofinalgrid numgrad
|  5> 
|  6> *xyz 0 3
|  7> B          0.00000        0.00000        0.80705
|  8> B          0.00000        0.00000       -0.80705
|  9> *
| 10> 
| 11> %maxcore 5000
| 12> 
| 13> %pal
| 14> nprocs = 28
| 15> end
| 16> 
| 17> 
| 18>                          ****END OF INPUT****
================================================================================

                     *******************************
                     * Energy+Gradient Calculation *
                     *******************************

---------------------------------
CARTESIAN COORDINATES (ANGSTROEM)
---------------------------------
  B      0.000000    0.000000    0.807050
  B      0.000000    0.000000   -0.807050

----------------------------
CARTESIAN COORDINATES (A.U.)
----------------------------
  NO LB      ZA    FRAG     MASS         X           Y           Z
   0 B     5.0000    0    10.810    0.000000    0.000000    1.525103
   1 B     5.0000    0    10.810    0.000000    0.000000   -1.525103

--------------------------------
INTERNAL COORDINATES (ANGSTROEM)
--------------------------------
 B      0   0   0     0.000000000000     0.00000000     0.00000000
 B      1   0   0     1.614100000000     0.00000000     0.00000000

---------------------------
INTERNAL COORDINATES (A.U.)
---------------------------
 B      0   0   0     0.000000000000     0.00000000     0.00000000
 B      1   0   0     3.050206952762     0.00000000     0.00000000

---------------------
BASIS SET INFORMATION
---------------------
There are 1 groups of distinct atoms

 Group   1 Type B   : 12s6p3d1f contracted to 6s3p3d1f pattern {621111/411/111/1}

Atom   0B    basis set group =>   1
Atom   1B    basis set group =>   1
----------------------------------
AUXILIARY/JK BASIS SET INFORMATION
----------------------------------
There are 1 groups of distinct atoms

 Group   1 Type B   : 14s10p6d2f1g contracted to 10s8p5d1f1g pattern {5111111111/31111111/21111/2/1}

Atom   0B    basis set group =>   1
Atom   1B    basis set group =>   1


           ************************************************************
           *        Program running with 28 parallel MPI-processes    *
           *              working on a common directory               *
           ************************************************************
------------------------------------------------------------------------------
                           ORCA GTO INTEGRAL CALCULATION
------------------------------------------------------------------------------

                         BASIS SET STATISTICS AND STARTUP INFO

 # of primitive gaussian shells          ...   44
 # of primitive gaussian functions       ...  104
 # of contracted shells                  ...   26
 # of contracted basis functions         ...   74
 Highest angular momentum                ...    3
 Maximum contraction depth               ...    6
 Integral package used                   ... LIBINT
 Integral threshhold            Thresh   ...  1.000e-10
 Primitive cut-off              TCut     ...  1.000e-11


------------------------------ INTEGRAL EVALUATION ----------------------------


 * One electron integrals 
 Pre-screening matrix                    ... done
 Shell pair data                         ... done (   0.000 sec)



           ************************************************************
           *        Program running with 28 parallel MPI-processes    *
           *              working on a common directory               *
           ************************************************************
-------------------------------------------------------------------------------
                                 ORCA SCF
-------------------------------------------------------------------------------

------------
SCF SETTINGS
------------
Hamiltonian:
 Density Functional     Method          .... DFT(GTOs)
 Exchange Functional    Exchange        .... WB97X-V
 Correlation Functional Correlation     .... WB97X-V
 Gradients option       PostSCFGGA      .... off
 Hybrid DFT is turned on
   Fraction HF Exchange ScalHFX         ....  0.167000
   Scaling of DF-GGA-X  ScalDFX         ....  0.000000
   Scaling of DF-GGA-C  ScalDFC         ....  1.000000
   Scaling of DF-LDA-C  ScalLDAC        ....  1.000000
   Perturbative correction              ....  0.000000
   Density functional embedding theory  .... OFF
 Long-range corrected/Screened/Range-Separated Hybrid DFT is turned on
   Amount of maximum screened exact exchange              ....  0.833000
   Range separation parameter mu (erf(mu*r12)/r12)        ....  0.300000
   NL short-range parameter             ....  6.000000
   NL long-range parameter              ....  0.010000


General Settings:
 Integral files         IntName         .... b2
 Hartree-Fock type      HFTyp           .... UHF
 Total Charge           Charge          ....    0
 Multiplicity           Mult            ....    3
 Number of Electrons    NEL             ....   10
 Basis Dimension        Dim             ....   74
 Nuclear Repulsion      ENuc            ....      8.1961651741 Eh

Convergence Acceleration:
 DIIS                   CNVDIIS         .... on
   Start iteration      DIISMaxIt       ....    12
   Startup error        DIISStart       ....  0.200000
   # of expansion vecs  DIISMaxEq       ....     5
   Bias factor          DIISBfac        ....   1.050
   Max. coefficient     DIISMaxC        ....  10.000
 Newton-Raphson         CNVNR           .... off
 SOSCF                  CNVSOSCF        .... off
 Level Shifting         CNVShift        .... on
   Level shift para.    LevelShift      ....    0.2500
   Turn off err/grad.   ShiftErr        ....    0.0010
 Zerner damping         CNVZerner       .... off
 Static damping         CNVDamp         .... on
   Fraction old density DampFac         ....    0.7000
   Max. Damping (<1)    DampMax         ....    0.9800
   Min. Damping (>=0)   DampMin         ....    0.0000
   Turn off err/grad.   DampErr         ....    0.1000
 Fernandez-Rico         CNVRico         .... off

SCF Procedure:
 Maximum # iterations   MaxIter         ....   125
 SCF integral mode      SCFMode         .... Direct
   Integral package                     .... LIBINT
 Reset frequency        DirectResetFreq ....    20
 Integral Threshold     Thresh          ....  1.000e-10 Eh
 Primitive CutOff       TCut            ....  1.000e-11 Eh

Convergence Tolerance:
 Convergence Check Mode ConvCheckMode   .... Total+1el-Energy
 Convergence forced     ConvForced      .... 0
 Energy Change          TolE            ....  1.000e-06 Eh
 1-El. energy change                    ....  1.000e-03 Eh
 DIIS Error             TolErr          ....  1.000e-06


Diagonalization of the overlap matrix:
Smallest eigenvalue                        ... 1.449e-05
Time for diagonalization                   ...    0.002 sec
Threshold for overlap eigenvalues          ... 1.000e-08
Number of eigenvalues below threshold      ... 0
Time for construction of square roots      ...    0.068 sec
Total time needed                          ...    0.069 sec

-------------------
DFT GRID GENERATION
-------------------

General Integration Accuracy     IntAcc      ...  4.670
Radial Grid Type                 RadialGrid  ... Gauss-Chebyshev
Angular Grid (max. acc.)         AngularGrid ... Lebedev-302
Angular grid pruning method      GridPruning ... 3 (G Style)
Weight generation scheme         WeightScheme... Becke
Basis function cutoff            BFCut       ...    1.0000e-10
Integration weight cutoff        WCut        ...    1.0000e-14
Grids for H and He will be reduced by one unit

# of grid points (after initial pruning)     ...  12256 (   0.0 sec)
# of grid points (after weights+screening)   ...  12226 (   0.0 sec)
nearest neighbour list constructed           ...    0.0 sec
Grid point re-assignment to atoms done       ...    0.0 sec
Grid point division into batches done        ...    0.1 sec
Reduced shell lists constructed in    0.1 sec

Total number of grid points                  ...    12226
Total number of batches                      ...      192
Average number of points per batch           ...       63
Average number of grid points per atom       ...     6113
Average number of shells per batch           ...     6.50 (25.00%)
Average number of basis functions per batch  ...    16.25 (21.96%)
Average number of large shells per batch     ...     5.25 (80.77%)
Average number of large basis fcns per batch ...    14.25 (87.69%)
Maximum spatial batch extension              ...  28.80, 28.80, 15.72 au
Average spatial batch extension              ...   0.81,  0.73,  0.49 au

Time for grid setup =    0.696 sec

------------------------------
INITIAL GUESS: MODEL POTENTIAL
------------------------------
Loading Hartree-Fock densities                     ... done
Calculating cut-offs                               ... done
Setting up the integral package                    ... done
Initializing the effective Hamiltonian             ... done
Starting the Coulomb interaction                   ... done (   0.0 sec)
Reading the grid                                   ... done
Mapping shells                                     ... done
Starting the XC term evaluation                    ... done (   0.0 sec)
  promolecular density results
     # of electrons  =      9.999996822
     EX              =     -4.933541999
     EC              =     -0.351214889
     EX+EC           =     -5.284756888
Transforming the Hamiltonian                       ... done (   0.0 sec)
Diagonalizing the Hamiltonian                      ... done (   0.0 sec)
Back transforming the eigenvectors                 ... done (   0.0 sec)
Now organizing SCF variables                       ... done
                      ------------------
                      INITIAL GUESS DONE (   0.8 sec)
                      ------------------
--------------
SCF ITERATIONS
--------------
ITER       Energy         Delta-E        Max-DP      RMS-DP      [F,P]     Damp
               ***  Starting incremental Fock matrix formation  ***
  0    -49.3932108152   0.000000000000 0.02637953  0.00114617  0.2210485 0.7000
  1    -49.4019626870  -0.008751871829 0.01920347  0.00089872  0.1496986 0.7000
                               ***Turning on DIIS***
  2    -49.4089205881  -0.006957901096 0.01263620  0.00064229  0.1002006 0.7000
  3    -49.4141372077  -0.005216619545 0.02461837  0.00158219  0.0669587 0.0000
  4    -49.4282174748  -0.014080267149 0.01078962  0.00048445  0.0117035 0.0000
  5    -49.4287402976  -0.000522822793 0.00720187  0.00023686  0.0051023 0.0000
  6    -49.4288884425  -0.000148144924 0.00192490  0.00007573  0.0017853 0.0000
  7    -49.4289084347  -0.000019992184 0.00107439  0.00004419  0.0005607 0.0000
  8    -49.4289112518  -0.000002817146 0.00021476  0.00000687  0.0000311 0.0000
                 **** Energy Check signals convergence ****

               *****************************************************
               *                     SUCCESS                       *
               *           SCF CONVERGED AFTER   9 CYCLES          *
               *****************************************************


Setting up the DFT-NL grid :

General Integration Accuracy     IntAcc      ...  4.340
Radial Grid Type                 RadialGrid  ... Gauss-Chebyshev
Angular Grid (max. acc.)         AngularGrid ... Lebedev-110
Angular grid pruning method      GridPruning ... 3 (G Style)
Weight generation scheme         WeightScheme... Becke
Basis function cutoff            BFCut       ...    1.0000e-10
Integration weight cutoff        WCut        ...    1.0000e-14
Grids for H and He will be reduced by one unit

# of grid points (after initial pruning)     ...   3356 (   0.0 sec)
# of grid points (after weights+screening)   ...   3330 (   0.0 sec)
nearest neighbour list constructed           ...    0.0 sec
Grid point re-assignment to atoms done       ...    0.0 sec
Grid point division into batches done        ...    0.0 sec
Reduced shell lists constructed in    0.0 sec

Total number of grid points                  ...     3330
Total number of batches                      ...       54
Average number of points per batch           ...       61
Average number of grid points per atom       ...     1665
Average number of shells per batch           ...    12.00 (46.15%)
Average number of basis functions per batch  ...    36.00 (48.65%)
Average number of large shells per batch     ...     9.33 (77.78%)
Average number of large basis fcns per batch ...    25.33 (70.37%)
Maximum spatial batch extension              ...  19.75, 37.06, 19.43 au
Average spatial batch extension              ...   0.73,  1.37,  0.72 au

Final grid set up in    2.1 sec

-------------------------------------------------------------------------------
                         DFT-NL dispersion correction                          
-------------------------------------------------------------------------------

SC Energy -49.428911455 
NL    Energy 0.041986551 
SC+NL Energy -49.386924904 
NL done in    1.3 sec
-------------------------------------------------------------------------------

----------------
TOTAL SCF ENERGY
----------------

Total Energy       :          -49.38692490 Eh           -1343.88655 eV

Components:
Nuclear Repulsion  :            8.19616517 Eh             223.02899 eV
Electronic Energy  :          -57.58309008 Eh           -1566.91554 eV
One Electron Energy:          -81.08813364 Eh           -2206.52029 eV
Two Electron Energy:           23.50504356 Eh             639.60475 eV

Virial components:
Potential Energy   :          -98.67611808 Eh           -2685.11368 eV
Kinetic Energy     :           49.28919318 Eh            1341.22713 eV
Virial Ratio       :            2.00198282


DFT components:
N(Alpha)           :        5.999998362317 electrons
N(Beta)            :        3.999998280293 electrons
N(Total)           :        9.999996642610 electrons
E(X)               :       -5.044108989257 Eh       
E(C)               :       -0.339133768876 Eh       
NL Energy, E(C,NL) :        0.041986551366 Eh       
E(XC)              :       -5.341256206767 Eh       
DFET-embed. en.    :        0.000000000000 Eh       

---------------
SCF CONVERGENCE
---------------

  Last Energy change         ...   -2.0341e-07  Tolerance :   1.0000e-06
  Last MAX-Density change    ...    7.5224e-05  Tolerance :   1.0000e-05
  Last RMS-Density change    ...    2.0144e-06  Tolerance :   1.0000e-06
  Last DIIS Error            ...    1.1215e-05  Tolerance :   1.0000e-06

             **** THE GBW FILE WAS UPDATED (b2.gbw) ****
             **** DENSITY FILE WAS UPDATED (b2.scfp) ****
             **** ENERGY FILE WAS UPDATED (b2.en.tmp) ****
----------------------
UHF SPIN CONTAMINATION
----------------------

Warning: in a DFT calculation there is little theoretical justification to 
         calculate <S**2> as in Hartree-Fock theory. We will do it anyways
         but you should keep in mind that the values have only limited relevance

Expectation value of <S**2>     :     2.003305
Ideal value S*(S+1) for S=1.0   :     2.000000
Deviation                       :     0.003305

             **** THE GBW FILE WAS UPDATED (b2.gbw) ****
             **** DENSITY FILE WAS UPDATED (b2.scfp) ****
----------------
ORBITAL ENERGIES
----------------
                 SPIN UP ORBITALS
  NO   OCC          E(Eh)            E(eV) 
   0   1.0000      -6.949991      -189.1189 
   1   1.0000      -6.949270      -189.0993 
   2   1.0000      -0.686165       -18.6715 
   3   1.0000      -0.389989       -10.6122 
   4   1.0000      -0.344250        -9.3675 
   5   1.0000      -0.344250        -9.3675 
   6   0.0000      -0.092106        -2.5063 
   7   0.0000       0.050242         1.3672 
   8   0.0000       0.050242         1.3672 
   9   0.0000       0.057688         1.5698 
  10   0.0000       0.068081         1.8526 
  11   0.0000       0.142227         3.8702 
  12   0.0000       0.163731         4.4554 
  13   0.0000       0.163731         4.4554 
  14   0.0000       0.168827         4.5940 
  15   0.0000       0.168827         4.5940 
  16   0.0000       0.182225         4.9586 
  17   0.0000       0.183243         4.9863 
  18   0.0000       0.183243         4.9863 
  19   0.0000       0.236043         6.4231 
  20   0.0000       0.236043         6.4231 
  21   0.0000       0.254145         6.9156 
  22   0.0000       0.254145         6.9156 
  23   0.0000       0.266604         7.2547 
  24   0.0000       0.272739         7.4216 
  25   0.0000       0.363725         9.8975 
  26   0.0000       0.386885        10.5277 
  27   0.0000       0.396621        10.7926 
  28   0.0000       0.396621        10.7926 
  29   0.0000       0.529370        14.4049 
  30   0.0000       0.529370        14.4049 
  31   0.0000       0.555604        15.1187 
  32   0.0000       0.606533        16.5046 
  33   0.0000       0.606533        16.5046 
  34   0.0000       0.700559        19.0632 
  35   0.0000       0.700559        19.0632 
  36   0.0000       0.707132        19.2420 
  37   0.0000       0.786996        21.4153 
  38   0.0000       0.786996        21.4153 
  39   0.0000       0.891156        24.2496 
  40   0.0000       0.978052        26.6141 
  41   0.0000       0.978052        26.6141 
  42   0.0000       0.981807        26.7163 
  43   0.0000       1.086615        29.5683 
  44   0.0000       1.210808        32.9478 
  45   0.0000       1.210808        32.9478 
  46   0.0000       1.276044        34.7229 
  47   0.0000       1.373435        37.3731 
  48   0.0000       1.637137        44.5488 
  49   0.0000       1.637138        44.5488 
  50   0.0000       1.682919        45.7945 
  51   0.0000       1.682919        45.7945 
  52   0.0000       1.685993        45.8782 
  53   0.0000       1.685993        45.8782 
  54   0.0000       1.840588        50.0849 
  55   0.0000       1.906614        51.8816 
  56   0.0000       1.906614        51.8816 
  57   0.0000       1.947246        52.9873 
  58   0.0000       1.947248        52.9873 
  59   0.0000       1.997597        54.3574 
  60   0.0000       1.997597        54.3574 
  61   0.0000       2.004862        54.5551 
  62   0.0000       2.004864        54.5551 
  63   0.0000       2.250896        61.2500 
  64   0.0000       2.250896        61.2500 
  65   0.0000       2.284657        62.1687 
  66   0.0000       2.290868        62.3377 
  67   0.0000       2.290868        62.3377 
  68   0.0000       2.829701        77.0001 
  69   0.0000       2.898533        78.8731 
  70   0.0000       2.898533        78.8731 
  71   0.0000       2.936036        79.8936 
  72   0.0000      13.583702       369.6313 
  73   0.0000      14.033358       381.8671 

                 SPIN DOWN ORBITALS
  NO   OCC          E(Eh)            E(eV) 
   0   1.0000      -6.942295      -188.9095 
   1   1.0000      -6.941853      -188.8974 
   2   1.0000      -0.613905       -16.7052 
   3   1.0000      -0.355764        -9.6808 
   4   0.0000      -0.078881        -2.1465 
   5   0.0000      -0.047981        -1.3056 
   6   0.0000      -0.047981        -1.3056 
   7   0.0000       0.064447         1.7537 
   8   0.0000       0.070466         1.9175 
   9   0.0000       0.091369         2.4863 
  10   0.0000       0.091369         2.4863 
  11   0.0000       0.147342         4.0094 
  12   0.0000       0.174626         4.7518 
  13   0.0000       0.174627         4.7518 
  14   0.0000       0.184444         5.0190 
  15   0.0000       0.184444         5.0190 
  16   0.0000       0.184572         5.0225 
  17   0.0000       0.202670         5.5149 
  18   0.0000       0.202670         5.5149 
  19   0.0000       0.238841         6.4992 
  20   0.0000       0.238841         6.4992 
  21   0.0000       0.263690         7.1754 
  22   0.0000       0.263690         7.1754 
  23   0.0000       0.274563         7.4712 
  24   0.0000       0.278406         7.5758 
  25   0.0000       0.366696         9.9783 
  26   0.0000       0.391406        10.6507 
  27   0.0000       0.409552        11.1445 
  28   0.0000       0.409552        11.1445 
  29   0.0000       0.560913        15.2632 
  30   0.0000       0.560913        15.2632 
  31   0.0000       0.576435        15.6856 
  32   0.0000       0.624899        17.0044 
  33   0.0000       0.624899        17.0044 
  34   0.0000       0.715463        19.4687 
  35   0.0000       0.715463        19.4687 
  36   0.0000       0.717092        19.5131 
  37   0.0000       0.797534        21.7020 
  38   0.0000       0.797534        21.7020 
  39   0.0000       0.896963        24.4076 
  40   0.0000       0.997995        27.1568 
  41   0.0000       1.007549        27.4168 
  42   0.0000       1.007549        27.4168 
  43   0.0000       1.104559        30.0566 
  44   0.0000       1.231318        33.5059 
  45   0.0000       1.231318        33.5059 
  46   0.0000       1.295821        35.2611 
  47   0.0000       1.377573        37.4857 
  48   0.0000       1.672811        45.5195 
  49   0.0000       1.672811        45.5195 
  50   0.0000       1.717363        46.7318 
  51   0.0000       1.717363        46.7318 
  52   0.0000       1.719381        46.7867 
  53   0.0000       1.719381        46.7867 
  54   0.0000       1.866065        50.7782 
  55   0.0000       1.940299        52.7982 
  56   0.0000       1.940299        52.7982 
  57   0.0000       1.990114        54.1537 
  58   0.0000       1.990115        54.1538 
  59   0.0000       2.020152        54.9711 
  60   0.0000       2.020152        54.9711 
  61   0.0000       2.048838        55.7517 
  62   0.0000       2.048839        55.7517 
  63   0.0000       2.273095        61.8541 
  64   0.0000       2.273095        61.8541 
  65   0.0000       2.304663        62.7131 
  66   0.0000       2.320055        63.1319 
  67   0.0000       2.320056        63.1319 
  68   0.0000       2.845477        77.4294 
  69   0.0000       2.927432        79.6595 
  70   0.0000       2.927432        79.6595 
  71   0.0000       2.956732        80.4568 
  72   0.0000      13.592939       369.8827 
  73   0.0000      14.042818       382.1245 

                    ********************************
                    * MULLIKEN POPULATION ANALYSIS *
                    ********************************

--------------------------------------------
MULLIKEN ATOMIC CHARGES AND SPIN POPULATIONS
--------------------------------------------
   0 B :   -0.000009    0.999994
   1 B :    0.000009    1.000006
Sum of atomic charges         :    0.0000000
Sum of atomic spin populations:    2.0000000

-----------------------------------------------------
MULLIKEN REDUCED ORBITAL CHARGES AND SPIN POPULATIONS
-----------------------------------------------------
CHARGE
  0 B s       :     3.585746  s :     3.585746
      pz      :     0.400291  p :     1.368018
      px      :     0.483864
      py      :     0.483864
      dz2     :     0.013521  d :     0.043633
      dxz     :     0.015056
      dyz     :     0.015056
      dx2y2   :     0.000000
      dxy     :     0.000000
      f0      :     0.000452  f :     0.002613
      f+1     :     0.001081
      f-1     :     0.001081
      f+2     :     0.000000
      f-2     :    -0.000000
      f+3     :     0.000000
      f-3     :     0.000000
  1 B s       :     3.585731  s :     3.585731
      pz      :     0.400287  p :     1.368015
      px      :     0.483864
      py      :     0.483864
      dz2     :     0.013521  d :     0.043632
      dxz     :     0.015056
      dyz     :     0.015056
      dx2y2   :     0.000000
      dxy     :     0.000000
      f0      :     0.000452  f :     0.002613
      f+1     :     0.001081
      f-1     :     0.001081
      f+2     :    -0.000000
      f-2     :    -0.000000
      f+3     :     0.000000
      f-3     :     0.000000

SPIN
  0 B s       :    -0.030909  s :    -0.030909
      pz      :     0.026332  p :     0.994060
      px      :     0.483864
      py      :     0.483864
      dz2     :     0.004808  d :     0.034920
      dxz     :     0.015056
      dyz     :     0.015056
      dx2y2   :    -0.000000
      dxy     :    -0.000000
      f0      :    -0.000238  f :     0.001923
      f+1     :     0.001081
      f-1     :     0.001081
      f+2     :     0.000000
      f-2     :     0.000000
      f+3     :     0.000000
      f-3     :     0.000000
  1 B s       :    -0.030899  s :    -0.030899
      pz      :     0.026334  p :     0.994062
      px      :     0.483864
      py      :     0.483864
      dz2     :     0.004809  d :     0.034920
      dxz     :     0.015056
      dyz     :     0.015056
      dx2y2   :     0.000000
      dxy     :     0.000000
      f0      :    -0.000238  f :     0.001923
      f+1     :     0.001081
      f-1     :     0.001081
      f+2     :     0.000000
      f-2     :     0.000000
      f+3     :     0.000000
      f-3     :     0.000000


                     *******************************
                     * LOEWDIN POPULATION ANALYSIS *
                     *******************************

-------------------------------------------
LOEWDIN ATOMIC CHARGES AND SPIN POPULATIONS
-------------------------------------------
   0 B :   -0.000000    1.000000
   1 B :    0.000000    1.000000

----------------------------------------------------
LOEWDIN REDUCED ORBITAL CHARGES AND SPIN POPULATIONS
----------------------------------------------------
CHARGE
  0 B s       :     3.160071  s :     3.160071
      pz      :     0.702859  p :     1.627747
      px      :     0.462444
      py      :     0.462444
      dz2     :     0.127441  d :     0.194040
      dxz     :     0.033299
      dyz     :     0.033299
      dx2y2   :     0.000000
      dxy     :     0.000000
      f0      :     0.009628  f :     0.018141
      f+1     :     0.004257
      f-1     :     0.004257
      f+2     :     0.000000
      f-2     :     0.000000
      f+3     :     0.000000
      f-3     :     0.000000
  1 B s       :     3.160071  s :     3.160071
      pz      :     0.702859  p :     1.627747
      px      :     0.462444
      py      :     0.462444
      dz2     :     0.127441  d :     0.194040
      dxz     :     0.033299
      dyz     :     0.033299
      dx2y2   :     0.000000
      dxy     :     0.000000
      f0      :     0.009628  f :     0.018141
      f+1     :     0.004257
      f-1     :     0.004257
      f+2     :     0.000000
      f-2     :     0.000000
      f+3     :     0.000000
      f-3     :     0.000000

SPIN
  0 B s       :     0.014757  s :     0.014757
      pz      :    -0.016635  p :     0.908253
      px      :     0.462444
      py      :     0.462444
      dz2     :     0.002125  d :     0.068724
      dxz     :     0.033299
      dyz     :     0.033299
      dx2y2   :    -0.000000
      dxy     :    -0.000000
      f0      :    -0.000247  f :     0.008266
      f+1     :     0.004257
      f-1     :     0.004257
      f+2     :     0.000000
      f-2     :     0.000000
      f+3     :     0.000000
      f-3     :     0.000000
  1 B s       :     0.014757  s :     0.014757
      pz      :    -0.016635  p :     0.908253
      px      :     0.462444
      py      :     0.462444
      dz2     :     0.002125  d :     0.068724
      dxz     :     0.033299
      dyz     :     0.033299
      dx2y2   :    -0.000000
      dxy     :     0.000000
      f0      :    -0.000247  f :     0.008266
      f+1     :     0.004257
      f-1     :     0.004257
      f+2     :    -0.000000
      f-2     :    -0.000000
      f+3     :     0.000000
      f-3     :     0.000000


                      *****************************
                      * MAYER POPULATION ANALYSIS *
                      *****************************

  NA   - Mulliken gross atomic population
  ZA   - Total nuclear charge
  QA   - Mulliken gross atomic charge
  VA   - Mayer's total valence
  BVA  - Mayer's bonded valence
  FA   - Mayer's free valence

  ATOM       NA         ZA         QA         VA         BVA        FA
  0 B      5.0000     5.0000    -0.0000     2.6815     2.1829     0.4986
  1 B      5.0000     5.0000     0.0000     2.6815     2.1829     0.4986

  Mayer bond orders larger than 0.100000
B(  0-B ,  1-B ) :   2.1829 

-------
TIMINGS
-------

Total SCF time: 0 days 0 hours 1 min 18 sec 

Total time                  ....      78.654 sec
Sum of individual times     ....      74.140 sec  ( 94.3%)

Fock matrix formation       ....      69.322 sec  ( 88.1%)
  XC integration            ....      68.048 sec  ( 98.2% of F)
    Basis function eval.    ....       0.010 sec  (  0.0% of XC)
    Density eval.           ....       0.014 sec  (  0.0% of XC)
    XC-Functional eval.     ....       0.016 sec  (  0.0% of XC)
    XC-Potential eval.      ....       0.018 sec  (  0.0% of XC)
Diagonalization             ....       1.353 sec  (  1.7%)
Density matrix formation    ....       0.005 sec  (  0.0%)
Population analysis         ....       0.415 sec  (  0.5%)
Initial guess               ....       0.129 sec  (  0.2%)
Orbital Transformation      ....       0.000 sec  (  0.0%)
Orbital Orthonormalization  ....       0.000 sec  (  0.0%)
DIIS solution               ....       0.077 sec  (  0.1%)
Grid generation             ....       2.840 sec  (  3.6%)

-------------------------   --------------------
FINAL SINGLE POINT ENERGY       -49.386924903890
-------------------------   --------------------


----------------------------------------------------------------------------
                           ORCA NUMERICAL GRADIENT
                              (28-process run)
----------------------------------------------------------------------------

I state                        ... 1
J state                        ... 0
Number of atoms                ... 2
Derivative's order of accuracy ... 2
Central differences            ... used
Number of displacements        ... 12
Numerical increment            ... 5.000e-03 bohr
Translation invariance         ... used

The output will be reduced. Please look at the following files:
SCF program output             ... >b2.lastscf
Integral program output        ... >b2.lastint
Gradient program output        ... >b2.lastgrad


     Note:   There are more processes than displacements to do
     ===>:   Reducing number of processes to   3

             <<<Displacing   2/coordinate 1 (+)>>>
             <<<Displacing   2/coordinate 2 (+)>>>
             <<<Displacing   2/coordinate 3 (+)>>>
             <<<Displacing   2/coordinate 1 (-)>>>
             <<<Displacing   2/coordinate 2 (-)>>>
             <<<Displacing   2/coordinate 3 (-)>>>

------------------------------
CARTESIAN GRADIENT (NUMERICAL)
-------------------------------
   1   B   :    0.000000001    0.000000000   -0.003597274
   2   B   :   -0.000000001   -0.000000000    0.003597274

Norm of the cartesian gradient     ...    0.005087313
RMS gradient                       ...    0.002076887
MAX gradient                       ...    0.003597274

-------
TIMINGS
-------

Total numerical gradient time      ...       21.445 sec


                            ***************************************
                            *     ORCA property calculations      *
                            ***************************************

                                    ---------------------
                                    Active property flags
                                    ---------------------
   (+) Dipole Moment


------------------------------------------------------------------------------
                       ORCA ELECTRIC PROPERTIES CALCULATION
------------------------------------------------------------------------------

Dipole Moment Calculation                       ... on
Quadrupole Moment Calculation                   ... off
Polarizability Calculation                      ... off
GBWName                                         ... b2.gbw
Electron density file                           ... b2.scfp
The origin for moment calculation is the CENTER OF MASS  = ( 0.000000,  0.000000  0.000000)

-------------
DIPOLE MOMENT
-------------
                                X             Y             Z
Electronic contribution:      0.00000      -0.00000      -0.00000
Nuclear contribution   :      0.00000       0.00000       0.00000
                        -----------------------------------------
Total Dipole Moment    :      0.00000      -0.00000      -0.00000
                        -----------------------------------------
Magnitude (a.u.)       :      0.00000
Magnitude (Debye)      :      0.00000



--------------------
Rotational spectrum 
--------------------
 
Rotational constants in cm-1:     0.000000     1.197127     1.197127 
Rotational constants in MHz :     0.000000 35888.972992 35888.972992 

 Dipole components along the rotational axes: 
x,y,z [a.u.] :    -0.000000    -0.000000     0.000000 
x,y,z [Debye]:    -0.000000    -0.000000     0.000000 

 

Timings for individual modules:

Sum of individual times         ...      103.208 sec (=   1.720 min)
GTO integral calculation        ...        2.215 sec (=   0.037 min)   2.1 %
SCF iterations                  ...       79.548 sec (=   1.326 min)  77.1 %
SCF Gradient evaluation         ...       21.445 sec (=   0.357 min)  20.8 %
                             ****ORCA TERMINATED NORMALLY****
TOTAL RUN TIME: 0 days 0 hours 4 minutes 33 seconds 345 msec
