
                                 *****************
                                 * O   R   C   A *
                                 *****************

           --- An Ab Initio, DFT and Semiempirical electronic structure package ---

                  #######################################################
                  #                        -***-                        #
                  #          Department of theory and spectroscopy      #
                  #               Directorship: Frank Neese             #
                  #        Max Planck Institute fuer Kohlenforschung    #
                  #                Kaiser Wilhelm Platz 1               #
                  #                 D-45470 Muelheim/Ruhr               #
                  #                      Germany                        #
                  #                                                     #
                  #                  All rights reserved                #
                  #                        -***-                        #
                  #######################################################


                         Program Version 4.2.0 -  RELEASE  -


 With contributions from (in alphabetic order):
   Daniel Aravena         : Magnetic Suceptibility
   Michael Atanasov       : Ab Initio Ligand Field Theory (pilot matlab implementation)
   Alexander A. Auer      : GIAO ZORA, VPT2
   Ute Becker             : Parallelization
   Giovanni Bistoni       : ED, misc. LED, open-shell LED, HFLED
   Martin Brehm           : Molecular dynamics
   Dmytro Bykov           : SCF Hessian
   Vijay G. Chilkuri      : MRCI spin determinant printing, contributions to CSF-ICE
   Dipayan Datta          : RHF DLPNO-CCSD density
   Achintya Kumar Dutta   : EOM-CC, STEOM-CC
   Dmitry Ganyushin       : Spin-Orbit,Spin-Spin,Magnetic field MRCI
   Miquel Garcia          : C-PCM Hessian, Gaussian charge scheme
   Yang Guo               : DLPNO-NEVPT2, CIM, IAO-localization
   Andreas Hansen         : Spin unrestricted coupled pair/coupled cluster methods
   Benjamin Helmich-Paris : CASSCF linear response (MC-RPA)
   Lee Huntington         : MR-EOM, pCC
   Robert Izsak           : Overlap fitted RIJCOSX, COSX-SCS-MP3, EOM
   Christian Kollmar      : KDIIS, OOCD, Brueckner-CCSD(T), CCSD density
   Simone Kossmann        : Meta GGA functionals, TD-DFT gradient, OOMP2, MP2 Hessian
   Martin Krupicka        : AUTO-CI
   Lucas Lang             : DCDCAS
   Dagmar Lenk            : GEPOL surface, SMD
   Dimitrios Liakos       : Extrapolation schemes; Compound Job, initial MDCI parallelization
   Dimitrios Manganas     : Further ROCIS development; embedding schemes
   Dimitrios Pantazis     : SARC Basis sets
   Taras Petrenko         : DFT Hessian,TD-DFT gradient, ASA, ECA, R-Raman, ABS, FL, XAS/XES, NRVS
   Peter Pinski           : DLPNO-MP2, DLPNO-MP2 Gradient
   Christoph Reimann      : Effective Core Potentials
   Marius Retegan         : Local ZFS, SOC
   Christoph Riplinger    : Optimizer, TS searches, QM/MM, DLPNO-CCSD(T), (RO)-DLPNO pert. Triples
   Tobias Risthaus        : Range-separated hybrids, TD-DFT gradient, RPA, STAB
   Michael Roemelt        : Original ROCIS implementation
   Masaaki Saitow         : Open-shell DLPNO-CCSD energy and density
   Barbara Sandhoefer     : DKH picture change effects
   Avijit Sen             : IP-ROCIS
   Kantharuban Sivalingam : CASSCF convergence, NEVPT2, FIC-MRCI
   Bernardo de Souza      : ESD, SOC TD-DFT
   Georgi Stoychev        : AutoAux, RI-MP2 NMR
   Willem Van den Heuvel  : Paramagnetic NMR
   Boris Wezisla          : Elementary symmetry handling
   Frank Wennmohs         : Technical directorship


 We gratefully acknowledge several colleagues who have allowed us to
 interface, adapt or use parts of their codes:
   Stefan Grimme, W. Hujo, H. Kruse,             : VdW corrections, initial TS optimization,
                  C. Bannwarth                     DFT functionals, gCP, sTDA/sTD-DF
   Ed Valeev, F. Pavosevic, A. Kumar             : LibInt (2-el integral package), F12 methods
   Garnet Chan, S. Sharma, J. Yang, R. Olivares  : DMRG
   Ulf Ekstrom                                   : XCFun DFT Library
   Mihaly Kallay                                 : mrcc  (arbitrary order and MRCC methods)
   Andreas Klamt, Michael Diedenhofen            : otool_cosmo (COSMO solvation model)
   Jiri Pittner, Ondrej Demel                    : Mk-CCSD
   Frank Weinhold                                : gennbo (NPA and NBO analysis)
   Christopher J. Cramer and Donald G. Truhlar   : smd solvation model
   Lars Goerigk                                  : TD-DFT with DH, B97 family of functionals
   V. Asgeirsson, H. Jonsson                     : NEB implementation
   FAccTs GmbH                                   : IRC, NEB, NEB-TS, Multilevel, MM, QM/MM, CI optimization
   S Lehtola, MJT Oliveira, MAL Marques          : LibXC Library


 Your calculation uses the libint2 library for the computation of 2-el integrals
 For citations please refer to: http://libint.valeyev.net

 Your ORCA version has been built with support for libXC version: 4.2.3
 For citations please refer to: https://tddft.org/programs/libxc/

 This ORCA versions uses:
   CBLAS   interface :  Fast vector & matrix operations
   LAPACKE interface :  Fast linear algebra routines
   SCALAPACK package :  Parallel linear algebra routines


Your calculation utilizes the DFT-NL dispersion correction.
Cite in your paper:
Vydrov, O. A.; Van Voorhis, T. J. Chem. Phys. 2010, 133, 244103
Hujo, W.; Grimme, S. J. Chem. Theory Comput. 2011, 7, 3866 
   

----- Orbital basis set information -----
Your calculation utilizes the basis: def2-TZVPPD
   F. Weigend and R. Ahlrichs, Phys. Chem. Chem. Phys. 7, 3297 (2005).
   D. Rappoport and F. Furche, J. Chem. Phys. 133 134105 (2010).

----- AuxJK basis set information -----
Your calculation utilizes the auxiliary basis: def2/JK
   H-Ba, Hf-Rn: F. Weigend, J. Comput. Chem. 29, 167 (2008).

================================================================================
                                        WARNINGS
                       Please study these warnings very carefully!
================================================================================

INFO   : Found keyword 'NumGrad' for Energy calculation
  ===> : Setting RunTyp to EnGrad

WARNING: Numerical Gradient with sloppy Convergence Criteria    
         Your results may be not reliable!                      
         Please choose at least TightSCF!                       

INFO   : the flag for use of LIBINT has been found!

================================================================================
                                       INPUT FILE
================================================================================
NAME = c2.in
|  1> #
|  2> # c2 wB97X-V/Def2-TZVPPD
|  3> #
|  4> ! wb97x-v def2-tzvppd def2/jk grid4 nofinalgrid numgrad
|  5> 
|  6> *xyz 0 1
|  7> C          0.00000        0.00000       -0.62000
|  8> C          0.00000        0.00000        0.62000
|  9> *
| 10> 
| 11> %maxcore 5000
| 12> 
| 13> %pal
| 14> nprocs = 28
| 15> end
| 16> 
| 17> 
| 18>                          ****END OF INPUT****
================================================================================

                     *******************************
                     * Energy+Gradient Calculation *
                     *******************************

---------------------------------
CARTESIAN COORDINATES (ANGSTROEM)
---------------------------------
  C      0.000000    0.000000   -0.620000
  C      0.000000    0.000000    0.620000

----------------------------
CARTESIAN COORDINATES (A.U.)
----------------------------
  NO LB      ZA    FRAG     MASS         X           Y           Z
   0 C     6.0000    0    12.011    0.000000    0.000000   -1.171630
   1 C     6.0000    0    12.011    0.000000    0.000000    1.171630

--------------------------------
INTERNAL COORDINATES (ANGSTROEM)
--------------------------------
 C      0   0   0     0.000000000000     0.00000000     0.00000000
 C      1   0   0     1.240000000000     0.00000000     0.00000000

---------------------------
INTERNAL COORDINATES (A.U.)
---------------------------
 C      0   0   0     0.000000000000     0.00000000     0.00000000
 C      1   0   0     2.343260406062     0.00000000     0.00000000

---------------------
BASIS SET INFORMATION
---------------------
There are 1 groups of distinct atoms

 Group   1 Type C   : 12s6p3d1f contracted to 6s3p3d1f pattern {621111/411/111/1}

Atom   0C    basis set group =>   1
Atom   1C    basis set group =>   1
----------------------------------
AUXILIARY/JK BASIS SET INFORMATION
----------------------------------
There are 1 groups of distinct atoms

 Group   1 Type C   : 14s10p6d2f1g contracted to 10s8p5d1f1g pattern {5111111111/31111111/21111/2/1}

Atom   0C    basis set group =>   1
Atom   1C    basis set group =>   1


           ************************************************************
           *        Program running with 28 parallel MPI-processes    *
           *              working on a common directory               *
           ************************************************************
------------------------------------------------------------------------------
                           ORCA GTO INTEGRAL CALCULATION
------------------------------------------------------------------------------

                         BASIS SET STATISTICS AND STARTUP INFO

 # of primitive gaussian shells          ...   44
 # of primitive gaussian functions       ...  104
 # of contracted shells                  ...   26
 # of contracted basis functions         ...   74
 Highest angular momentum                ...    3
 Maximum contraction depth               ...    6
 Integral package used                   ... LIBINT
 Integral threshhold            Thresh   ...  1.000e-10
 Primitive cut-off              TCut     ...  1.000e-11


------------------------------ INTEGRAL EVALUATION ----------------------------


 * One electron integrals 
 Pre-screening matrix                    ... done
 Shell pair data                         ... done (   0.000 sec)



           ************************************************************
           *        Program running with 28 parallel MPI-processes    *
           *              working on a common directory               *
           ************************************************************
-------------------------------------------------------------------------------
                                 ORCA SCF
-------------------------------------------------------------------------------

------------
SCF SETTINGS
------------
Hamiltonian:
 Density Functional     Method          .... DFT(GTOs)
 Exchange Functional    Exchange        .... WB97X-V
 Correlation Functional Correlation     .... WB97X-V
 Gradients option       PostSCFGGA      .... off
 Hybrid DFT is turned on
   Fraction HF Exchange ScalHFX         ....  0.167000
   Scaling of DF-GGA-X  ScalDFX         ....  0.000000
   Scaling of DF-GGA-C  ScalDFC         ....  1.000000
   Scaling of DF-LDA-C  ScalLDAC        ....  1.000000
   Perturbative correction              ....  0.000000
   Density functional embedding theory  .... OFF
 Long-range corrected/Screened/Range-Separated Hybrid DFT is turned on
   Amount of maximum screened exact exchange              ....  0.833000
   Range separation parameter mu (erf(mu*r12)/r12)        ....  0.300000
   NL short-range parameter             ....  6.000000
   NL long-range parameter              ....  0.010000


General Settings:
 Integral files         IntName         .... c2
 Hartree-Fock type      HFTyp           .... RHF
 Total Charge           Charge          ....    0
 Multiplicity           Mult            ....    1
 Number of Electrons    NEL             ....   12
 Basis Dimension        Dim             ....   74
 Nuclear Repulsion      ENuc            ....     15.3632092732 Eh

Convergence Acceleration:
 DIIS                   CNVDIIS         .... on
   Start iteration      DIISMaxIt       ....    12
   Startup error        DIISStart       ....  0.200000
   # of expansion vecs  DIISMaxEq       ....     5
   Bias factor          DIISBfac        ....   1.050
   Max. coefficient     DIISMaxC        ....  10.000
 Newton-Raphson         CNVNR           .... off
 SOSCF                  CNVSOSCF        .... on
   Start iteration      SOSCFMaxIt      ....   150
   Startup grad/error   SOSCFStart      ....  0.003300
 Level Shifting         CNVShift        .... on
   Level shift para.    LevelShift      ....    0.2500
   Turn off err/grad.   ShiftErr        ....    0.0010
 Zerner damping         CNVZerner       .... off
 Static damping         CNVDamp         .... on
   Fraction old density DampFac         ....    0.7000
   Max. Damping (<1)    DampMax         ....    0.9800
   Min. Damping (>=0)   DampMin         ....    0.0000
   Turn off err/grad.   DampErr         ....    0.1000
 Fernandez-Rico         CNVRico         .... off

SCF Procedure:
 Maximum # iterations   MaxIter         ....   125
 SCF integral mode      SCFMode         .... Direct
   Integral package                     .... LIBINT
 Reset frequency        DirectResetFreq ....    20
 Integral Threshold     Thresh          ....  1.000e-10 Eh
 Primitive CutOff       TCut            ....  1.000e-11 Eh

Convergence Tolerance:
 Convergence Check Mode ConvCheckMode   .... Total+1el-Energy
 Convergence forced     ConvForced      .... 0
 Energy Change          TolE            ....  1.000e-06 Eh
 1-El. energy change                    ....  1.000e-03 Eh
 Orbital Gradient       TolG            ....  5.000e-05
 Orbital Rotation angle TolX            ....  5.000e-05
 DIIS Error             TolErr          ....  1.000e-06


Diagonalization of the overlap matrix:
Smallest eigenvalue                        ... 1.532e-05
Time for diagonalization                   ...    0.002 sec
Threshold for overlap eigenvalues          ... 1.000e-08
Number of eigenvalues below threshold      ... 0
Time for construction of square roots      ...    0.116 sec
Total time needed                          ...    0.117 sec

-------------------
DFT GRID GENERATION
-------------------

General Integration Accuracy     IntAcc      ...  4.670
Radial Grid Type                 RadialGrid  ... Gauss-Chebyshev
Angular Grid (max. acc.)         AngularGrid ... Lebedev-302
Angular grid pruning method      GridPruning ... 3 (G Style)
Weight generation scheme         WeightScheme... Becke
Basis function cutoff            BFCut       ...    1.0000e-10
Integration weight cutoff        WCut        ...    1.0000e-14
Grids for H and He will be reduced by one unit

# of grid points (after initial pruning)     ...  12424 (   0.0 sec)
# of grid points (after weights+screening)   ...  12392 (   0.0 sec)
nearest neighbour list constructed           ...    0.0 sec
Grid point re-assignment to atoms done       ...    0.0 sec
Grid point division into batches done        ...    0.1 sec
Reduced shell lists constructed in    0.1 sec

Total number of grid points                  ...    12392
Total number of batches                      ...      194
Average number of points per batch           ...       63
Average number of grid points per atom       ...     6196
Average number of shells per batch           ...     6.12 (23.56%)
Average number of basis functions per batch  ...    15.62 (21.11%)
Average number of large shells per batch     ...     4.12 (67.35%)
Average number of large basis fcns per batch ...    11.62 (74.40%)
Maximum spatial batch extension              ...  24.37, 24.37, 13.07 au
Average spatial batch extension              ...   0.68,  0.62,  0.41 au

Time for grid setup =    2.049 sec

------------------------------
INITIAL GUESS: MODEL POTENTIAL
------------------------------
Loading Hartree-Fock densities                     ... done
Calculating cut-offs                               ... done
Setting up the integral package                    ... done
Initializing the effective Hamiltonian             ... done
Starting the Coulomb interaction                   ... done (   0.0 sec)
Reading the grid                                   ... done
Mapping shells                                     ... done
Starting the XC term evaluation                    ... done (   0.0 sec)
  promolecular density results
     # of electrons  =     12.000005902
     EX              =     -6.824492980
     EC              =     -0.468470325
     EX+EC           =     -7.292963305
Transforming the Hamiltonian                       ... done (   0.0 sec)
Diagonalizing the Hamiltonian                      ... done (   0.0 sec)
Back transforming the eigenvectors                 ... done (   0.0 sec)
Now organizing SCF variables                       ... done
                      ------------------
                      INITIAL GUESS DONE (   2.2 sec)
                      ------------------
--------------
SCF ITERATIONS
--------------
ITER       Energy         Delta-E        Max-DP      RMS-DP      [F,P]     Damp
               ***  Starting incremental Fock matrix formation  ***
  0    -75.8801194615   0.000000000000 0.04476181  0.00213090  0.2668470 0.7000
  1    -75.8909465313  -0.010827069824 0.02892553  0.00148916  0.1805496 0.7000
                               ***Turning on DIIS***
  2    -75.8989201854  -0.007973654064 0.01775470  0.00102274  0.1212056 0.7000
  3    -75.9046081535  -0.005687968166 0.04182093  0.00247014  0.0813734 0.0000
  4    -75.9187355504  -0.014127396847 0.00863458  0.00053462  0.0092199 0.0000
  5    -75.9189352226  -0.000199672248 0.00363913  0.00020028  0.0038306 0.0000
                      *** Initiating the SOSCF procedure ***
                           *** Shutting down DIIS ***
                      *** Re-Reading the Fockian *** 
                      *** Removing any level shift *** 
ITER      Energy       Delta-E        Grad      Rot      Max-DP    RMS-DP
  6    -75.91898055  -0.0000453288  0.001234  0.001234  0.001194  0.000056
               *** Restarting incremental Fock matrix formation ***
  7    -75.91898398  -0.0000034236  0.000187  0.000249  0.000429  0.000023
                 **** Energy Check signals convergence ****
              ***Rediagonalizing the Fockian in SOSCF/NRSCF***

               *****************************************************
               *                     SUCCESS                       *
               *           SCF CONVERGED AFTER   8 CYCLES          *
               *****************************************************


Setting up the DFT-NL grid :

General Integration Accuracy     IntAcc      ...  4.340
Radial Grid Type                 RadialGrid  ... Gauss-Chebyshev
Angular Grid (max. acc.)         AngularGrid ... Lebedev-110
Angular grid pruning method      GridPruning ... 3 (G Style)
Weight generation scheme         WeightScheme... Becke
Basis function cutoff            BFCut       ...    1.0000e-10
Integration weight cutoff        WCut        ...    1.0000e-14
Grids for H and He will be reduced by one unit

# of grid points (after initial pruning)     ...   3312 (   0.0 sec)
# of grid points (after weights+screening)   ...   3284 (   0.0 sec)
nearest neighbour list constructed           ...    0.0 sec
Grid point re-assignment to atoms done       ...    0.0 sec
Grid point division into batches done        ...    0.0 sec
Reduced shell lists constructed in    0.0 sec

Total number of grid points                  ...     3284
Total number of batches                      ...       52
Average number of points per batch           ...       63
Average number of grid points per atom       ...     1642
Average number of shells per batch           ...    12.67 (48.72%)
Average number of basis functions per batch  ...    38.00 (51.35%)
Average number of large shells per batch     ...     9.33 (73.68%)
Average number of large basis fcns per batch ...    25.33 (66.67%)
Maximum spatial batch extension              ...  16.97, 31.36, 16.20 au
Average spatial batch extension              ...   0.65,  1.21,  0.62 au

Final grid set up in    3.0 sec

-------------------------------------------------------------------------------
                         DFT-NL dispersion correction                          
-------------------------------------------------------------------------------

SC Energy -75.918984188 
NL    Energy 0.050281746 
SC+NL Energy -75.868702443 
NL done in    2.2 sec
-------------------------------------------------------------------------------

----------------
TOTAL SCF ENERGY
----------------

Total Energy       :          -75.86870244 Eh           -2064.49235 eV

Components:
Nuclear Repulsion  :           15.36320927 Eh             418.05418 eV
Electronic Energy  :          -91.23191172 Eh           -2482.54653 eV
One Electron Energy:         -131.41649807 Eh           -3576.02471 eV
Two Electron Energy:           40.18458635 Eh            1093.47819 eV

Virial components:
Potential Energy   :         -151.57966061 Eh           -4124.69226 eV
Kinetic Energy     :           75.71095817 Eh            2060.19991 eV
Virial Ratio       :            2.00208351


DFT components:
N(Alpha)           :        6.000001386548 electrons
N(Beta)            :        6.000001386548 electrons
N(Total)           :       12.000002773095 electrons
E(X)               :       -6.896108502224 Eh       
E(C)               :       -0.472565880820 Eh       
NL Energy, E(C,NL) :        0.050281745864 Eh       
E(XC)              :       -7.318392637181 Eh       
DFET-embed. en.    :        0.000000000000 Eh       

---------------
SCF CONVERGENCE
---------------

  Last Energy change         ...   -2.1335e-07  Tolerance :   1.0000e-06
  Last MAX-Density change    ...    1.3492e-04  Tolerance :   1.0000e-05
  Last RMS-Density change    ...    8.6965e-06  Tolerance :   1.0000e-06
  Last Orbital Gradient      ...    6.2349e-05  Tolerance :   5.0000e-05
  Last Orbital Rotation      ...    1.2146e-04  Tolerance :   5.0000e-05

             **** THE GBW FILE WAS UPDATED (c2.gbw) ****
             **** DENSITY FILE WAS UPDATED (c2.scfp) ****
             **** ENERGY FILE WAS UPDATED (c2.en.tmp) ****
             **** THE GBW FILE WAS UPDATED (c2.gbw) ****
             **** DENSITY FILE WAS UPDATED (c2.scfp) ****
----------------
ORBITAL ENERGIES
----------------

  NO   OCC          E(Eh)            E(eV) 
   0   2.0000     -10.384671      -282.5813 
   1   2.0000     -10.382866      -282.5322 
   2   2.0000      -0.927460       -25.2375 
   3   2.0000      -0.504556       -13.7297 
   4   2.0000      -0.437176       -11.8962 
   5   2.0000      -0.437176       -11.8962 
   6   0.0000      -0.176100        -4.7919 
   7   0.0000       0.087706         2.3866 
   8   0.0000       0.087706         2.3866 
   9   0.0000       0.088325         2.4035 
  10   0.0000       0.102891         2.7998 
  11   0.0000       0.210797         5.7361 
  12   0.0000       0.255589         6.9549 
  13   0.0000       0.255589         6.9549 
  14   0.0000       0.256059         6.9677 
  15   0.0000       0.256059         6.9677 
  16   0.0000       0.270348         7.3565 
  17   0.0000       0.270348         7.3565 
  18   0.0000       0.280233         7.6255 
  19   0.0000       0.361701         9.8424 
  20   0.0000       0.361701         9.8424 
  21   0.0000       0.389439        10.5972 
  22   0.0000       0.389439        10.5972 
  23   0.0000       0.410166        11.1612 
  24   0.0000       0.417279        11.3548 
  25   0.0000       0.556888        15.1537 
  26   0.0000       0.605720        16.4825 
  27   0.0000       0.616034        16.7631 
  28   0.0000       0.616034        16.7631 
  29   0.0000       0.845119        22.9969 
  30   0.0000       0.845119        22.9969 
  31   0.0000       0.880548        23.9609 
  32   0.0000       0.956524        26.0283 
  33   0.0000       0.956524        26.0283 
  34   0.0000       1.111399        30.2427 
  35   0.0000       1.111399        30.2427 
  36   0.0000       1.114164        30.3180 
  37   0.0000       1.239697        33.7339 
  38   0.0000       1.239697        33.7339 
  39   0.0000       1.367484        37.2111 
  40   0.0000       1.511278        41.1240 
  41   0.0000       1.511278        41.1240 
  42   0.0000       1.552498        42.2456 
  43   0.0000       1.778586        48.3978 
  44   0.0000       1.883866        51.2626 
  45   0.0000       1.883866        51.2626 
  46   0.0000       1.996584        54.3298 
  47   0.0000       2.106708        57.3264 
  48   0.0000       2.568108        69.8818 
  49   0.0000       2.568108        69.8818 
  50   0.0000       2.606350        70.9224 
  51   0.0000       2.606350        70.9224 
  52   0.0000       2.693340        73.2895 
  53   0.0000       2.693340        73.2895 
  54   0.0000       2.961965        80.5992 
  55   0.0000       2.990950        81.3879 
  56   0.0000       2.990950        81.3879 
  57   0.0000       3.135235        85.3141 
  58   0.0000       3.135235        85.3141 
  59   0.0000       3.148138        85.6652 
  60   0.0000       3.148139        85.6652 
  61   0.0000       3.236786        88.0774 
  62   0.0000       3.236787        88.0775 
  63   0.0000       3.590660        97.7068 
  64   0.0000       3.590660        97.7068 
  65   0.0000       3.622338        98.5688 
  66   0.0000       3.622338        98.5688 
  67   0.0000       3.635412        98.9246 
  68   0.0000       4.517338       122.9230 
  69   0.0000       4.613958       125.5522 
  70   0.0000       4.613958       125.5522 
  71   0.0000       4.694117       127.7334 
  72   0.0000      21.675934       589.8321 
  73   0.0000      22.477214       611.6361 

                    ********************************
                    * MULLIKEN POPULATION ANALYSIS *
                    ********************************

-----------------------
MULLIKEN ATOMIC CHARGES
-----------------------
   0 C :   -0.000003
   1 C :    0.000003
Sum of atomic charges:   -0.0000000

--------------------------------
MULLIKEN REDUCED ORBITAL CHARGES
--------------------------------
  0 C s       :     3.497189  s :     3.497189
      pz      :     0.492709  p :     2.449713
      px      :     0.978502
      py      :     0.978502
      dz2     :     0.009580  d :     0.046738
      dxz     :     0.018579
      dyz     :     0.018579
      dx2y2   :     0.000000
      dxy     :     0.000000
      f0      :     0.000525  f :     0.006364
      f+1     :     0.002919
      f-1     :     0.002919
      f+2     :    -0.000000
      f-2     :     0.000000
      f+3     :     0.000000
      f-3     :     0.000000
  1 C s       :     3.497184  s :     3.497184
      pz      :     0.492707  p :     2.449711
      px      :     0.978502
      py      :     0.978502
      dz2     :     0.009580  d :     0.046738
      dxz     :     0.018579
      dyz     :     0.018579
      dx2y2   :     0.000000
      dxy     :     0.000000
      f0      :     0.000525  f :     0.006364
      f+1     :     0.002919
      f-1     :     0.002919
      f+2     :     0.000000
      f-2     :     0.000000
      f+3     :     0.000000
      f-3     :     0.000000


                     *******************************
                     * LOEWDIN POPULATION ANALYSIS *
                     *******************************

----------------------
LOEWDIN ATOMIC CHARGES
----------------------
   0 C :   -0.000000
   1 C :    0.000000

-------------------------------
LOEWDIN REDUCED ORBITAL CHARGES
-------------------------------
  0 C s       :     3.093047  s :     3.093047
      pz      :     0.782016  p :     2.647947
      px      :     0.932965
      py      :     0.932965
      dz2     :     0.112970  d :     0.225746
      dxz     :     0.056388
      dyz     :     0.056388
      dx2y2   :     0.000000
      dxy     :     0.000000
      f0      :     0.011967  f :     0.033261
      f+1     :     0.010647
      f-1     :     0.010647
      f+2     :     0.000000
      f-2     :     0.000000
      f+3     :     0.000000
      f-3     :     0.000000
  1 C s       :     3.093047  s :     3.093047
      pz      :     0.782016  p :     2.647947
      px      :     0.932965
      py      :     0.932965
      dz2     :     0.112970  d :     0.225746
      dxz     :     0.056388
      dyz     :     0.056388
      dx2y2   :     0.000000
      dxy     :     0.000000
      f0      :     0.011967  f :     0.033261
      f+1     :     0.010647
      f-1     :     0.010647
      f+2     :     0.000000
      f-2     :     0.000000
      f+3     :     0.000000
      f-3     :     0.000000


                      *****************************
                      * MAYER POPULATION ANALYSIS *
                      *****************************

  NA   - Mulliken gross atomic population
  ZA   - Total nuclear charge
  QA   - Mulliken gross atomic charge
  VA   - Mayer's total valence
  BVA  - Mayer's bonded valence
  FA   - Mayer's free valence

  ATOM       NA         ZA         QA         VA         BVA        FA
  0 C      6.0000     6.0000    -0.0000     3.3721     3.3721    -0.0000
  1 C      6.0000     6.0000     0.0000     3.3721     3.3721    -0.0000

  Mayer bond orders larger than 0.100000
B(  0-C ,  1-C ) :   3.3721 

-------
TIMINGS
-------

Total SCF time: 0 days 0 hours 1 min 25 sec 

Total time                  ....      85.835 sec
Sum of individual times     ....      81.745 sec  ( 95.2%)

Fock matrix formation       ....      75.861 sec  ( 88.4%)
  XC integration            ....      75.821 sec  ( 99.9% of F)
    Basis function eval.    ....       0.009 sec  (  0.0% of XC)
    Density eval.           ....       0.008 sec  (  0.0% of XC)
    XC-Functional eval.     ....       0.013 sec  (  0.0% of XC)
    XC-Potential eval.      ....       0.008 sec  (  0.0% of XC)
Diagonalization             ....       0.354 sec  (  0.4%)
Density matrix formation    ....       0.004 sec  (  0.0%)
Population analysis         ....       0.225 sec  (  0.3%)
Initial guess               ....       0.136 sec  (  0.2%)
Orbital Transformation      ....       0.000 sec  (  0.0%)
Orbital Orthonormalization  ....       0.000 sec  (  0.0%)
DIIS solution               ....       0.029 sec  (  0.0%)
SOSCF solution              ....       0.057 sec  (  0.1%)
Grid generation             ....       5.079 sec  (  5.9%)

-------------------------   --------------------
FINAL SINGLE POINT ENERGY       -75.868702442516
-------------------------   --------------------


----------------------------------------------------------------------------
                           ORCA NUMERICAL GRADIENT
                              (28-process run)
----------------------------------------------------------------------------

I state                        ... 1
J state                        ... 0
Number of atoms                ... 2
Derivative's order of accuracy ... 2
Central differences            ... used
Number of displacements        ... 12
Numerical increment            ... 5.000e-03 bohr
Translation invariance         ... used

The output will be reduced. Please look at the following files:
SCF program output             ... >c2.lastscf
Integral program output        ... >c2.lastint
Gradient program output        ... >c2.lastgrad


     Note:   There are more processes than displacements to do
     ===>:   Reducing number of processes to   3

             <<<Displacing   2/coordinate 1 (+)>>>
             <<<Displacing   2/coordinate 3 (+)>>>
             <<<Displacing   2/coordinate 2 (+)>>>
             <<<Displacing   2/coordinate 2 (-)>>>
             <<<Displacing   2/coordinate 1 (-)>>>
             <<<Displacing   2/coordinate 3 (-)>>>

------------------------------
CARTESIAN GRADIENT (NUMERICAL)
-------------------------------
   1   C   :   -0.000000001   -0.000000000    0.013940619
   2   C   :    0.000000001    0.000000000   -0.013940619

Norm of the cartesian gradient     ...    0.019715012
RMS gradient                       ...    0.008048620
MAX gradient                       ...    0.013940619

-------
TIMINGS
-------

Total numerical gradient time      ...       21.736 sec


                            ***************************************
                            *     ORCA property calculations      *
                            ***************************************

                                    ---------------------
                                    Active property flags
                                    ---------------------
   (+) Dipole Moment


------------------------------------------------------------------------------
                       ORCA ELECTRIC PROPERTIES CALCULATION
------------------------------------------------------------------------------

Dipole Moment Calculation                       ... on
Quadrupole Moment Calculation                   ... off
Polarizability Calculation                      ... off
GBWName                                         ... c2.gbw
Electron density file                           ... c2.scfp
The origin for moment calculation is the CENTER OF MASS  = ( 0.000000,  0.000000  0.000000)

-------------
DIPOLE MOMENT
-------------
                                X             Y             Z
Electronic contribution:     -0.00000       0.00000       0.00000
Nuclear contribution   :      0.00000       0.00000       0.00000
                        -----------------------------------------
Total Dipole Moment    :     -0.00000       0.00000       0.00000
                        -----------------------------------------
Magnitude (a.u.)       :      0.00000
Magnitude (Debye)      :      0.00000



--------------------
Rotational spectrum 
--------------------
 
Rotational constants in cm-1:     0.000000     1.825595     1.825595 
Rotational constants in MHz :     0.000000 54729.951378 54729.951378 

 Dipole components along the rotational axes: 
x,y,z [a.u.] :     0.000000     0.000000    -0.000000 
x,y,z [Debye]:     0.000000     0.000000    -0.000000 

 

Timings for individual modules:

Sum of individual times         ...      112.031 sec (=   1.867 min)
GTO integral calculation        ...        3.729 sec (=   0.062 min)   3.3 %
SCF iterations                  ...       86.566 sec (=   1.443 min)  77.3 %
SCF Gradient evaluation         ...       21.736 sec (=   0.362 min)  19.4 %
                             ****ORCA TERMINATED NORMALLY****
TOTAL RUN TIME: 0 days 0 hours 4 minutes 40 seconds 40 msec
