
                                 *****************
                                 * O   R   C   A *
                                 *****************

           --- An Ab Initio, DFT and Semiempirical electronic structure package ---

                  #######################################################
                  #                        -***-                        #
                  #          Department of theory and spectroscopy      #
                  #               Directorship: Frank Neese             #
                  #        Max Planck Institute fuer Kohlenforschung    #
                  #                Kaiser Wilhelm Platz 1               #
                  #                 D-45470 Muelheim/Ruhr               #
                  #                      Germany                        #
                  #                                                     #
                  #                  All rights reserved                #
                  #                        -***-                        #
                  #######################################################


                         Program Version 4.2.0 -  RELEASE  -


 With contributions from (in alphabetic order):
   Daniel Aravena         : Magnetic Suceptibility
   Michael Atanasov       : Ab Initio Ligand Field Theory (pilot matlab implementation)
   Alexander A. Auer      : GIAO ZORA, VPT2
   Ute Becker             : Parallelization
   Giovanni Bistoni       : ED, misc. LED, open-shell LED, HFLED
   Martin Brehm           : Molecular dynamics
   Dmytro Bykov           : SCF Hessian
   Vijay G. Chilkuri      : MRCI spin determinant printing, contributions to CSF-ICE
   Dipayan Datta          : RHF DLPNO-CCSD density
   Achintya Kumar Dutta   : EOM-CC, STEOM-CC
   Dmitry Ganyushin       : Spin-Orbit,Spin-Spin,Magnetic field MRCI
   Miquel Garcia          : C-PCM Hessian, Gaussian charge scheme
   Yang Guo               : DLPNO-NEVPT2, CIM, IAO-localization
   Andreas Hansen         : Spin unrestricted coupled pair/coupled cluster methods
   Benjamin Helmich-Paris : CASSCF linear response (MC-RPA)
   Lee Huntington         : MR-EOM, pCC
   Robert Izsak           : Overlap fitted RIJCOSX, COSX-SCS-MP3, EOM
   Christian Kollmar      : KDIIS, OOCD, Brueckner-CCSD(T), CCSD density
   Simone Kossmann        : Meta GGA functionals, TD-DFT gradient, OOMP2, MP2 Hessian
   Martin Krupicka        : AUTO-CI
   Lucas Lang             : DCDCAS
   Dagmar Lenk            : GEPOL surface, SMD
   Dimitrios Liakos       : Extrapolation schemes; Compound Job, initial MDCI parallelization
   Dimitrios Manganas     : Further ROCIS development; embedding schemes
   Dimitrios Pantazis     : SARC Basis sets
   Taras Petrenko         : DFT Hessian,TD-DFT gradient, ASA, ECA, R-Raman, ABS, FL, XAS/XES, NRVS
   Peter Pinski           : DLPNO-MP2, DLPNO-MP2 Gradient
   Christoph Reimann      : Effective Core Potentials
   Marius Retegan         : Local ZFS, SOC
   Christoph Riplinger    : Optimizer, TS searches, QM/MM, DLPNO-CCSD(T), (RO)-DLPNO pert. Triples
   Tobias Risthaus        : Range-separated hybrids, TD-DFT gradient, RPA, STAB
   Michael Roemelt        : Original ROCIS implementation
   Masaaki Saitow         : Open-shell DLPNO-CCSD energy and density
   Barbara Sandhoefer     : DKH picture change effects
   Avijit Sen             : IP-ROCIS
   Kantharuban Sivalingam : CASSCF convergence, NEVPT2, FIC-MRCI
   Bernardo de Souza      : ESD, SOC TD-DFT
   Georgi Stoychev        : AutoAux, RI-MP2 NMR
   Willem Van den Heuvel  : Paramagnetic NMR
   Boris Wezisla          : Elementary symmetry handling
   Frank Wennmohs         : Technical directorship


 We gratefully acknowledge several colleagues who have allowed us to
 interface, adapt or use parts of their codes:
   Stefan Grimme, W. Hujo, H. Kruse,             : VdW corrections, initial TS optimization,
                  C. Bannwarth                     DFT functionals, gCP, sTDA/sTD-DF
   Ed Valeev, F. Pavosevic, A. Kumar             : LibInt (2-el integral package), F12 methods
   Garnet Chan, S. Sharma, J. Yang, R. Olivares  : DMRG
   Ulf Ekstrom                                   : XCFun DFT Library
   Mihaly Kallay                                 : mrcc  (arbitrary order and MRCC methods)
   Andreas Klamt, Michael Diedenhofen            : otool_cosmo (COSMO solvation model)
   Jiri Pittner, Ondrej Demel                    : Mk-CCSD
   Frank Weinhold                                : gennbo (NPA and NBO analysis)
   Christopher J. Cramer and Donald G. Truhlar   : smd solvation model
   Lars Goerigk                                  : TD-DFT with DH, B97 family of functionals
   V. Asgeirsson, H. Jonsson                     : NEB implementation
   FAccTs GmbH                                   : IRC, NEB, NEB-TS, Multilevel, MM, QM/MM, CI optimization
   S Lehtola, MJT Oliveira, MAL Marques          : LibXC Library


 Your calculation uses the libint2 library for the computation of 2-el integrals
 For citations please refer to: http://libint.valeyev.net

 Your ORCA version has been built with support for libXC version: 4.2.3
 For citations please refer to: https://tddft.org/programs/libxc/

 This ORCA versions uses:
   CBLAS   interface :  Fast vector & matrix operations
   LAPACKE interface :  Fast linear algebra routines
   SCALAPACK package :  Parallel linear algebra routines


Your calculation utilizes the DFT-NL dispersion correction.
Cite in your paper:
Vydrov, O. A.; Van Voorhis, T. J. Chem. Phys. 2010, 133, 244103
Hujo, W.; Grimme, S. J. Chem. Theory Comput. 2011, 7, 3866 
   

----- Orbital basis set information -----
Your calculation utilizes the basis: def2-TZVPPD
   F. Weigend and R. Ahlrichs, Phys. Chem. Chem. Phys. 7, 3297 (2005).
   D. Rappoport and F. Furche, J. Chem. Phys. 133 134105 (2010).

----- AuxJK basis set information -----
Your calculation utilizes the auxiliary basis: def2/JK
   H-Ba, Hf-Rn: F. Weigend, J. Comput. Chem. 29, 167 (2008).

================================================================================
                                        WARNINGS
                       Please study these warnings very carefully!
================================================================================

INFO   : Found keyword 'NumGrad' for Energy calculation
  ===> : Setting RunTyp to EnGrad

WARNING: Numerical Gradient with sloppy Convergence Criteria    
         Your results may be not reliable!                      
         Please choose at least TightSCF!                       

WARNING: your system is open-shell and RHF/RKS was chosen
  ===> : WILL SWITCH to UHF/UKS


INFO   : the flag for use of LIBINT has been found!

================================================================================
                                       INPUT FILE
================================================================================
NAME = CH2.in
|  1> #
|  2> # CH2 wB97X-V/Def2-TZVPPD
|  3> #
|  4> ! wb97x-v def2-tzvppd def2/jk grid4 nofinalgrid numgrad
|  5> 
|  6> *xyz 0 3
|  7> C          0.00000        0.00000        0.00000
|  8> H          0.00000        0.00000        1.07672
|  9> H          0.77665        0.00000       -0.74575
| 10> *
| 11> 
| 12> %maxcore 5000
| 13> 
| 14> %pal
| 15> nprocs = 28
| 16> end
| 17> 
| 18> 
| 19>                          ****END OF INPUT****
================================================================================

                     *******************************
                     * Energy+Gradient Calculation *
                     *******************************

---------------------------------
CARTESIAN COORDINATES (ANGSTROEM)
---------------------------------
  C      0.000000    0.000000    0.000000
  H      0.000000    0.000000    1.076720
  H      0.776650    0.000000   -0.745750

----------------------------
CARTESIAN COORDINATES (A.U.)
----------------------------
  NO LB      ZA    FRAG     MASS         X           Y           Z
   0 C     6.0000    0    12.011    0.000000    0.000000    0.000000
   1 H     1.0000    0     1.008    0.000000    0.000000    2.034706
   2 H     1.0000    0     1.008    1.467656    0.000000   -1.409263

--------------------------------
INTERNAL COORDINATES (ANGSTROEM)
--------------------------------
 C      0   0   0     0.000000000000     0.00000000     0.00000000
 H      1   0   0     1.076720000000     0.00000000     0.00000000
 H      1   2   0     1.076721080410   133.83723297     0.00000000

---------------------------
INTERNAL COORDINATES (A.U.)
---------------------------
 C      0   0   0     0.000000000000     0.00000000     0.00000000
 H      1   0   0     2.034705922916     0.00000000     0.00000000
 H      1   2   0     2.034707964595   133.83723297     0.00000000

---------------------
BASIS SET INFORMATION
---------------------
There are 2 groups of distinct atoms

 Group   1 Type C   : 12s6p3d1f contracted to 6s3p3d1f pattern {621111/411/111/1}
 Group   2 Type H   : 5s3p1d contracted to 3s3p1d pattern {311/111/1}

Atom   0C    basis set group =>   1
Atom   1H    basis set group =>   2
Atom   2H    basis set group =>   2
----------------------------------
AUXILIARY/JK BASIS SET INFORMATION
----------------------------------
There are 2 groups of distinct atoms

 Group   1 Type C   : 14s10p6d2f1g contracted to 10s8p5d1f1g pattern {5111111111/31111111/21111/2/1}
 Group   2 Type H   : 4s2p2d contracted to 2s2p2d pattern {31/11/11}

Atom   0C    basis set group =>   1
Atom   1H    basis set group =>   2
Atom   2H    basis set group =>   2


           ************************************************************
           *        Program running with 28 parallel MPI-processes    *
           *              working on a common directory               *
           ************************************************************
------------------------------------------------------------------------------
                           ORCA GTO INTEGRAL CALCULATION
------------------------------------------------------------------------------

                         BASIS SET STATISTICS AND STARTUP INFO

 # of primitive gaussian shells          ...   40
 # of primitive gaussian functions       ...   90
 # of contracted shells                  ...   27
 # of contracted basis functions         ...   71
 Highest angular momentum                ...    3
 Maximum contraction depth               ...    6
 Integral package used                   ... LIBINT
 Integral threshhold            Thresh   ...  1.000e-10
 Primitive cut-off              TCut     ...  1.000e-11


------------------------------ INTEGRAL EVALUATION ----------------------------


 * One electron integrals 
 Pre-screening matrix                    ... done
 Shell pair data                         ... done (   0.000 sec)



           ************************************************************
           *        Program running with 28 parallel MPI-processes    *
           *              working on a common directory               *
           ************************************************************
-------------------------------------------------------------------------------
                                 ORCA SCF
-------------------------------------------------------------------------------

------------
SCF SETTINGS
------------
Hamiltonian:
 Density Functional     Method          .... DFT(GTOs)
 Exchange Functional    Exchange        .... WB97X-V
 Correlation Functional Correlation     .... WB97X-V
 Gradients option       PostSCFGGA      .... off
 Hybrid DFT is turned on
   Fraction HF Exchange ScalHFX         ....  0.167000
   Scaling of DF-GGA-X  ScalDFX         ....  0.000000
   Scaling of DF-GGA-C  ScalDFC         ....  1.000000
   Scaling of DF-LDA-C  ScalLDAC        ....  1.000000
   Perturbative correction              ....  0.000000
   Density functional embedding theory  .... OFF
 Long-range corrected/Screened/Range-Separated Hybrid DFT is turned on
   Amount of maximum screened exact exchange              ....  0.833000
   Range separation parameter mu (erf(mu*r12)/r12)        ....  0.300000
   NL short-range parameter             ....  6.000000
   NL long-range parameter              ....  0.010000


General Settings:
 Integral files         IntName         .... CH2
 Hartree-Fock type      HFTyp           .... UHF
 Total Charge           Charge          ....    0
 Multiplicity           Mult            ....    3
 Number of Electrons    NEL             ....    8
 Basis Dimension        Dim             ....   71
 Nuclear Repulsion      ENuc            ....      6.1647739848 Eh

Convergence Acceleration:
 DIIS                   CNVDIIS         .... on
   Start iteration      DIISMaxIt       ....    12
   Startup error        DIISStart       ....  0.200000
   # of expansion vecs  DIISMaxEq       ....     5
   Bias factor          DIISBfac        ....   1.050
   Max. coefficient     DIISMaxC        ....  10.000
 Newton-Raphson         CNVNR           .... off
 SOSCF                  CNVSOSCF        .... off
 Level Shifting         CNVShift        .... on
   Level shift para.    LevelShift      ....    0.2500
   Turn off err/grad.   ShiftErr        ....    0.0010
 Zerner damping         CNVZerner       .... off
 Static damping         CNVDamp         .... on
   Fraction old density DampFac         ....    0.7000
   Max. Damping (<1)    DampMax         ....    0.9800
   Min. Damping (>=0)   DampMin         ....    0.0000
   Turn off err/grad.   DampErr         ....    0.1000
 Fernandez-Rico         CNVRico         .... off

SCF Procedure:
 Maximum # iterations   MaxIter         ....   125
 SCF integral mode      SCFMode         .... Direct
   Integral package                     .... LIBINT
 Reset frequency        DirectResetFreq ....    20
 Integral Threshold     Thresh          ....  1.000e-10 Eh
 Primitive CutOff       TCut            ....  1.000e-11 Eh

Convergence Tolerance:
 Convergence Check Mode ConvCheckMode   .... Total+1el-Energy
 Convergence forced     ConvForced      .... 0
 Energy Change          TolE            ....  1.000e-06 Eh
 1-El. energy change                    ....  1.000e-03 Eh
 DIIS Error             TolErr          ....  1.000e-06


Diagonalization of the overlap matrix:
Smallest eigenvalue                        ... 1.017e-04
Time for diagonalization                   ...    0.002 sec
Threshold for overlap eigenvalues          ... 1.000e-08
Number of eigenvalues below threshold      ... 0
Time for construction of square roots      ...    0.101 sec
Total time needed                          ...    0.103 sec

-------------------
DFT GRID GENERATION
-------------------

General Integration Accuracy     IntAcc      ...  4.670
Radial Grid Type                 RadialGrid  ... Gauss-Chebyshev
Angular Grid (max. acc.)         AngularGrid ... Lebedev-302
Angular grid pruning method      GridPruning ... 3 (G Style)
Weight generation scheme         WeightScheme... Becke
Basis function cutoff            BFCut       ...    1.0000e-10
Integration weight cutoff        WCut        ...    1.0000e-14
Grids for H and He will be reduced by one unit

# of grid points (after initial pruning)     ...  13000 (   0.0 sec)
# of grid points (after weights+screening)   ...  12891 (   0.0 sec)
nearest neighbour list constructed           ...    0.0 sec
Grid point re-assignment to atoms done       ...    0.0 sec
Grid point division into batches done        ...    0.0 sec
Reduced shell lists constructed in    0.0 sec

Total number of grid points                  ...    12891
Total number of batches                      ...      202
Average number of points per batch           ...       63
Average number of grid points per atom       ...     4297
Average number of shells per batch           ...    13.22 (48.97%)
Average number of basis functions per batch  ...    33.00 (46.48%)
Average number of large shells per batch     ...    10.11 (76.47%)
Average number of large basis fcns per batch ...    25.22 (76.43%)
Maximum spatial batch extension              ...  14.04, 26.79, 13.02 au
Average spatial batch extension              ...   0.45,  0.62,  0.36 au

Time for grid setup =    1.610 sec

------------------------------
INITIAL GUESS: MODEL POTENTIAL
------------------------------
Loading Hartree-Fock densities                     ... done
Calculating cut-offs                               ... done
Setting up the integral package                    ... done
Initializing the effective Hamiltonian             ... done
Starting the Coulomb interaction                   ... done (   0.0 sec)
Reading the grid                                   ... done
Mapping shells                                     ... done
Starting the XC term evaluation                    ... done (   0.0 sec)
  promolecular density results
     # of electrons  =      7.999016147
     EX              =     -3.658690628
     EC              =     -0.288145192
     EX+EC           =     -3.946835820
Transforming the Hamiltonian                       ... done (   0.0 sec)
Diagonalizing the Hamiltonian                      ... done (   0.0 sec)
Back transforming the eigenvectors                 ... done (   0.0 sec)
Now organizing SCF variables                       ... done
                      ------------------
                      INITIAL GUESS DONE (   1.8 sec)
                      ------------------
--------------
SCF ITERATIONS
--------------
ITER       Energy         Delta-E        Max-DP      RMS-DP      [F,P]     Damp
               ***  Starting incremental Fock matrix formation  ***
  0    -39.1573027165   0.000000000000 0.12267755  0.00197986  0.2713230 0.7000
  1    -39.1640978387  -0.006795122201 0.11174981  0.00186388  0.1825902 0.7000
                               ***Turning on DIIS***
  2    -39.1688988433  -0.004801004610 0.08633577  0.00148225  0.1219987 0.7000
  3    -39.1722993817  -0.003400538369 0.21795737  0.00389790  0.0818050 0.0000
  4    -39.1813283777  -0.009028996045 0.02176515  0.00052694  0.0078773 0.0000
  5    -39.1817291331  -0.000400755441 0.01415144  0.00033355  0.0036750 0.0000
  6    -39.1818553729  -0.000126239789 0.00691295  0.00015972  0.0013112 0.0000
  7    -39.1818829108  -0.000027537903 0.00319238  0.00007299  0.0004611 0.0000
  8    -39.1818865747  -0.000003663848 0.00023565  0.00000631  0.0000641 0.0000
                 **** Energy Check signals convergence ****

               *****************************************************
               *                     SUCCESS                       *
               *           SCF CONVERGED AFTER   9 CYCLES          *
               *****************************************************


Setting up the DFT-NL grid :

General Integration Accuracy     IntAcc      ...  4.340
Radial Grid Type                 RadialGrid  ... Gauss-Chebyshev
Angular Grid (max. acc.)         AngularGrid ... Lebedev-110
Angular grid pruning method      GridPruning ... 3 (G Style)
Weight generation scheme         WeightScheme... Becke
Basis function cutoff            BFCut       ...    1.0000e-10
Integration weight cutoff        WCut        ...    1.0000e-14
Grids for H and He will be reduced by one unit

# of grid points (after initial pruning)     ...   3244 (   0.0 sec)
# of grid points (after weights+screening)   ...   3198 (   0.0 sec)
nearest neighbour list constructed           ...    0.0 sec
Grid point re-assignment to atoms done       ...    0.0 sec
Grid point division into batches done        ...    0.0 sec
Reduced shell lists constructed in    0.0 sec

Total number of grid points                  ...     3198
Total number of batches                      ...       52
Average number of points per batch           ...       61
Average number of grid points per atom       ...     1066
Average number of shells per batch           ...    15.33 (56.79%)
Average number of basis functions per batch  ...    42.00 (59.15%)
Average number of large shells per batch     ...    13.33 (86.96%)
Average number of large basis fcns per batch ...    36.00 (85.71%)
Maximum spatial batch extension              ...  17.70, 31.36, 15.68 au
Average spatial batch extension              ...   0.54,  0.98,  0.50 au

Final grid set up in    2.1 sec

-------------------------------------------------------------------------------
                         DFT-NL dispersion correction                          
-------------------------------------------------------------------------------

SC Energy -39.181886667 
NL    Energy 0.033899200 
SC+NL Energy -39.147987467 
NL done in    1.9 sec
-------------------------------------------------------------------------------

----------------
TOTAL SCF ENERGY
----------------

Total Energy       :          -39.14798747 Eh           -1065.27090 eV

Components:
Nuclear Repulsion  :            6.16477398 Eh             167.75203 eV
Electronic Energy  :          -45.31276145 Eh           -1233.02292 eV
One Electron Energy:          -63.96189705 Eh           -1740.49170 eV
Two Electron Energy:           18.64913560 Eh             507.46878 eV

Virial components:
Potential Energy   :          -78.16097735 Eh           -2126.86832 eV
Kinetic Energy     :           39.01298988 Eh            1061.59743 eV
Virial Ratio       :            2.00346032


DFT components:
N(Alpha)           :        5.000000254087 electrons
N(Beta)            :        2.999998360667 electrons
N(Total)           :        7.999998614754 electrons
E(X)               :       -3.827266485246 Eh       
E(C)               :       -0.266382610759 Eh       
NL Energy, E(C,NL) :        0.033899200185 Eh       
E(XC)              :       -4.059749895820 Eh       
DFET-embed. en.    :        0.000000000000 Eh       

---------------
SCF CONVERGENCE
---------------

  Last Energy change         ...   -9.2718e-08  Tolerance :   1.0000e-06
  Last MAX-Density change    ...    7.1595e-05  Tolerance :   1.0000e-05
  Last RMS-Density change    ...    2.3616e-06  Tolerance :   1.0000e-06
  Last DIIS Error            ...    2.0932e-05  Tolerance :   1.0000e-06

             **** THE GBW FILE WAS UPDATED (CH2.gbw) ****
             **** DENSITY FILE WAS UPDATED (CH2.scfp) ****
             **** ENERGY FILE WAS UPDATED (CH2.en.tmp) ****
----------------------
UHF SPIN CONTAMINATION
----------------------

Warning: in a DFT calculation there is little theoretical justification to 
         calculate <S**2> as in Hartree-Fock theory. We will do it anyways
         but you should keep in mind that the values have only limited relevance

Expectation value of <S**2>     :     2.004794
Ideal value S*(S+1) for S=1.0   :     2.000000
Deviation                       :     0.004794

             **** THE GBW FILE WAS UPDATED (CH2.gbw) ****
             **** DENSITY FILE WAS UPDATED (CH2.scfp) ****
----------------
ORBITAL ENERGIES
----------------
                 SPIN UP ORBITALS
  NO   OCC          E(Eh)            E(eV) 
   0   1.0000     -10.314566      -280.6736 
   1   1.0000      -0.812235       -22.1020 
   2   1.0000      -0.570191       -15.5157 
   3   1.0000      -0.389170       -10.5899 
   4   1.0000      -0.352385        -9.5889 
   5   0.0000       0.067501         1.8368 
   6   0.0000       0.144014         3.9188 
   7   0.0000       0.166753         4.5376 
   8   0.0000       0.202965         5.5230 
   9   0.0000       0.225352         6.1321 
  10   0.0000       0.234341         6.3767 
  11   0.0000       0.243296         6.6204 
  12   0.0000       0.267622         7.2824 
  13   0.0000       0.269581         7.3357 
  14   0.0000       0.301139         8.1944 
  15   0.0000       0.357267         9.7217 
  16   0.0000       0.376669        10.2497 
  17   0.0000       0.386560        10.5188 
  18   0.0000       0.393887        10.7182 
  19   0.0000       0.458727        12.4826 
  20   0.0000       0.467245        12.7144 
  21   0.0000       0.521115        14.1803 
  22   0.0000       0.563613        15.3367 
  23   0.0000       0.756054        20.5733 
  24   0.0000       0.801171        21.8010 
  25   0.0000       0.816646        22.2221 
  26   0.0000       0.887686        24.1552 
  27   0.0000       0.890699        24.2371 
  28   0.0000       0.922542        25.1036 
  29   0.0000       1.032436        28.0940 
  30   0.0000       1.102167        29.9915 
  31   0.0000       1.246899        33.9299 
  32   0.0000       1.360994        37.0345 
  33   0.0000       1.365041        37.1447 
  34   0.0000       1.534603        41.7587 
  35   0.0000       1.564817        42.5808 
  36   0.0000       1.654540        45.0223 
  37   0.0000       1.743489        47.4427 
  38   0.0000       1.774065        48.2748 
  39   0.0000       1.859393        50.5966 
  40   0.0000       2.662739        72.4568 
  41   0.0000       2.682858        73.0043 
  42   0.0000       2.701503        73.5116 
  43   0.0000       2.755788        74.9888 
  44   0.0000       2.755862        74.9908 
  45   0.0000       2.848810        77.5201 
  46   0.0000       2.939224        79.9803 
  47   0.0000       3.015226        82.0485 
  48   0.0000       3.065448        83.4151 
  49   0.0000       3.116354        84.8003 
  50   0.0000       3.148635        85.6787 
  51   0.0000       3.211405        87.3868 
  52   0.0000       3.447860        93.8211 
  53   0.0000       3.583914        97.5232 
  54   0.0000       3.640247        99.0562 
  55   0.0000       3.714465       101.0757 
  56   0.0000       3.808026       103.6217 
  57   0.0000       3.843257       104.5803 
  58   0.0000       4.034817       109.7929 
  59   0.0000       4.084835       111.1540 
  60   0.0000       4.114849       111.9707 
  61   0.0000       4.153553       113.0239 
  62   0.0000       4.635145       126.1287 
  63   0.0000       4.930803       134.1740 
  64   0.0000       4.946669       134.6057 
  65   0.0000       4.973611       135.3388 
  66   0.0000       5.101380       138.8156 
  67   0.0000       5.295206       144.0899 
  68   0.0000       5.685825       154.7192 
  69   0.0000       5.735568       156.0727 
  70   0.0000      22.806597       620.5991 

                 SPIN DOWN ORBITALS
  NO   OCC          E(Eh)            E(eV) 
   0   1.0000     -10.291504      -280.0460 
   1   1.0000      -0.729677       -19.8555 
   2   1.0000      -0.546202       -14.8629 
   3   0.0000      -0.004945        -0.1346 
   4   0.0000       0.022162         0.6031 
   5   0.0000       0.078790         2.1440 
   6   0.0000       0.149924         4.0796 
   7   0.0000       0.179830         4.8934 
   8   0.0000       0.232012         6.3134 
   9   0.0000       0.233635         6.3575 
  10   0.0000       0.251009         6.8303 
  11   0.0000       0.266896         7.2626 
  12   0.0000       0.288789         7.8583 
  13   0.0000       0.292780         7.9669 
  14   0.0000       0.318899         8.6777 
  15   0.0000       0.364966         9.9312 
  16   0.0000       0.393812        10.7162 
  17   0.0000       0.402511        10.9529 
  18   0.0000       0.405908        11.0453 
  19   0.0000       0.478598        13.0233 
  20   0.0000       0.489650        13.3241 
  21   0.0000       0.526770        14.3342 
  22   0.0000       0.594037        16.1646 
  23   0.0000       0.772517        21.0212 
  24   0.0000       0.823390        22.4056 
  25   0.0000       0.846485        23.0340 
  26   0.0000       0.935104        25.4455 
  27   0.0000       0.935815        25.4648 
  28   0.0000       0.944488        25.7008 
  29   0.0000       1.062315        28.9071 
  30   0.0000       1.126531        30.6545 
  31   0.0000       1.268644        34.5216 
  32   0.0000       1.383946        37.6591 
  33   0.0000       1.384499        37.6741 
  34   0.0000       1.544112        42.0174 
  35   0.0000       1.583650        43.0933 
  36   0.0000       1.724411        46.9236 
  37   0.0000       1.792135        48.7665 
  38   0.0000       1.824962        49.6597 
  39   0.0000       1.887287        51.3557 
  40   0.0000       2.671651        72.6993 
  41   0.0000       2.741353        74.5960 
  42   0.0000       2.749313        74.8126 
  43   0.0000       2.796062        76.0847 
  44   0.0000       2.797242        76.1168 
  45   0.0000       2.882373        78.4334 
  46   0.0000       2.989475        81.3478 
  47   0.0000       3.056325        83.1668 
  48   0.0000       3.118921        84.8701 
  49   0.0000       3.227174        87.8159 
  50   0.0000       3.252433        88.5032 
  51   0.0000       3.272323        89.0444 
  52   0.0000       3.468668        94.3873 
  53   0.0000       3.603485        98.0558 
  54   0.0000       3.674624        99.9916 
  55   0.0000       3.733754       101.6006 
  56   0.0000       3.824512       104.0703 
  57   0.0000       3.878908       105.5505 
  58   0.0000       4.037957       109.8784 
  59   0.0000       4.093655       111.3940 
  60   0.0000       4.121283       112.1458 
  61   0.0000       4.168946       113.4428 
  62   0.0000       4.656964       126.7224 
  63   0.0000       4.948537       134.6565 
  64   0.0000       4.980888       135.5368 
  65   0.0000       5.006629       136.2373 
  66   0.0000       5.130485       139.6076 
  67   0.0000       5.316906       144.6804 
  68   0.0000       5.706521       155.2823 
  69   0.0000       5.759322       156.7191 
  70   0.0000      22.836593       621.4153 

                    ********************************
                    * MULLIKEN POPULATION ANALYSIS *
                    ********************************

--------------------------------------------
MULLIKEN ATOMIC CHARGES AND SPIN POPULATIONS
--------------------------------------------
   0 C :   -0.163070    1.922252
   1 H :    0.081504    0.038858
   2 H :    0.081566    0.038890
Sum of atomic charges         :   -0.0000000
Sum of atomic spin populations:    2.0000000

-----------------------------------------------------
MULLIKEN REDUCED ORBITAL CHARGES AND SPIN POPULATIONS
-----------------------------------------------------
CHARGE
  0 C s       :     3.307965  s :     3.307965
      pz      :     0.995495  p :     2.834059
      px      :     0.891194
      py      :     0.947370
      dz2     :     0.009509  d :     0.019663
      dxz     :     0.007747
      dyz     :    -0.000001
      dx2y2   :     0.002414
      dxy     :    -0.000006
      f0      :     0.000645  f :     0.001382
      f+1     :     0.000380
      f-1     :    -0.000008
      f+2     :     0.000308
      f-2     :    -0.000005
      f+3     :     0.000060
      f-3     :     0.000002
  1 H s       :     0.850498  s :     0.850498
      pz      :     0.020524  p :     0.066161
      px      :     0.020159
      py      :     0.025479
      dz2     :     0.000288  d :     0.001836
      dxz     :     0.000701
      dyz     :     0.000845
      dx2y2   :     0.000002
      dxy     :     0.000000
  2 H s       :     0.850444  s :     0.850444
      pz      :     0.010472  p :     0.066154
      px      :     0.030202
      py      :     0.025479
      dz2     :     0.000560  d :     0.001837
      dxz     :     0.000201
      dyz     :     0.000435
      dx2y2   :     0.000229
      dxy     :     0.000411

SPIN
  0 C s       :     0.123463  s :     0.123463
      pz      :     0.158986  p :     1.802749
      px      :     0.696393
      py      :     0.947370
      dz2     :    -0.001444  d :    -0.002889
      dxz     :    -0.001154
      dyz     :    -0.000001
      dx2y2   :    -0.000284
      dxy     :    -0.000006
      f0      :    -0.000468  f :    -0.001071
      f+1     :    -0.000372
      f-1     :    -0.000008
      f+2     :    -0.000197
      f-2     :    -0.000005
      f+3     :    -0.000022
      f-3     :     0.000002
  1 H s       :    -0.013176  s :    -0.013176
      pz      :     0.006628  p :     0.050431
      px      :     0.018324
      py      :     0.025479
      dz2     :     0.000079  d :     0.001604
      dxz     :     0.000679
      dyz     :     0.000845
      dx2y2   :     0.000000
      dxy     :     0.000000
  2 H s       :    -0.013141  s :    -0.013141
      pz      :     0.003856  p :     0.050428
      px      :     0.021093
      py      :     0.025479
      dz2     :     0.000507  d :     0.001604
      dxz     :     0.000074
      dyz     :     0.000435
      dx2y2   :     0.000177
      dxy     :     0.000411


                     *******************************
                     * LOEWDIN POPULATION ANALYSIS *
                     *******************************

-------------------------------------------
LOEWDIN ATOMIC CHARGES AND SPIN POPULATIONS
-------------------------------------------
   0 C :    0.363971    1.595938
   1 H :   -0.181987    0.202031
   2 H :   -0.181985    0.202031

----------------------------------------------------
LOEWDIN REDUCED ORBITAL CHARGES AND SPIN POPULATIONS
----------------------------------------------------
CHARGE
  0 C s       :     2.954358  s :     2.954358
      pz      :     1.020037  p :     2.598943
      px      :     0.799093
      py      :     0.779813
      dz2     :     0.037271  d :     0.075734
      dxz     :     0.031217
      dyz     :     0.000114
      dx2y2   :     0.006504
      dxy     :     0.000628
      f0      :     0.002936  f :     0.006994
      f+1     :     0.000815
      f-1     :     0.000682
      f+2     :     0.001854
      f-2     :     0.000246
      f+3     :     0.000378
      f-3     :     0.000083
  1 H s       :     0.796663  s :     0.796663
      pz      :     0.171912  p :     0.353243
      px      :     0.083219
      py      :     0.098111
      dz2     :     0.011906  d :     0.032081
      dxz     :     0.009065
      dyz     :     0.011106
      dx2y2   :     0.000005
      dxy     :     0.000000
  2 H s       :     0.796661  s :     0.796661
      pz      :     0.119620  p :     0.353242
      px      :     0.135511
      py      :     0.098111
      dz2     :     0.007067  d :     0.032081
      dxz     :     0.008857
      dyz     :     0.005312
      dx2y2   :     0.005051
      dxy     :     0.005793

SPIN
  0 C s       :     0.090062  s :     0.090062
      pz      :     0.123284  p :     1.503437
      px      :     0.600340
      py      :     0.779813
      dz2     :     0.001234  d :     0.002550
      dxz     :     0.001437
      dyz     :     0.000114
      dx2y2   :    -0.000863
      dxy     :     0.000628
      f0      :    -0.000555  f :    -0.000111
      f+1     :    -0.000262
      f-1     :     0.000682
      f+2     :    -0.000266
      f-2     :     0.000246
      f+3     :    -0.000039
      f-3     :     0.000083
  1 H s       :    -0.007616  s :    -0.007616
      pz      :     0.024442  p :     0.190059
      px      :     0.067505
      py      :     0.098111
      dz2     :     0.000884  d :     0.019588
      dxz     :     0.007597
      dyz     :     0.011106
      dx2y2   :     0.000002
      dxy     :     0.000000
  2 H s       :    -0.007616  s :    -0.007616
      pz      :     0.017266  p :     0.190059
      px      :     0.074681
      py      :     0.098111
      dz2     :     0.005715  d :     0.019588
      dxz     :     0.000708
      dyz     :     0.005312
      dx2y2   :     0.002060
      dxy     :     0.005793


                      *****************************
                      * MAYER POPULATION ANALYSIS *
                      *****************************

  NA   - Mulliken gross atomic population
  ZA   - Total nuclear charge
  QA   - Mulliken gross atomic charge
  VA   - Mayer's total valence
  BVA  - Mayer's bonded valence
  FA   - Mayer's free valence

  ATOM       NA         ZA         QA         VA         BVA        FA
  0 C      6.1631     6.0000    -0.1631     3.8797     2.1435     1.7363
  1 H      0.9185     1.0000     0.0815     1.0746     1.0714     0.0032
  2 H      0.9184     1.0000     0.0816     1.0745     1.0714     0.0032

  Mayer bond orders larger than 0.100000
B(  0-C ,  1-H ) :   1.0717 B(  0-C ,  2-H ) :   1.0717 

-------
TIMINGS
-------

Total SCF time: 0 days 0 hours 1 min 19 sec 

Total time                  ....      79.934 sec
Sum of individual times     ....      75.059 sec  ( 93.9%)

Fock matrix formation       ....      69.081 sec  ( 86.4%)
  XC integration            ....      68.672 sec  ( 99.4% of F)
    Basis function eval.    ....       0.010 sec  (  0.0% of XC)
    Density eval.           ....       0.013 sec  (  0.0% of XC)
    XC-Functional eval.     ....       0.015 sec  (  0.0% of XC)
    XC-Potential eval.      ....       0.017 sec  (  0.0% of XC)
Diagonalization             ....       1.522 sec  (  1.9%)
Density matrix formation    ....       0.004 sec  (  0.0%)
Population analysis         ....       0.525 sec  (  0.7%)
Initial guess               ....       0.186 sec  (  0.2%)
Orbital Transformation      ....       0.000 sec  (  0.0%)
Orbital Orthonormalization  ....       0.000 sec  (  0.0%)
DIIS solution               ....       0.063 sec  (  0.1%)
Grid generation             ....       3.679 sec  (  4.6%)

-------------------------   --------------------
FINAL SINGLE POINT ENERGY       -39.147987467216
-------------------------   --------------------


----------------------------------------------------------------------------
                           ORCA NUMERICAL GRADIENT
                              (28-process run)
----------------------------------------------------------------------------

I state                        ... 1
J state                        ... 0
Number of atoms                ... 3
Derivative's order of accuracy ... 2
Central differences            ... used
Number of displacements        ... 18
Numerical increment            ... 5.000e-03 bohr
Translation invariance         ... used

The output will be reduced. Please look at the following files:
SCF program output             ... >CH2.lastscf
Integral program output        ... >CH2.lastint
Gradient program output        ... >CH2.lastgrad


     Note:   There are more processes than displacements to do
     ===>:   Reducing number of processes to   6

             <<<Displacing   3/coordinate 3 (+)>>>
             <<<Displacing   2/coordinate 1 (+)>>>
             <<<Displacing   2/coordinate 2 (+)>>>
             <<<Displacing   3/coordinate 1 (+)>>>
             <<<Displacing   2/coordinate 3 (+)>>>
             <<<Displacing   3/coordinate 2 (+)>>>
             <<<Displacing   3/coordinate 1 (-)>>>
             <<<Displacing   3/coordinate 2 (-)>>>
             <<<Displacing   2/coordinate 2 (-)>>>
             <<<Displacing   2/coordinate 1 (-)>>>
             <<<Displacing   2/coordinate 3 (-)>>>
             <<<Displacing   3/coordinate 3 (-)>>>

------------------------------
CARTESIAN GRADIENT (NUMERICAL)
-------------------------------
   1   C   :    0.000755144   -0.000000000    0.000335571
   2   H   :    0.000872814    0.000000000   -0.003106074
   3   H   :   -0.001627958   -0.000000000    0.002770503

Norm of the cartesian gradient     ...    0.004627989
RMS gradient                       ...    0.001542663
MAX gradient                       ...    0.003106074

-------
TIMINGS
-------

Total numerical gradient time      ...       28.361 sec


                            ***************************************
                            *     ORCA property calculations      *
                            ***************************************

                                    ---------------------
                                    Active property flags
                                    ---------------------
   (+) Dipole Moment


------------------------------------------------------------------------------
                       ORCA ELECTRIC PROPERTIES CALCULATION
------------------------------------------------------------------------------

Dipole Moment Calculation                       ... on
Quadrupole Moment Calculation                   ... off
Polarizability Calculation                      ... off
GBWName                                         ... CH2.gbw
Electron density file                           ... CH2.scfp
The origin for moment calculation is the CENTER OF MASS  = ( 0.105468,  0.000000  0.044945)

-------------
DIPOLE MOMENT
-------------
                                X             Y             Z
Electronic contribution:     -0.39128       0.00000      -0.16674
Nuclear contribution   :      0.62391       0.00000       0.26588
                        -----------------------------------------
Total Dipole Moment    :      0.23264       0.00000       0.09914
                        -----------------------------------------
Magnitude (a.u.)       :      0.25288
Magnitude (Debye)      :      0.64277



--------------------
Rotational spectrum 
--------------------
 
Rotational constants in cm-1:    54.806134     8.522616     7.375665 
Rotational constants in MHz : 1643046.573679 255501.612999 221116.879072 

 Dipole components along the rotational axes: 
x,y,z [a.u.] :     0.000000     0.252879    -0.000000 
x,y,z [Debye]:     0.000001     0.642768    -0.000000 

 

Timings for individual modules:

Sum of individual times         ...      110.441 sec (=   1.841 min)
GTO integral calculation        ...        1.283 sec (=   0.021 min)   1.2 %
SCF iterations                  ...       80.797 sec (=   1.347 min)  73.2 %
SCF Gradient evaluation         ...       28.361 sec (=   0.473 min)  25.7 %
                             ****ORCA TERMINATED NORMALLY****
TOTAL RUN TIME: 0 days 0 hours 4 minutes 29 seconds 554 msec
