
                                 *****************
                                 * O   R   C   A *
                                 *****************

           --- An Ab Initio, DFT and Semiempirical electronic structure package ---

                  #######################################################
                  #                        -***-                        #
                  #          Department of theory and spectroscopy      #
                  #               Directorship: Frank Neese             #
                  #        Max Planck Institute fuer Kohlenforschung    #
                  #                Kaiser Wilhelm Platz 1               #
                  #                 D-45470 Muelheim/Ruhr               #
                  #                      Germany                        #
                  #                                                     #
                  #                  All rights reserved                #
                  #                        -***-                        #
                  #######################################################


                         Program Version 4.2.0 -  RELEASE  -


 With contributions from (in alphabetic order):
   Daniel Aravena         : Magnetic Suceptibility
   Michael Atanasov       : Ab Initio Ligand Field Theory (pilot matlab implementation)
   Alexander A. Auer      : GIAO ZORA, VPT2
   Ute Becker             : Parallelization
   Giovanni Bistoni       : ED, misc. LED, open-shell LED, HFLED
   Martin Brehm           : Molecular dynamics
   Dmytro Bykov           : SCF Hessian
   Vijay G. Chilkuri      : MRCI spin determinant printing, contributions to CSF-ICE
   Dipayan Datta          : RHF DLPNO-CCSD density
   Achintya Kumar Dutta   : EOM-CC, STEOM-CC
   Dmitry Ganyushin       : Spin-Orbit,Spin-Spin,Magnetic field MRCI
   Miquel Garcia          : C-PCM Hessian, Gaussian charge scheme
   Yang Guo               : DLPNO-NEVPT2, CIM, IAO-localization
   Andreas Hansen         : Spin unrestricted coupled pair/coupled cluster methods
   Benjamin Helmich-Paris : CASSCF linear response (MC-RPA)
   Lee Huntington         : MR-EOM, pCC
   Robert Izsak           : Overlap fitted RIJCOSX, COSX-SCS-MP3, EOM
   Christian Kollmar      : KDIIS, OOCD, Brueckner-CCSD(T), CCSD density
   Simone Kossmann        : Meta GGA functionals, TD-DFT gradient, OOMP2, MP2 Hessian
   Martin Krupicka        : AUTO-CI
   Lucas Lang             : DCDCAS
   Dagmar Lenk            : GEPOL surface, SMD
   Dimitrios Liakos       : Extrapolation schemes; Compound Job, initial MDCI parallelization
   Dimitrios Manganas     : Further ROCIS development; embedding schemes
   Dimitrios Pantazis     : SARC Basis sets
   Taras Petrenko         : DFT Hessian,TD-DFT gradient, ASA, ECA, R-Raman, ABS, FL, XAS/XES, NRVS
   Peter Pinski           : DLPNO-MP2, DLPNO-MP2 Gradient
   Christoph Reimann      : Effective Core Potentials
   Marius Retegan         : Local ZFS, SOC
   Christoph Riplinger    : Optimizer, TS searches, QM/MM, DLPNO-CCSD(T), (RO)-DLPNO pert. Triples
   Tobias Risthaus        : Range-separated hybrids, TD-DFT gradient, RPA, STAB
   Michael Roemelt        : Original ROCIS implementation
   Masaaki Saitow         : Open-shell DLPNO-CCSD energy and density
   Barbara Sandhoefer     : DKH picture change effects
   Avijit Sen             : IP-ROCIS
   Kantharuban Sivalingam : CASSCF convergence, NEVPT2, FIC-MRCI
   Bernardo de Souza      : ESD, SOC TD-DFT
   Georgi Stoychev        : AutoAux, RI-MP2 NMR
   Willem Van den Heuvel  : Paramagnetic NMR
   Boris Wezisla          : Elementary symmetry handling
   Frank Wennmohs         : Technical directorship


 We gratefully acknowledge several colleagues who have allowed us to
 interface, adapt or use parts of their codes:
   Stefan Grimme, W. Hujo, H. Kruse,             : VdW corrections, initial TS optimization,
                  C. Bannwarth                     DFT functionals, gCP, sTDA/sTD-DF
   Ed Valeev, F. Pavosevic, A. Kumar             : LibInt (2-el integral package), F12 methods
   Garnet Chan, S. Sharma, J. Yang, R. Olivares  : DMRG
   Ulf Ekstrom                                   : XCFun DFT Library
   Mihaly Kallay                                 : mrcc  (arbitrary order and MRCC methods)
   Andreas Klamt, Michael Diedenhofen            : otool_cosmo (COSMO solvation model)
   Jiri Pittner, Ondrej Demel                    : Mk-CCSD
   Frank Weinhold                                : gennbo (NPA and NBO analysis)
   Christopher J. Cramer and Donald G. Truhlar   : smd solvation model
   Lars Goerigk                                  : TD-DFT with DH, B97 family of functionals
   V. Asgeirsson, H. Jonsson                     : NEB implementation
   FAccTs GmbH                                   : IRC, NEB, NEB-TS, Multilevel, MM, QM/MM, CI optimization
   S Lehtola, MJT Oliveira, MAL Marques          : LibXC Library


 Your calculation uses the libint2 library for the computation of 2-el integrals
 For citations please refer to: http://libint.valeyev.net

 Your ORCA version has been built with support for libXC version: 4.2.3
 For citations please refer to: https://tddft.org/programs/libxc/

 This ORCA versions uses:
   CBLAS   interface :  Fast vector & matrix operations
   LAPACKE interface :  Fast linear algebra routines
   SCALAPACK package :  Parallel linear algebra routines


Your calculation utilizes the DFT-NL dispersion correction.
Cite in your paper:
Vydrov, O. A.; Van Voorhis, T. J. Chem. Phys. 2010, 133, 244103
Hujo, W.; Grimme, S. J. Chem. Theory Comput. 2011, 7, 3866 
   

----- Orbital basis set information -----
Your calculation utilizes the basis: def2-TZVPPD
   F. Weigend and R. Ahlrichs, Phys. Chem. Chem. Phys. 7, 3297 (2005).
   D. Rappoport and F. Furche, J. Chem. Phys. 133 134105 (2010).

----- AuxJK basis set information -----
Your calculation utilizes the auxiliary basis: def2/JK
   H-Ba, Hf-Rn: F. Weigend, J. Comput. Chem. 29, 167 (2008).

================================================================================
                                        WARNINGS
                       Please study these warnings very carefully!
================================================================================

INFO   : Found keyword 'NumGrad' for Energy calculation
  ===> : Setting RunTyp to EnGrad

WARNING: Numerical Gradient with sloppy Convergence Criteria    
         Your results may be not reliable!                      
         Please choose at least TightSCF!                       

INFO   : the flag for use of LIBINT has been found!

================================================================================
                                       INPUT FILE
================================================================================
NAME = CO.in
|  1> #
|  2> # CO wB97X-V/Def2-TZVPPD
|  3> #
|  4> ! wb97x-v def2-tzvppd def2/jk grid4 nofinalgrid numgrad
|  5> 
|  6> *xyz 0 1
|  7> O          0.00000        0.00000        0.00000
|  8> C          0.00000        0.00000        1.12961
|  9> *
| 10> 
| 11> %maxcore 5000
| 12> 
| 13> %pal
| 14> nprocs = 28
| 15> end
| 16> 
| 17> 
| 18>                          ****END OF INPUT****
================================================================================

                     *******************************
                     * Energy+Gradient Calculation *
                     *******************************

---------------------------------
CARTESIAN COORDINATES (ANGSTROEM)
---------------------------------
  O      0.000000    0.000000    0.000000
  C      0.000000    0.000000    1.129610

----------------------------
CARTESIAN COORDINATES (A.U.)
----------------------------
  NO LB      ZA    FRAG     MASS         X           Y           Z
   0 O     8.0000    0    15.999    0.000000    0.000000    0.000000
   1 C     6.0000    0    12.011    0.000000    0.000000    2.134654

--------------------------------
INTERNAL COORDINATES (ANGSTROEM)
--------------------------------
 O      0   0   0     0.000000000000     0.00000000     0.00000000
 C      1   0   0     1.129610000000     0.00000000     0.00000000

---------------------------
INTERNAL COORDINATES (A.U.)
---------------------------
 O      0   0   0     0.000000000000     0.00000000     0.00000000
 C      1   0   0     2.134653538139     0.00000000     0.00000000

---------------------
BASIS SET INFORMATION
---------------------
There are 2 groups of distinct atoms

 Group   1 Type O   : 12s7p3d1f contracted to 6s4p3d1f pattern {621111/4111/111/1}
 Group   2 Type C   : 12s6p3d1f contracted to 6s3p3d1f pattern {621111/411/111/1}

Atom   0O    basis set group =>   1
Atom   1C    basis set group =>   2
----------------------------------
AUXILIARY/JK BASIS SET INFORMATION
----------------------------------
There are 2 groups of distinct atoms

 Group   1 Type O   : 14s10p6d2f1g contracted to 10s8p4d2f1g pattern {5111111111/31111111/3111/11/1}
 Group   2 Type C   : 14s10p6d2f1g contracted to 10s8p5d1f1g pattern {5111111111/31111111/21111/2/1}

Atom   0O    basis set group =>   1
Atom   1C    basis set group =>   2


           ************************************************************
           *        Program running with 28 parallel MPI-processes    *
           *              working on a common directory               *
           ************************************************************
------------------------------------------------------------------------------
                           ORCA GTO INTEGRAL CALCULATION
------------------------------------------------------------------------------

                         BASIS SET STATISTICS AND STARTUP INFO

 # of primitive gaussian shells          ...   45
 # of primitive gaussian functions       ...  107
 # of contracted shells                  ...   27
 # of contracted basis functions         ...   77
 Highest angular momentum                ...    3
 Maximum contraction depth               ...    6
 Integral package used                   ... LIBINT
 Integral threshhold            Thresh   ...  1.000e-10
 Primitive cut-off              TCut     ...  1.000e-11


------------------------------ INTEGRAL EVALUATION ----------------------------


 * One electron integrals 
 Pre-screening matrix                    ... done
 Shell pair data                         ... done (   0.000 sec)



           ************************************************************
           *        Program running with 28 parallel MPI-processes    *
           *              working on a common directory               *
           ************************************************************
-------------------------------------------------------------------------------
                                 ORCA SCF
-------------------------------------------------------------------------------

------------
SCF SETTINGS
------------
Hamiltonian:
 Density Functional     Method          .... DFT(GTOs)
 Exchange Functional    Exchange        .... WB97X-V
 Correlation Functional Correlation     .... WB97X-V
 Gradients option       PostSCFGGA      .... off
 Hybrid DFT is turned on
   Fraction HF Exchange ScalHFX         ....  0.167000
   Scaling of DF-GGA-X  ScalDFX         ....  0.000000
   Scaling of DF-GGA-C  ScalDFC         ....  1.000000
   Scaling of DF-LDA-C  ScalLDAC        ....  1.000000
   Perturbative correction              ....  0.000000
   Density functional embedding theory  .... OFF
 Long-range corrected/Screened/Range-Separated Hybrid DFT is turned on
   Amount of maximum screened exact exchange              ....  0.833000
   Range separation parameter mu (erf(mu*r12)/r12)        ....  0.300000
   NL short-range parameter             ....  6.000000
   NL long-range parameter              ....  0.010000


General Settings:
 Integral files         IntName         .... CO
 Hartree-Fock type      HFTyp           .... RHF
 Total Charge           Charge          ....    0
 Multiplicity           Mult            ....    1
 Number of Electrons    NEL             ....   14
 Basis Dimension        Dim             ....   77
 Nuclear Repulsion      ENuc            ....     22.4860845764 Eh

Convergence Acceleration:
 DIIS                   CNVDIIS         .... on
   Start iteration      DIISMaxIt       ....    12
   Startup error        DIISStart       ....  0.200000
   # of expansion vecs  DIISMaxEq       ....     5
   Bias factor          DIISBfac        ....   1.050
   Max. coefficient     DIISMaxC        ....  10.000
 Newton-Raphson         CNVNR           .... off
 SOSCF                  CNVSOSCF        .... on
   Start iteration      SOSCFMaxIt      ....   150
   Startup grad/error   SOSCFStart      ....  0.003300
 Level Shifting         CNVShift        .... on
   Level shift para.    LevelShift      ....    0.2500
   Turn off err/grad.   ShiftErr        ....    0.0010
 Zerner damping         CNVZerner       .... off
 Static damping         CNVDamp         .... on
   Fraction old density DampFac         ....    0.7000
   Max. Damping (<1)    DampMax         ....    0.9800
   Min. Damping (>=0)   DampMin         ....    0.0000
   Turn off err/grad.   DampErr         ....    0.1000
 Fernandez-Rico         CNVRico         .... off

SCF Procedure:
 Maximum # iterations   MaxIter         ....   125
 SCF integral mode      SCFMode         .... Direct
   Integral package                     .... LIBINT
 Reset frequency        DirectResetFreq ....    20
 Integral Threshold     Thresh          ....  1.000e-10 Eh
 Primitive CutOff       TCut            ....  1.000e-11 Eh

Convergence Tolerance:
 Convergence Check Mode ConvCheckMode   .... Total+1el-Energy
 Convergence forced     ConvForced      .... 0
 Energy Change          TolE            ....  1.000e-06 Eh
 1-El. energy change                    ....  1.000e-03 Eh
 Orbital Gradient       TolG            ....  5.000e-05
 Orbital Rotation angle TolX            ....  5.000e-05
 DIIS Error             TolErr          ....  1.000e-06


Diagonalization of the overlap matrix:
Smallest eigenvalue                        ... 2.171e-04
Time for diagonalization                   ...    0.002 sec
Threshold for overlap eigenvalues          ... 1.000e-08
Number of eigenvalues below threshold      ... 0
Time for construction of square roots      ...    0.152 sec
Total time needed                          ...    0.154 sec

-------------------
DFT GRID GENERATION
-------------------

General Integration Accuracy     IntAcc      ...  4.670
Radial Grid Type                 RadialGrid  ... Gauss-Chebyshev
Angular Grid (max. acc.)         AngularGrid ... Lebedev-302
Angular grid pruning method      GridPruning ... 3 (G Style)
Weight generation scheme         WeightScheme... Becke
Basis function cutoff            BFCut       ...    1.0000e-10
Integration weight cutoff        WCut        ...    1.0000e-14
Grids for H and He will be reduced by one unit

# of grid points (after initial pruning)     ...  12424 (   0.0 sec)
# of grid points (after weights+screening)   ...  12393 (   0.0 sec)
nearest neighbour list constructed           ...    0.0 sec
Grid point re-assignment to atoms done       ...    0.0 sec
Grid point division into batches done        ...    0.1 sec
Reduced shell lists constructed in    0.1 sec

Total number of grid points                  ...    12393
Total number of batches                      ...      195
Average number of points per batch           ...       63
Average number of grid points per atom       ...     6196
Average number of shells per batch           ...     7.75 (28.70%)
Average number of basis functions per batch  ...    20.00 (25.97%)
Average number of large shells per batch     ...     5.62 (72.58%)
Average number of large basis fcns per batch ...    15.38 (76.88%)
Maximum spatial batch extension              ...  16.88, 16.05, 11.99 au
Average spatial batch extension              ...   0.53,  0.52,  0.34 au

Time for grid setup =    3.055 sec

------------------------------
INITIAL GUESS: MODEL POTENTIAL
------------------------------
Loading Hartree-Fock densities                     ... done
Calculating cut-offs                               ... done
Setting up the integral package                    ... done
Initializing the effective Hamiltonian             ... done
Starting the Coulomb interaction                   ... done (   0.0 sec)
Reading the grid                                   ... done
Mapping shells                                     ... done
Starting the XC term evaluation                    ... done (   0.0 sec)
  promolecular density results
     # of electrons  =     13.999992337
     EX              =     -9.133639947
     EC              =     -0.590033314
     EX+EC           =     -9.723673261
Transforming the Hamiltonian                       ... done (   0.0 sec)
Diagonalizing the Hamiltonian                      ... done (   0.0 sec)
Back transforming the eigenvectors                 ... done (   0.0 sec)
Now organizing SCF variables                       ... done
                      ------------------
                      INITIAL GUESS DONE (   3.8 sec)
                      ------------------
--------------
SCF ITERATIONS
--------------
ITER       Energy         Delta-E        Max-DP      RMS-DP      [F,P]     Damp
               ***  Starting incremental Fock matrix formation  ***
  0   -113.3504391343   0.000000000000 0.02274463  0.00104516  0.3470328 0.7000
  1   -113.3618082127  -0.011369078471 0.02417637  0.00096010  0.2337441 0.7000
                               ***Turning on DIIS***
  2   -113.3690659710  -0.007257758245 0.02077751  0.00076323  0.1575311 0.7000
  3   -113.3738780826  -0.004812111619 0.01790549  0.00062446  0.1070032 0.7000
  4   -113.3771982188  -0.003320136204 0.04995720  0.00168818  0.0748657 0.0000
                      *** Initiating the SOSCF procedure ***
                           *** Shutting down DIIS ***
                      *** Re-Reading the Fockian *** 
                      *** Removing any level shift *** 
ITER      Energy       Delta-E        Grad      Rot      Max-DP    RMS-DP
  5   -113.38507756  -0.0078793455  0.001974  0.001974  0.007085  0.000217
               *** Restarting incremental Fock matrix formation ***
  6   -113.38510424  -0.0000266730  0.000962  0.001691  0.005276  0.000158
  7   -113.38511113  -0.0000068880  0.000259  0.000675  0.002175  0.000065
  8   -113.38511178  -0.0000006535  0.000083  0.000099  0.000089  0.000005
                 **** Energy Check signals convergence ****
              ***Rediagonalizing the Fockian in SOSCF/NRSCF***

               *****************************************************
               *                     SUCCESS                       *
               *           SCF CONVERGED AFTER   9 CYCLES          *
               *****************************************************


Setting up the DFT-NL grid :

General Integration Accuracy     IntAcc      ...  4.340
Radial Grid Type                 RadialGrid  ... Gauss-Chebyshev
Angular Grid (max. acc.)         AngularGrid ... Lebedev-110
Angular grid pruning method      GridPruning ... 3 (G Style)
Weight generation scheme         WeightScheme... Becke
Basis function cutoff            BFCut       ...    1.0000e-10
Integration weight cutoff        WCut        ...    1.0000e-14
Grids for H and He will be reduced by one unit

# of grid points (after initial pruning)     ...   3372 (   0.0 sec)
# of grid points (after weights+screening)   ...   3345 (   0.0 sec)
nearest neighbour list constructed           ...    0.0 sec
Grid point re-assignment to atoms done       ...    0.0 sec
Grid point division into batches done        ...    0.0 sec
Reduced shell lists constructed in    0.0 sec

Total number of grid points                  ...     3345
Total number of batches                      ...       54
Average number of points per batch           ...       61
Average number of grid points per atom       ...     1672
Average number of shells per batch           ...    12.00 (44.44%)
Average number of basis functions per batch  ...    34.67 (45.02%)
Average number of large shells per batch     ...    10.00 (83.33%)
Average number of large basis fcns per batch ...    27.33 (78.85%)
Maximum spatial batch extension              ...  15.59, 22.48, 14.11 au
Average spatial batch extension              ...   0.58,  0.77,  0.52 au

Final grid set up in    2.3 sec

-------------------------------------------------------------------------------
                         DFT-NL dispersion correction                          
-------------------------------------------------------------------------------

SC Energy -113.385111775 
NL    Energy 0.059133306 
SC+NL Energy -113.325978468 
NL done in    1.4 sec
-------------------------------------------------------------------------------

----------------
TOTAL SCF ENERGY
----------------

Total Energy       :         -113.32597847 Eh           -3083.75665 eV

Components:
Nuclear Repulsion  :           22.48608458 Eh             611.87747 eV
Electronic Energy  :         -135.81206304 Eh           -3695.63412 eV
One Electron Energy:         -198.25912284 Eh           -5394.90500 eV
Two Electron Energy:           62.44705979 Eh            1699.27089 eV

Virial components:
Potential Energy   :         -226.30515946 Eh           -6158.07646 eV
Kinetic Energy     :          112.97918100 Eh            3074.31981 eV
Virial Ratio       :            2.00306957


DFT components:
N(Alpha)           :        6.999997686198 electrons
N(Beta)            :        6.999997686198 electrons
N(Total)           :       13.999995372395 electrons
E(X)               :       -9.255057367533 Eh       
E(C)               :       -0.593392090249 Eh       
NL Energy, E(C,NL) :        0.059133306211 Eh       
E(XC)              :       -9.789316151571 Eh       
DFET-embed. en.    :        0.000000000000 Eh       

---------------
SCF CONVERGENCE
---------------

  Last Energy change         ...    4.1250e-09  Tolerance :   1.0000e-06
  Last MAX-Density change    ...    1.7346e-04  Tolerance :   1.0000e-05
  Last RMS-Density change    ...    5.5907e-06  Tolerance :   1.0000e-06
  Last Orbital Gradient      ...    8.1970e-05  Tolerance :   5.0000e-05
  Last Orbital Rotation      ...    5.4577e-05  Tolerance :   5.0000e-05

             **** THE GBW FILE WAS UPDATED (CO.gbw) ****
             **** DENSITY FILE WAS UPDATED (CO.scfp) ****
             **** ENERGY FILE WAS UPDATED (CO.en.tmp) ****
             **** THE GBW FILE WAS UPDATED (CO.gbw) ****
             **** DENSITY FILE WAS UPDATED (CO.scfp) ****
----------------
ORBITAL ENERGIES
----------------

  NO   OCC          E(Eh)            E(eV) 
   0   2.0000     -19.324138      -525.8365 
   1   2.0000     -10.392218      -282.7866 
   2   2.0000      -1.298993       -35.3474 
   3   2.0000      -0.699834       -19.0434 
   4   2.0000      -0.593458       -16.1488 
   5   2.0000      -0.593458       -16.1488 
   6   2.0000      -0.496475       -13.5098 
   7   0.0000       0.059499         1.6191 
   8   0.0000       0.059499         1.6191 
   9   0.0000       0.072142         1.9631 
  10   0.0000       0.112878         3.0716 
  11   0.0000       0.112878         3.0716 
  12   0.0000       0.113045         3.0761 
  13   0.0000       0.174693         4.7536 
  14   0.0000       0.261957         7.1282 
  15   0.0000       0.261957         7.1282 
  16   0.0000       0.313335         8.5263 
  17   0.0000       0.313335         8.5263 
  18   0.0000       0.329311         8.9610 
  19   0.0000       0.392139        10.6706 
  20   0.0000       0.392139        10.6706 
  21   0.0000       0.423732        11.5303 
  22   0.0000       0.439975        11.9723 
  23   0.0000       0.519538        14.1373 
  24   0.0000       0.524912        14.2836 
  25   0.0000       0.524912        14.2836 
  26   0.0000       0.556789        15.1510 
  27   0.0000       0.556789        15.1510 
  28   0.0000       0.819388        22.2967 
  29   0.0000       0.870935        23.6994 
  30   0.0000       0.903264        24.5791 
  31   0.0000       0.903264        24.5791 
  32   0.0000       0.922566        25.1043 
  33   0.0000       0.922566        25.1043 
  34   0.0000       1.077140        29.3105 
  35   0.0000       1.106150        30.0999 
  36   0.0000       1.106150        30.0999 
  37   0.0000       1.366841        37.1936 
  38   0.0000       1.588776        43.2328 
  39   0.0000       1.668494        45.4020 
  40   0.0000       1.668494        45.4020 
  41   0.0000       1.790191        48.7136 
  42   0.0000       1.790191        48.7136 
  43   0.0000       1.945939        52.9517 
  44   0.0000       2.023568        55.0641 
  45   0.0000       2.023568        55.0641 
  46   0.0000       2.401150        65.3386 
  47   0.0000       2.735281        74.4308 
  48   0.0000       2.735281        74.4308 
  49   0.0000       2.878643        78.3319 
  50   0.0000       2.878643        78.3319 
  51   0.0000       2.933751        79.8314 
  52   0.0000       2.933751        79.8314 
  53   0.0000       3.149051        85.6900 
  54   0.0000       3.149051        85.6900 
  55   0.0000       3.165778        86.1452 
  56   0.0000       3.272265        89.0429 
  57   0.0000       3.272265        89.0429 
  58   0.0000       3.274454        89.1024 
  59   0.0000       3.759661       102.3056 
  60   0.0000       3.759661       102.3056 
  61   0.0000       4.233356       115.1955 
  62   0.0000       4.382621       119.2572 
  63   0.0000       5.175251       140.8257 
  64   0.0000       5.175251       140.8257 
  65   0.0000       5.596592       152.2910 
  66   0.0000       5.596594       152.2911 
  67   0.0000       6.312057       171.7598 
  68   0.0000       6.312057       171.7598 
  69   0.0000       6.454891       175.6465 
  70   0.0000       6.454903       175.6468 
  71   0.0000       6.622760       180.2145 
  72   0.0000       6.805133       185.1771 
  73   0.0000       6.805133       185.1771 
  74   0.0000       7.231321       196.7742 
  75   0.0000      22.177169       603.4715 
  76   0.0000      43.816524      1192.3082 

                    ********************************
                    * MULLIKEN POPULATION ANALYSIS *
                    ********************************

-----------------------
MULLIKEN ATOMIC CHARGES
-----------------------
   0 O :   -0.074670
   1 C :    0.074670
Sum of atomic charges:   -0.0000000

--------------------------------
MULLIKEN REDUCED ORBITAL CHARGES
--------------------------------
  0 O s       :     3.830242  s :     3.830242
      pz      :     1.326685  p :     4.206076
      px      :     1.439696
      py      :     1.439696
      dz2     :     0.006447  d :     0.036462
      dxz     :     0.015007
      dyz     :     0.015007
      dx2y2   :     0.000000
      dxy     :    -0.000000
      f0      :     0.000375  f :     0.001890
      f+1     :     0.000757
      f-1     :     0.000757
      f+2     :     0.000000
      f-2     :     0.000000
      f+3     :     0.000000
      f-3     :     0.000000
  1 C s       :     3.805777  s :     3.805777
      pz      :     1.000446  p :     2.000563
      px      :     0.500059
      py      :     0.500059
      dz2     :     0.026660  d :     0.106048
      dxz     :     0.039694
      dyz     :     0.039694
      dx2y2   :     0.000000
      dxy     :     0.000000
      f0      :     0.003368  f :     0.012942
      f+1     :     0.004787
      f-1     :     0.004787
      f+2     :     0.000000
      f-2     :     0.000000
      f+3     :     0.000000
      f-3     :     0.000000


                     *******************************
                     * LOEWDIN POPULATION ANALYSIS *
                     *******************************

----------------------
LOEWDIN ATOMIC CHARGES
----------------------
   0 O :    0.014638
   1 C :   -0.014638

-------------------------------
LOEWDIN REDUCED ORBITAL CHARGES
-------------------------------
  0 O s       :     3.471801  s :     3.471801
      pz      :     1.687772  p :     4.325811
      px      :     1.319019
      py      :     1.319019
      dz2     :     0.137024  d :     0.181863
      dxz     :     0.022420
      dyz     :     0.022420
      dx2y2   :     0.000000
      dxy     :     0.000000
      f0      :     0.003626  f :     0.005886
      f+1     :     0.001130
      f-1     :     0.001130
      f+2     :     0.000000
      f-2     :     0.000000
      f+3     :     0.000000
      f-3     :     0.000000
  1 C s       :     3.302099  s :     3.302099
      pz      :     1.189045  p :     2.237182
      px      :     0.524069
      py      :     0.524069
      dz2     :     0.182661  d :     0.388524
      dxz     :     0.102931
      dyz     :     0.102931
      dx2y2   :     0.000000
      dxy     :     0.000000
      f0      :     0.025971  f :     0.086833
      f+1     :     0.030431
      f-1     :     0.030431
      f+2     :     0.000000
      f-2     :     0.000000
      f+3     :     0.000000
      f-3     :     0.000000


                      *****************************
                      * MAYER POPULATION ANALYSIS *
                      *****************************

  NA   - Mulliken gross atomic population
  ZA   - Total nuclear charge
  QA   - Mulliken gross atomic charge
  VA   - Mayer's total valence
  BVA  - Mayer's bonded valence
  FA   - Mayer's free valence

  ATOM       NA         ZA         QA         VA         BVA        FA
  0 O      8.0747     8.0000    -0.0747     2.4231     2.4231    -0.0000
  1 C      5.9253     6.0000     0.0747     2.4231     2.4231    -0.0000

  Mayer bond orders larger than 0.100000
B(  0-O ,  1-C ) :   2.4231 

-------
TIMINGS
-------

Total SCF time: 0 days 0 hours 2 min 6 sec 

Total time                  ....     126.145 sec
Sum of individual times     ....     122.028 sec  ( 96.7%)

Fock matrix formation       ....     115.176 sec  ( 91.3%)
  XC integration            ....     113.988 sec  ( 99.0% of F)
    Basis function eval.    ....       0.010 sec  (  0.0% of XC)
    Density eval.           ....       0.006 sec  (  0.0% of XC)
    XC-Functional eval.     ....       0.016 sec  (  0.0% of XC)
    XC-Potential eval.      ....       0.009 sec  (  0.0% of XC)
Diagonalization             ....       0.529 sec  (  0.4%)
Density matrix formation    ....       0.004 sec  (  0.0%)
Population analysis         ....       0.163 sec  (  0.1%)
Initial guess               ....       0.740 sec  (  0.6%)
Orbital Transformation      ....       0.000 sec  (  0.0%)
Orbital Orthonormalization  ....       0.000 sec  (  0.0%)
DIIS solution               ....       0.019 sec  (  0.0%)
SOSCF solution              ....       0.073 sec  (  0.1%)
Grid generation             ....       5.323 sec  (  4.2%)

-------------------------   --------------------
FINAL SINGLE POINT ENERGY      -113.325978468482
-------------------------   --------------------


----------------------------------------------------------------------------
                           ORCA NUMERICAL GRADIENT
                              (28-process run)
----------------------------------------------------------------------------

I state                        ... 1
J state                        ... 0
Number of atoms                ... 2
Derivative's order of accuracy ... 2
Central differences            ... used
Number of displacements        ... 12
Numerical increment            ... 5.000e-03 bohr
Translation invariance         ... used

The output will be reduced. Please look at the following files:
SCF program output             ... >CO.lastscf
Integral program output        ... >CO.lastint
Gradient program output        ... >CO.lastgrad


     Note:   There are more processes than displacements to do
     ===>:   Reducing number of processes to   3

             <<<Displacing   2/coordinate 3 (+)>>>
             <<<Displacing   2/coordinate 2 (+)>>>
             <<<Displacing   2/coordinate 1 (+)>>>
             <<<Displacing   2/coordinate 1 (-)>>>
             <<<Displacing   2/coordinate 2 (-)>>>
             <<<Displacing   2/coordinate 3 (-)>>>

------------------------------
CARTESIAN GRADIENT (NUMERICAL)
-------------------------------
   1   O   :    0.000000000   -0.000000000   -0.008869051
   2   C   :   -0.000000000    0.000000000    0.008869051

Norm of the cartesian gradient     ...    0.012542732
RMS gradient                       ...    0.005120549
MAX gradient                       ...    0.008869051

-------
TIMINGS
-------

Total numerical gradient time      ...       19.712 sec


                            ***************************************
                            *     ORCA property calculations      *
                            ***************************************

                                    ---------------------
                                    Active property flags
                                    ---------------------
   (+) Dipole Moment


------------------------------------------------------------------------------
                       ORCA ELECTRIC PROPERTIES CALCULATION
------------------------------------------------------------------------------

Dipole Moment Calculation                       ... on
Quadrupole Moment Calculation                   ... off
Polarizability Calculation                      ... off
GBWName                                         ... CO.gbw
Electron density file                           ... CO.scfp
The origin for moment calculation is the CENTER OF MASS  = ( 0.000000,  0.000000  0.915363)

-------------
DIPOLE MOMENT
-------------
                                X             Y             Z
Electronic contribution:     -0.00000       0.00000      -0.02249
Nuclear contribution   :      0.00000       0.00000      -0.00716
                        -----------------------------------------
Total Dipole Moment    :     -0.00000       0.00000      -0.02965
                        -----------------------------------------
Magnitude (a.u.)       :      0.02965
Magnitude (Debye)      :      0.07537



--------------------
Rotational spectrum 
--------------------
 
Rotational constants in cm-1:     0.000000     1.925666     1.925666 
Rotational constants in MHz :     0.000000 57730.012385 57730.012385 

 Dipole components along the rotational axes: 
x,y,z [a.u.] :    -0.029654     0.000000    -0.000000 
x,y,z [Debye]:    -0.075374     0.000000    -0.000000 

 

Timings for individual modules:

Sum of individual times         ...      153.113 sec (=   2.552 min)
GTO integral calculation        ...        6.432 sec (=   0.107 min)   4.2 %
SCF iterations                  ...      126.969 sec (=   2.116 min)  82.9 %
SCF Gradient evaluation         ...       19.712 sec (=   0.329 min)  12.9 %
                             ****ORCA TERMINATED NORMALLY****
TOTAL RUN TIME: 0 days 0 hours 3 minutes 3 seconds 36 msec
