
                                 *****************
                                 * O   R   C   A *
                                 *****************

           --- An Ab Initio, DFT and Semiempirical electronic structure package ---

                  #######################################################
                  #                        -***-                        #
                  #          Department of theory and spectroscopy      #
                  #               Directorship: Frank Neese             #
                  #        Max Planck Institute fuer Kohlenforschung    #
                  #                Kaiser Wilhelm Platz 1               #
                  #                 D-45470 Muelheim/Ruhr               #
                  #                      Germany                        #
                  #                                                     #
                  #                  All rights reserved                #
                  #                        -***-                        #
                  #######################################################


                         Program Version 4.2.0 -  RELEASE  -


 With contributions from (in alphabetic order):
   Daniel Aravena         : Magnetic Suceptibility
   Michael Atanasov       : Ab Initio Ligand Field Theory (pilot matlab implementation)
   Alexander A. Auer      : GIAO ZORA, VPT2
   Ute Becker             : Parallelization
   Giovanni Bistoni       : ED, misc. LED, open-shell LED, HFLED
   Martin Brehm           : Molecular dynamics
   Dmytro Bykov           : SCF Hessian
   Vijay G. Chilkuri      : MRCI spin determinant printing, contributions to CSF-ICE
   Dipayan Datta          : RHF DLPNO-CCSD density
   Achintya Kumar Dutta   : EOM-CC, STEOM-CC
   Dmitry Ganyushin       : Spin-Orbit,Spin-Spin,Magnetic field MRCI
   Miquel Garcia          : C-PCM Hessian, Gaussian charge scheme
   Yang Guo               : DLPNO-NEVPT2, CIM, IAO-localization
   Andreas Hansen         : Spin unrestricted coupled pair/coupled cluster methods
   Benjamin Helmich-Paris : CASSCF linear response (MC-RPA)
   Lee Huntington         : MR-EOM, pCC
   Robert Izsak           : Overlap fitted RIJCOSX, COSX-SCS-MP3, EOM
   Christian Kollmar      : KDIIS, OOCD, Brueckner-CCSD(T), CCSD density
   Simone Kossmann        : Meta GGA functionals, TD-DFT gradient, OOMP2, MP2 Hessian
   Martin Krupicka        : AUTO-CI
   Lucas Lang             : DCDCAS
   Dagmar Lenk            : GEPOL surface, SMD
   Dimitrios Liakos       : Extrapolation schemes; Compound Job, initial MDCI parallelization
   Dimitrios Manganas     : Further ROCIS development; embedding schemes
   Dimitrios Pantazis     : SARC Basis sets
   Taras Petrenko         : DFT Hessian,TD-DFT gradient, ASA, ECA, R-Raman, ABS, FL, XAS/XES, NRVS
   Peter Pinski           : DLPNO-MP2, DLPNO-MP2 Gradient
   Christoph Reimann      : Effective Core Potentials
   Marius Retegan         : Local ZFS, SOC
   Christoph Riplinger    : Optimizer, TS searches, QM/MM, DLPNO-CCSD(T), (RO)-DLPNO pert. Triples
   Tobias Risthaus        : Range-separated hybrids, TD-DFT gradient, RPA, STAB
   Michael Roemelt        : Original ROCIS implementation
   Masaaki Saitow         : Open-shell DLPNO-CCSD energy and density
   Barbara Sandhoefer     : DKH picture change effects
   Avijit Sen             : IP-ROCIS
   Kantharuban Sivalingam : CASSCF convergence, NEVPT2, FIC-MRCI
   Bernardo de Souza      : ESD, SOC TD-DFT
   Georgi Stoychev        : AutoAux, RI-MP2 NMR
   Willem Van den Heuvel  : Paramagnetic NMR
   Boris Wezisla          : Elementary symmetry handling
   Frank Wennmohs         : Technical directorship


 We gratefully acknowledge several colleagues who have allowed us to
 interface, adapt or use parts of their codes:
   Stefan Grimme, W. Hujo, H. Kruse,             : VdW corrections, initial TS optimization,
                  C. Bannwarth                     DFT functionals, gCP, sTDA/sTD-DF
   Ed Valeev, F. Pavosevic, A. Kumar             : LibInt (2-el integral package), F12 methods
   Garnet Chan, S. Sharma, J. Yang, R. Olivares  : DMRG
   Ulf Ekstrom                                   : XCFun DFT Library
   Mihaly Kallay                                 : mrcc  (arbitrary order and MRCC methods)
   Andreas Klamt, Michael Diedenhofen            : otool_cosmo (COSMO solvation model)
   Jiri Pittner, Ondrej Demel                    : Mk-CCSD
   Frank Weinhold                                : gennbo (NPA and NBO analysis)
   Christopher J. Cramer and Donald G. Truhlar   : smd solvation model
   Lars Goerigk                                  : TD-DFT with DH, B97 family of functionals
   V. Asgeirsson, H. Jonsson                     : NEB implementation
   FAccTs GmbH                                   : IRC, NEB, NEB-TS, Multilevel, MM, QM/MM, CI optimization
   S Lehtola, MJT Oliveira, MAL Marques          : LibXC Library


 Your calculation uses the libint2 library for the computation of 2-el integrals
 For citations please refer to: http://libint.valeyev.net

 Your ORCA version has been built with support for libXC version: 4.2.3
 For citations please refer to: https://tddft.org/programs/libxc/

 This ORCA versions uses:
   CBLAS   interface :  Fast vector & matrix operations
   LAPACKE interface :  Fast linear algebra routines
   SCALAPACK package :  Parallel linear algebra routines


Your calculation utilizes the DFT-NL dispersion correction.
Cite in your paper:
Vydrov, O. A.; Van Voorhis, T. J. Chem. Phys. 2010, 133, 244103
Hujo, W.; Grimme, S. J. Chem. Theory Comput. 2011, 7, 3866 
   

----- Orbital basis set information -----
Your calculation utilizes the basis: def2-TZVPPD
   F. Weigend and R. Ahlrichs, Phys. Chem. Chem. Phys. 7, 3297 (2005).
   D. Rappoport and F. Furche, J. Chem. Phys. 133 134105 (2010).

----- AuxJK basis set information -----
Your calculation utilizes the auxiliary basis: def2/JK
   H-Ba, Hf-Rn: F. Weigend, J. Comput. Chem. 29, 167 (2008).

================================================================================
                                        WARNINGS
                       Please study these warnings very carefully!
================================================================================

INFO   : Found keyword 'NumGrad' for Energy calculation
  ===> : Setting RunTyp to EnGrad

WARNING: Numerical Gradient with sloppy Convergence Criteria    
         Your results may be not reliable!                      
         Please choose at least TightSCF!                       

WARNING: your system is open-shell and RHF/RKS was chosen
  ===> : WILL SWITCH to UHF/UKS


INFO   : the flag for use of LIBINT has been found!

================================================================================
                                       INPUT FILE
================================================================================
NAME = Ni+.in
|  1> #
|  2> # Ni+ wB97X-V/Def2-TZVPPD
|  3> #
|  4> ! wb97x-v def2-tzvppd def2/jk grid4 nofinalgrid numgrad
|  5> 
|  6> *xyz 1 2
|  7> Ni         0.00000        0.00000        0.00000
|  8> *
|  9> 
| 10> %maxcore 5000
| 11> 
| 12> %pal
| 13> nprocs = 28
| 14> end
| 15> 
| 16> 
| 17>                          ****END OF INPUT****
================================================================================

                     *******************************
                     * Energy+Gradient Calculation *
                     *******************************

---------------------------------
CARTESIAN COORDINATES (ANGSTROEM)
---------------------------------
  Ni     0.000000    0.000000    0.000000

----------------------------
CARTESIAN COORDINATES (A.U.)
----------------------------
  NO LB      ZA    FRAG     MASS         X           Y           Z
   0 Ni   28.0000    0    58.700    0.000000    0.000000    0.000000

--------------------------------
INTERNAL COORDINATES (ANGSTROEM)
--------------------------------
 Ni     0   0   0     0.000000000000     0.00000000     0.00000000

---------------------------
INTERNAL COORDINATES (A.U.)
---------------------------
 Ni     0   0   0     0.000000000000     0.00000000     0.00000000

---------------------
BASIS SET INFORMATION
---------------------
There are 1 groups of distinct atoms

 Group   1 Type Ni  : 17s13p7d2f1g contracted to 6s6p4d2f1g pattern {842111/631111/4111/11/1}

Atom   0Ni   basis set group =>   1
----------------------------------
AUXILIARY/JK BASIS SET INFORMATION
----------------------------------
There are 1 groups of distinct atoms

 Group   1 Type Ni  : 19s14p12d10f7g3h1i contracted to 16s13p11d9f5g3h1i pattern {4111111111111111/2111111111111/21111111111/211111111/31111/111/1}

Atom   0Ni   basis set group =>   1


           ************************************************************
           *        Program running with 28 parallel MPI-processes    *
           *              working on a common directory               *
           ************************************************************
------------------------------------------------------------------------------
                           ORCA GTO INTEGRAL CALCULATION
------------------------------------------------------------------------------

                         BASIS SET STATISTICS AND STARTUP INFO

 # of primitive gaussian shells          ...   40
 # of primitive gaussian functions       ...  114
 # of contracted shells                  ...   19
 # of contracted basis functions         ...   67
 Highest angular momentum                ...    4
 Maximum contraction depth               ...    8
 Integral package used                   ... LIBINT
 Integral threshhold            Thresh   ...  1.000e-10
 Primitive cut-off              TCut     ...  1.000e-11


------------------------------ INTEGRAL EVALUATION ----------------------------


 * One electron integrals 
 Pre-screening matrix                    ... done
 Shell pair data                         ... done (   0.000 sec)



           ************************************************************
           *        Program running with 28 parallel MPI-processes    *
           *              working on a common directory               *
           ************************************************************
-------------------------------------------------------------------------------
                                 ORCA SCF
-------------------------------------------------------------------------------

------------
SCF SETTINGS
------------
Hamiltonian:
 Density Functional     Method          .... DFT(GTOs)
 Exchange Functional    Exchange        .... WB97X-V
 Correlation Functional Correlation     .... WB97X-V
 Gradients option       PostSCFGGA      .... off
 Hybrid DFT is turned on
   Fraction HF Exchange ScalHFX         ....  0.167000
   Scaling of DF-GGA-X  ScalDFX         ....  0.000000
   Scaling of DF-GGA-C  ScalDFC         ....  1.000000
   Scaling of DF-LDA-C  ScalLDAC        ....  1.000000
   Perturbative correction              ....  0.000000
   Density functional embedding theory  .... OFF
 Long-range corrected/Screened/Range-Separated Hybrid DFT is turned on
   Amount of maximum screened exact exchange              ....  0.833000
   Range separation parameter mu (erf(mu*r12)/r12)        ....  0.300000
   NL short-range parameter             ....  6.000000
   NL long-range parameter              ....  0.010000


General Settings:
 Integral files         IntName         .... Ni+
 Hartree-Fock type      HFTyp           .... UHF
 Total Charge           Charge          ....    1
 Multiplicity           Mult            ....    2
 Number of Electrons    NEL             ....   27
 Basis Dimension        Dim             ....   67
 Nuclear Repulsion      ENuc            ....      0.0000000000 Eh

Convergence Acceleration:
 DIIS                   CNVDIIS         .... on
   Start iteration      DIISMaxIt       ....    12
   Startup error        DIISStart       ....  0.200000
   # of expansion vecs  DIISMaxEq       ....     5
   Bias factor          DIISBfac        ....   1.050
   Max. coefficient     DIISMaxC        ....  10.000
 Newton-Raphson         CNVNR           .... off
 SOSCF                  CNVSOSCF        .... off
 Level Shifting         CNVShift        .... on
   Level shift para.    LevelShift      ....    0.2500
   Turn off err/grad.   ShiftErr        ....    0.0010
 Zerner damping         CNVZerner       .... off
 Static damping         CNVDamp         .... on
   Fraction old density DampFac         ....    0.7000
   Max. Damping (<1)    DampMax         ....    0.9800
   Min. Damping (>=0)   DampMin         ....    0.0000
   Turn off err/grad.   DampErr         ....    0.1000
 Fernandez-Rico         CNVRico         .... off

SCF Procedure:
 Maximum # iterations   MaxIter         ....   125
 SCF integral mode      SCFMode         .... Direct
   Integral package                     .... LIBINT
 Reset frequency        DirectResetFreq ....    20
 Integral Threshold     Thresh          ....  1.000e-10 Eh
 Primitive CutOff       TCut            ....  1.000e-11 Eh

Convergence Tolerance:
 Convergence Check Mode ConvCheckMode   .... Total+1el-Energy
 Convergence forced     ConvForced      .... 0
 Energy Change          TolE            ....  1.000e-06 Eh
 1-El. energy change                    ....  1.000e-03 Eh
 DIIS Error             TolErr          ....  1.000e-06


Diagonalization of the overlap matrix:
Smallest eigenvalue                        ... 4.474e-02
Time for diagonalization                   ...    0.001 sec
Threshold for overlap eigenvalues          ... 1.000e-08
Number of eigenvalues below threshold      ... 0
Time for construction of square roots      ...    0.041 sec
Total time needed                          ...    0.043 sec

-------------------
DFT GRID GENERATION
-------------------

General Integration Accuracy     IntAcc      ...  4.670
Radial Grid Type                 RadialGrid  ... Gauss-Chebyshev
Angular Grid (max. acc.)         AngularGrid ... Lebedev-302
Angular grid pruning method      GridPruning ... 3 (G Style)
Weight generation scheme         WeightScheme... Becke
Basis function cutoff            BFCut       ...    1.0000e-10
Integration weight cutoff        WCut        ...    1.0000e-14
Grids for H and He will be reduced by one unit

# of grid points (after initial pruning)     ...   9664 (   0.0 sec)
# of grid points (after weights+screening)   ...   9664 (   0.0 sec)
Grid point division into batches done        ...    0.1 sec
Reduced shell lists constructed in    0.1 sec

Total number of grid points                  ...     9664
Total number of batches                      ...      152
Average number of points per batch           ...       63
Average number of grid points per atom       ...     9664
Average number of shells per batch           ...     3.43 (18.05%)
Average number of basis functions per batch  ...    10.29 (15.35%)
Average number of large shells per batch     ...     1.71 (50.00%)
Average number of large basis fcns per batch ...     3.43 (33.33%)
Maximum spatial batch extension              ...  20.42, 20.42, 20.42 au
Average spatial batch extension              ...   0.71,  0.70,  0.68 au

Time for grid setup =    1.642 sec

------------------------------
INITIAL GUESS: MODEL POTENTIAL
------------------------------
Loading Hartree-Fock densities                     ... done
Calculating cut-offs                               ... done
Setting up the integral package                    ... done
Initializing the effective Hamiltonian             ... done
Starting the Coulomb interaction                   ... done (   0.0 sec)
Reading the grid                                   ... done
Mapping shells                                     ... done
Starting the XC term evaluation                    ... done (   0.0 sec)
  promolecular density results
     # of electrons  =     28.000038162
     EX              =    -47.215396628
     EC              =     -1.697253106
     EX+EC           =    -48.912649734
Transforming the Hamiltonian                       ... done (   0.1 sec)
Diagonalizing the Hamiltonian                      ... done (   0.0 sec)
Back transforming the eigenvectors                 ... done (   0.0 sec)
Now organizing SCF variables                       ... done
                      ------------------
                      INITIAL GUESS DONE (   2.2 sec)
                      ------------------
--------------
SCF ITERATIONS
--------------
ITER       Energy         Delta-E        Max-DP      RMS-DP      [F,P]     Damp
               ***  Starting incremental Fock matrix formation  ***
  0  -1505.7158076359   0.000000000000 0.16862447  0.00559961  1.5540823 0.7000
  1  -1506.8286417724  -1.112834136498 0.10946436  0.00295460  0.4089837 0.7000
  2  -1507.1816032625  -0.352961490087 0.07662082  0.00191610  0.2699898 0.7000
  3  -1507.3942043705  -0.212601107921 0.05362978  0.00143403  0.2584769 0.7000
                               ***Turning on DIIS***
  4  -1507.5528250586  -0.158620688112 0.03753804  0.00102770  0.1909905 0.7000
  5  -1507.6694285799  -0.116603521316 0.02627342  0.00070335  0.1307812 0.7000
  6  -1507.7539186209  -0.084490041026 0.06130233  0.00165802  0.0957663 0.0000
  7  -1507.9621713119  -0.208252690963 0.00188063  0.00007173  0.0061631 0.0000
  8  -1507.9622556822  -0.000084370298 0.00127574  0.00004304  0.0035221 0.0000
  9  -1507.9622652063  -0.000009524141 0.00044452  0.00002299  0.0042768 0.0000
 10  -1507.9622801522  -0.000014945861 0.00036986  0.00001835  0.0004912 0.0000
 11  -1507.9622838904  -0.000003738222 0.00034961  0.00001275  0.0002420 0.0000
 12  -1507.9622862288  -0.000002338410 0.00057795  0.00001985  0.0002400 0.0000
 13  -1507.9622896838  -0.000003455011 0.00097604  0.00003153  0.0002336 0.0000
 14  -1507.9622948683  -0.000005184534 0.00072996  0.00002253  0.0002244 0.0000
 15  -1507.9622984920  -0.000003623632 0.00049937  0.00001511  0.0002184 0.0000
 16  -1507.9623009137  -0.000002421678 0.00058827  0.00001801  0.0002148 0.0000
 17  -1507.9623037847  -0.000002871044 0.00167991  0.00005112  0.0002109 0.0000
 18  -1507.9623116248  -0.000007840106 0.00078918  0.00002477  0.0002017 0.0000
 19  -1507.9623152941  -0.000003669277 0.00410487  0.00012732  0.0002037 0.0000
               *** Restarting incremental Fock matrix formation ***
                                   *** Resetting DIIS ***
 20  -1507.9623324454  -0.000017151282 0.00020749  0.00000724  0.0001670 0.0000
 21  -1507.9623333201  -0.000000874693 0.00011619  0.00000352  0.0001800 0.0000
 22  -1507.9623337500  -0.000000429918 0.00023373  0.00000804  0.0001644 0.0000
                 **** Energy Check signals convergence ****

               *****************************************************
               *                     SUCCESS                       *
               *           SCF CONVERGED AFTER  23 CYCLES          *
               *****************************************************


Setting up the DFT-NL grid :

General Integration Accuracy     IntAcc      ...  4.340
Radial Grid Type                 RadialGrid  ... Gauss-Chebyshev
Angular Grid (max. acc.)         AngularGrid ... Lebedev-110
Angular grid pruning method      GridPruning ... 3 (G Style)
Weight generation scheme         WeightScheme... Becke
Basis function cutoff            BFCut       ...    1.0000e-10
Integration weight cutoff        WCut        ...    1.0000e-14
Grids for H and He will be reduced by one unit

# of grid points (after initial pruning)     ...   2912 (   0.0 sec)
# of grid points (after weights+screening)   ...   2912 (   0.0 sec)
Grid point division into batches done        ...    0.0 sec
Reduced shell lists constructed in    0.0 sec

Total number of grid points                  ...     2912
Total number of batches                      ...       46
Average number of points per batch           ...       63
Average number of grid points per atom       ...     2912
Average number of shells per batch           ...     4.67 (24.56%)
Average number of basis functions per batch  ...    14.00 (20.90%)
Average number of large shells per batch     ...     4.00 (85.71%)
Average number of large basis fcns per batch ...    10.67 (76.19%)
Maximum spatial batch extension              ...  17.39, 26.34, 26.34 au
Average spatial batch extension              ...   0.76,  1.15,  1.15 au

Final grid set up in    1.4 sec

-------------------------------------------------------------------------------
                         DFT-NL dispersion correction                          
-------------------------------------------------------------------------------

SC Energy -1507.962334726 
NL    Energy 0.116891836 
SC+NL Energy -1507.845442889 
NL done in    2.6 sec
-------------------------------------------------------------------------------

----------------
TOTAL SCF ENERGY
----------------

Total Energy       :        -1507.84544289 Eh          -41030.56045 eV

Components:
Nuclear Repulsion  :            0.00000000 Eh               0.00000 eV
Electronic Energy  :        -1507.84544289 Eh          -41030.56045 eV
One Electron Energy:        -2089.05560856 Eh          -56846.09311 eV
Two Electron Energy:          581.21016567 Eh           15815.53265 eV

Virial components:
Potential Energy   :        -3013.43243881 Eh          -81999.66544 eV
Kinetic Energy     :         1505.58699592 Eh           40969.10499 eV
Virial Ratio       :            2.00150004


DFT components:
N(Alpha)           :       14.000000568197 electrons
N(Beta)            :       13.000000568365 electrons
N(Total)           :       27.000001136562 electrons
E(X)               :      -47.353604866773 Eh       
E(C)               :       -1.680266996700 Eh       
NL Energy, E(C,NL) :        0.116891836215 Eh       
E(XC)              :      -48.916980027259 Eh       
DFET-embed. en.    :        0.000000000000 Eh       

---------------
SCF CONVERGENCE
---------------

  Last Energy change         ...   -9.7553e-07  Tolerance :   1.0000e-06
  Last MAX-Density change    ...    5.3499e-04  Tolerance :   1.0000e-05
  Last RMS-Density change    ...    1.7707e-05  Tolerance :   1.0000e-06
  Last DIIS Error            ...    1.6130e-04  Tolerance :   1.0000e-06

             **** THE GBW FILE WAS UPDATED (Ni+.gbw) ****
             **** DENSITY FILE WAS UPDATED (Ni+.scfp) ****
             **** ENERGY FILE WAS UPDATED (Ni+.en.tmp) ****
----------------------
UHF SPIN CONTAMINATION
----------------------

Warning: in a DFT calculation there is little theoretical justification to 
         calculate <S**2> as in Hartree-Fock theory. We will do it anyways
         but you should keep in mind that the values have only limited relevance

Expectation value of <S**2>     :     0.750955
Ideal value S*(S+1) for S=0.5   :     0.750000
Deviation                       :     0.000955

             **** THE GBW FILE WAS UPDATED (Ni+.gbw) ****
             **** DENSITY FILE WAS UPDATED (Ni+.scfp) ****
----------------
ORBITAL ENERGIES
----------------
                 SPIN UP ORBITALS
  NO   OCC          E(Eh)            E(eV) 
   0   1.0000    -299.973565     -8162.6957 
   1   1.0000     -36.065357      -981.3883 
   2   1.0000     -31.506134      -857.3255 
   3   1.0000     -31.475761      -856.4990 
   4   1.0000     -31.468468      -856.3005 
   5   1.0000      -4.396099      -119.6239 
   6   1.0000      -3.034755       -82.5799 
   7   1.0000      -2.974662       -80.9447 
   8   1.0000      -2.960308       -80.5541 
   9   1.0000      -0.719156       -19.5692 
  10   1.0000      -0.675821       -18.3900 
  11   1.0000      -0.670125       -18.2350 
  12   1.0000      -0.646418       -17.5899 
  13   1.0000      -0.646073       -17.5805 
  14   0.0000      -0.284244        -7.7347 
  15   0.0000      -0.145718        -3.9652 
  16   0.0000      -0.140855        -3.8329 
  17   0.0000      -0.139745        -3.8027 
  18   0.0000       0.010821         0.2945 
  19   0.0000       0.011465         0.3120 
  20   0.0000       0.015129         0.4117 
  21   0.0000       0.016152         0.4395 
  22   0.0000       0.086219         2.3461 
  23   0.0000       0.089231         2.4281 
  24   0.0000       0.090057         2.4506 
  25   0.0000       0.093744         2.5509 
  26   0.0000       0.093789         2.5521 
  27   0.0000       0.516198        14.0465 
  28   0.0000       0.528434        14.3794 
  29   0.0000       0.531311        14.4577 
  30   0.0000       0.902318        24.5533 
  31   0.0000       0.913282        24.8517 
  32   0.0000       0.915836        24.9212 
  33   0.0000       0.926507        25.2115 
  34   0.0000       0.926664        25.2158 
  35   0.0000       2.736576        74.4660 
  36   0.0000       2.772752        75.4504 
  37   0.0000       2.780285        75.6554 
  38   0.0000       2.850008        77.5527 
  39   0.0000       2.854819        77.6836 
  40   0.0000       2.859690        77.8161 
  41   0.0000       2.872993        78.1781 
  42   0.0000       2.879626        78.3586 
  43   0.0000       2.879955        78.3676 
  44   0.0000       2.890840        78.6637 
  45   0.0000       2.890865        78.6644 
  46   0.0000       3.957205       107.6810 
  47   0.0000       3.987709       108.5111 
  48   0.0000       3.992441       108.6398 
  49   0.0000       4.012291       109.1800 
  50   0.0000       4.012613       109.1887 
  51   0.0000      11.245807       306.0140 
  52   0.0000      11.252808       306.2045 
  53   0.0000      11.259502       306.3866 
  54   0.0000      11.281764       306.9924 
  55   0.0000      11.282275       307.0063 
  56   0.0000      11.309783       307.7548 
  57   0.0000      11.309794       307.7551 
  58   0.0000      11.315351       307.9063 
  59   0.0000      11.315352       307.9064 
  60   0.0000      11.600008       315.6523 
  61   0.0000      11.616884       316.1115 
  62   0.0000      11.624534       316.3197 
  63   0.0000      11.666027       317.4487 
  64   0.0000      11.666357       317.4577 
  65   0.0000      11.680177       317.8338 
  66   0.0000      11.680198       317.8343 

                 SPIN DOWN ORBITALS
  NO   OCC          E(Eh)            E(eV) 
   0   1.0000    -299.973324     -8162.6891 
   1   1.0000     -36.043628      -980.7970 
   2   1.0000     -31.476986      -856.5323 
   3   1.0000     -31.462457      -856.1370 
   4   1.0000     -31.458730      -856.0356 
   5   1.0000      -4.347339      -118.2971 
   6   1.0000      -2.945506       -80.1513 
   7   1.0000      -2.935129       -79.8689 
   8   1.0000      -2.931826       -79.7790 
   9   1.0000      -0.656730       -17.8705 
  10   1.0000      -0.649331       -17.6692 
  11   1.0000      -0.618965       -16.8429 
  12   1.0000      -0.618485       -16.8298 
  13   0.0000      -0.280526        -7.6335 
  14   0.0000      -0.231747        -6.3061 
  15   0.0000      -0.142083        -3.8663 
  16   0.0000      -0.140232        -3.8159 
  17   0.0000      -0.139544        -3.7972 
  18   0.0000       0.013808         0.3757 
  19   0.0000       0.014498         0.3945 
  20   0.0000       0.016013         0.4357 
  21   0.0000       0.016628         0.4525 
  22   0.0000       0.090213         2.4548 
  23   0.0000       0.091209         2.4819 
  24   0.0000       0.095319         2.5938 
  25   0.0000       0.095387         2.5956 
  26   0.0000       0.102306         2.7839 
  27   0.0000       0.526791        14.3347 
  28   0.0000       0.532823        14.4989 
  29   0.0000       0.534221        14.5369 
  30   0.0000       0.917301        24.9610 
  31   0.0000       0.920463        25.0471 
  32   0.0000       0.934128        25.4189 
  33   0.0000       0.934304        25.4237 
  34   0.0000       0.941014        25.6063 
  35   0.0000       2.777975        75.5925 
  36   0.0000       2.789262        75.8997 
  37   0.0000       2.792917        75.9991 
  38   0.0000       2.882454        78.4356 
  39   0.0000       2.882629        78.4403 
  40   0.0000       2.895372        78.7871 
  41   0.0000       2.898511        78.8725 
  42   0.0000       2.900880        78.9370 
  43   0.0000       2.907127        79.1069 
  44   0.0000       2.907146        79.1075 
  45   0.0000       2.908956        79.1567 
  46   0.0000       4.001987       108.8996 
  47   0.0000       4.007973       109.0625 
  48   0.0000       4.032550       109.7313 
  49   0.0000       4.032942       109.7419 
  50   0.0000       4.044316       110.0514 
  51   0.0000      11.308622       307.7233 
  52   0.0000      11.309203       307.7391 
  53   0.0000      11.309694       307.7524 
  54   0.0000      11.314284       307.8773 
  55   0.0000      11.316053       307.9255 
  56   0.0000      11.317257       307.9582 
  57   0.0000      11.321830       308.0826 
  58   0.0000      11.342179       308.6364 
  59   0.0000      11.342179       308.6364 
  60   0.0000      11.678236       317.7810 
  61   0.0000      11.678349       317.7840 
  62   0.0000      11.684453       317.9501 
  63   0.0000      11.690348       318.1105 
  64   0.0000      11.702404       318.4386 
  65   0.0000      11.713387       318.7375 
  66   0.0000      11.713399       318.7378 

                    ********************************
                    * MULLIKEN POPULATION ANALYSIS *
                    ********************************

--------------------------------------------
MULLIKEN ATOMIC CHARGES AND SPIN POPULATIONS
--------------------------------------------
   0 Ni:    1.000000    1.000000
Sum of atomic charges         :    1.0000000
Sum of atomic spin populations:    1.0000000

-----------------------------------------------------
MULLIKEN REDUCED ORBITAL CHARGES AND SPIN POPULATIONS
-----------------------------------------------------
CHARGE
  0 Nis       :     6.000016  s :     6.000016
      pz      :     3.999947  p :    11.999877
      px      :     3.999967
      py      :     3.999963
      dz2     :     1.814225  d :     8.999936
      dxz     :     1.775028
      dyz     :     1.575041
      dx2y2   :     1.995901
      dxy     :     1.839741
      f0      :     0.000015  f :     0.000123
      f+1     :     0.000022
      f-1     :     0.000030
      f+2     :     0.000019
      f-2     :     0.000030
      f+3     :     0.000004
      f-3     :     0.000003
      g0      :     0.000006  g :     0.000048
      g+1     :     0.000006
      g-1     :     0.000008
      g+2     :     0.000006
      g-2     :     0.000010
      g+3     :     0.000006
      g-3     :     0.000005
      g+4     :     0.000001
      g-4     :     0.000001

SPIN
  0 Nis       :    -0.000020  s :    -0.000020
      pz      :    -0.000027  p :    -0.000027
      px      :     0.000002
      py      :    -0.000002
      dz2     :     0.185759  d :     0.999993
      dxz     :     0.224950
      dyz     :     0.424942
      dx2y2   :     0.004092
      dxy     :     0.160250
      f0      :    -0.000005  f :     0.000027
      f+1     :     0.000011
      f-1     :     0.000017
      f+2     :    -0.000007
      f-2     :     0.000014
      f+3     :    -0.000000
      f-3     :    -0.000002
      g0      :     0.000002  g :     0.000026
      g+1     :     0.000003
      g-1     :     0.000005
      g+2     :     0.000004
      g-2     :     0.000008
      g+3     :     0.000002
      g-3     :     0.000002
      g+4     :    -0.000000
      g-4     :    -0.000000


                     *******************************
                     * LOEWDIN POPULATION ANALYSIS *
                     *******************************

-------------------------------------------
LOEWDIN ATOMIC CHARGES AND SPIN POPULATIONS
-------------------------------------------
   0 Ni:    1.000000    1.000000

----------------------------------------------------
LOEWDIN REDUCED ORBITAL CHARGES AND SPIN POPULATIONS
----------------------------------------------------
CHARGE
  0 Nis       :     6.000016  s :     6.000016
      pz      :     3.999947  p :    11.999877
      px      :     3.999967
      py      :     3.999963
      dz2     :     1.814225  d :     8.999936
      dxz     :     1.775028
      dyz     :     1.575041
      dx2y2   :     1.995901
      dxy     :     1.839741
      f0      :     0.000015  f :     0.000123
      f+1     :     0.000022
      f-1     :     0.000030
      f+2     :     0.000019
      f-2     :     0.000030
      f+3     :     0.000004
      f-3     :     0.000003
      g0      :     0.000006  g :     0.000048
      g+1     :     0.000006
      g-1     :     0.000008
      g+2     :     0.000006
      g-2     :     0.000010
      g+3     :     0.000006
      g-3     :     0.000005
      g+4     :     0.000001
      g-4     :     0.000001

SPIN
  0 Nis       :    -0.000020  s :    -0.000020
      pz      :    -0.000027  p :    -0.000027
      px      :     0.000002
      py      :    -0.000002
      dz2     :     0.185759  d :     0.999993
      dxz     :     0.224950
      dyz     :     0.424942
      dx2y2   :     0.004092
      dxy     :     0.160250
      f0      :    -0.000005  f :     0.000027
      f+1     :     0.000011
      f-1     :     0.000017
      f+2     :    -0.000007
      f-2     :     0.000014
      f+3     :    -0.000000
      f-3     :    -0.000002
      g0      :     0.000002  g :     0.000026
      g+1     :     0.000003
      g-1     :     0.000005
      g+2     :     0.000004
      g-2     :     0.000008
      g+3     :     0.000002
      g-3     :     0.000002
      g+4     :    -0.000000
      g-4     :    -0.000000


                      *****************************
                      * MAYER POPULATION ANALYSIS *
                      *****************************

  NA   - Mulliken gross atomic population
  ZA   - Total nuclear charge
  QA   - Mulliken gross atomic charge
  VA   - Mayer's total valence
  BVA  - Mayer's bonded valence
  FA   - Mayer's free valence

  ATOM       NA         ZA         QA         VA         BVA        FA
  0 Ni    27.0000    28.0000     1.0000     1.0019     0.0000     1.0019

  Mayer bond orders larger than 0.100000


-------
TIMINGS
-------

Total SCF time: 0 days 0 hours 4 min 3 sec 

Total time                  ....     243.295 sec
Sum of individual times     ....     237.352 sec  ( 97.6%)

Fock matrix formation       ....     230.011 sec  ( 94.5%)
  XC integration            ....     223.936 sec  ( 97.4% of F)
    Basis function eval.    ....       0.016 sec  (  0.0% of XC)
    Density eval.           ....       0.025 sec  (  0.0% of XC)
    XC-Functional eval.     ....       0.034 sec  (  0.0% of XC)
    XC-Potential eval.      ....       0.025 sec  (  0.0% of XC)
Diagonalization             ....       2.845 sec  (  1.2%)
Density matrix formation    ....       0.008 sec  (  0.0%)
Population analysis         ....       0.668 sec  (  0.3%)
Initial guess               ....       0.568 sec  (  0.2%)
Orbital Transformation      ....       0.000 sec  (  0.0%)
Orbital Orthonormalization  ....       0.000 sec  (  0.0%)
DIIS solution               ....       0.189 sec  (  0.1%)
Grid generation             ....       3.063 sec  (  1.3%)

-------------------------   --------------------
FINAL SINGLE POINT ENERGY     -1507.845442889297
-------------------------   --------------------


----------------------------------------------------------------------------
                           ORCA NUMERICAL GRADIENT
                              (28-process run)
----------------------------------------------------------------------------

I state                        ... 1
J state                        ... 0
Number of atoms                ... 1
Derivative's order of accuracy ... 2
Central differences            ... used
Number of displacements        ... 6
Numerical increment            ... 5.000e-03 bohr
Translation invariance         ... used

The output will be reduced. Please look at the following files:
SCF program output             ... >Ni+.lastscf
Integral program output        ... >Ni+.lastint
Gradient program output        ... >Ni+.lastgrad


     Note:   There are more processes than displacements to do
     ===>:   Reducing number of processes to   0


------------------------------
CARTESIAN GRADIENT (NUMERICAL)
-------------------------------
   1   Ni  :    0.000000000    0.000000000    0.000000000

Norm of the cartesian gradient     ...    0.000000000
RMS gradient                       ...    0.000000000
MAX gradient                       ...    0.000000000
*** glibc detected *** /mnt/storage/software/apps/orca-4.2.0/orca_4_2_0_linux_x86-64_openmpi314/orca: free(): invalid next size (fast): 0x000000000d7e4e60 ***
======= Backtrace: =========
[0xb0928aa]
[0xb09567c]
[0x76d903]
[0x76fb95]
[0x915b4f]
[0x918f24]
[0x487649]
[0xb05c99e]
[0x4870d9]
======= Memory map: ========
00400000-0bf42000 r-xp 00000000 00:2b 4876154                            /mnt/storage/software/apps/orca-4.2.0/orca_4_2_0_linux_x86-64_openmpi314/orca
0c141000-0c203000 rw-p 0bb41000 00:2b 4876154                            /mnt/storage/software/apps/orca-4.2.0/orca_4_2_0_linux_x86-64_openmpi314/orca
0c203000-0c77a000 rw-p 00000000 00:00 0 
0d5a1000-0d810000 rw-p 00000000 00:00 0                                  [heap]
2b7eb7b8c000-2b7eb838d000 rw-p 00000000 00:00 0 
2b7eb8b8c000-2b7ebb24f000 rw-p 00000000 00:00 0 
2b7ebc000000-2b7ebc0b3000 rw-p 00000000 00:00 0 
2b7ebc0b3000-2b7ec0000000 ---p 00000000 00:00 0 
7ffebfb6d000-7ffebfc6d000 rw-p 00000000 00:00 0                          [stack]
7ffebfdf4000-7ffebfdf6000 r-xp 00000000 00:00 0                          [vdso]
ffffffffff600000-ffffffffff601000 r-xp 00000000 00:00 0                  [vsyscall]
