
                                 *****************
                                 * O   R   C   A *
                                 *****************

           --- An Ab Initio, DFT and Semiempirical electronic structure package ---

                  #######################################################
                  #                        -***-                        #
                  #          Department of theory and spectroscopy      #
                  #               Directorship: Frank Neese             #
                  #        Max Planck Institute fuer Kohlenforschung    #
                  #                Kaiser Wilhelm Platz 1               #
                  #                 D-45470 Muelheim/Ruhr               #
                  #                      Germany                        #
                  #                                                     #
                  #                  All rights reserved                #
                  #                        -***-                        #
                  #######################################################


                         Program Version 4.2.0 -  RELEASE  -


 With contributions from (in alphabetic order):
   Daniel Aravena         : Magnetic Suceptibility
   Michael Atanasov       : Ab Initio Ligand Field Theory (pilot matlab implementation)
   Alexander A. Auer      : GIAO ZORA, VPT2
   Ute Becker             : Parallelization
   Giovanni Bistoni       : ED, misc. LED, open-shell LED, HFLED
   Martin Brehm           : Molecular dynamics
   Dmytro Bykov           : SCF Hessian
   Vijay G. Chilkuri      : MRCI spin determinant printing, contributions to CSF-ICE
   Dipayan Datta          : RHF DLPNO-CCSD density
   Achintya Kumar Dutta   : EOM-CC, STEOM-CC
   Dmitry Ganyushin       : Spin-Orbit,Spin-Spin,Magnetic field MRCI
   Miquel Garcia          : C-PCM Hessian, Gaussian charge scheme
   Yang Guo               : DLPNO-NEVPT2, CIM, IAO-localization
   Andreas Hansen         : Spin unrestricted coupled pair/coupled cluster methods
   Benjamin Helmich-Paris : CASSCF linear response (MC-RPA)
   Lee Huntington         : MR-EOM, pCC
   Robert Izsak           : Overlap fitted RIJCOSX, COSX-SCS-MP3, EOM
   Christian Kollmar      : KDIIS, OOCD, Brueckner-CCSD(T), CCSD density
   Simone Kossmann        : Meta GGA functionals, TD-DFT gradient, OOMP2, MP2 Hessian
   Martin Krupicka        : AUTO-CI
   Lucas Lang             : DCDCAS
   Dagmar Lenk            : GEPOL surface, SMD
   Dimitrios Liakos       : Extrapolation schemes; Compound Job, initial MDCI parallelization
   Dimitrios Manganas     : Further ROCIS development; embedding schemes
   Dimitrios Pantazis     : SARC Basis sets
   Taras Petrenko         : DFT Hessian,TD-DFT gradient, ASA, ECA, R-Raman, ABS, FL, XAS/XES, NRVS
   Peter Pinski           : DLPNO-MP2, DLPNO-MP2 Gradient
   Christoph Reimann      : Effective Core Potentials
   Marius Retegan         : Local ZFS, SOC
   Christoph Riplinger    : Optimizer, TS searches, QM/MM, DLPNO-CCSD(T), (RO)-DLPNO pert. Triples
   Tobias Risthaus        : Range-separated hybrids, TD-DFT gradient, RPA, STAB
   Michael Roemelt        : Original ROCIS implementation
   Masaaki Saitow         : Open-shell DLPNO-CCSD energy and density
   Barbara Sandhoefer     : DKH picture change effects
   Avijit Sen             : IP-ROCIS
   Kantharuban Sivalingam : CASSCF convergence, NEVPT2, FIC-MRCI
   Bernardo de Souza      : ESD, SOC TD-DFT
   Georgi Stoychev        : AutoAux, RI-MP2 NMR
   Willem Van den Heuvel  : Paramagnetic NMR
   Boris Wezisla          : Elementary symmetry handling
   Frank Wennmohs         : Technical directorship


 We gratefully acknowledge several colleagues who have allowed us to
 interface, adapt or use parts of their codes:
   Stefan Grimme, W. Hujo, H. Kruse,             : VdW corrections, initial TS optimization,
                  C. Bannwarth                     DFT functionals, gCP, sTDA/sTD-DF
   Ed Valeev, F. Pavosevic, A. Kumar             : LibInt (2-el integral package), F12 methods
   Garnet Chan, S. Sharma, J. Yang, R. Olivares  : DMRG
   Ulf Ekstrom                                   : XCFun DFT Library
   Mihaly Kallay                                 : mrcc  (arbitrary order and MRCC methods)
   Andreas Klamt, Michael Diedenhofen            : otool_cosmo (COSMO solvation model)
   Jiri Pittner, Ondrej Demel                    : Mk-CCSD
   Frank Weinhold                                : gennbo (NPA and NBO analysis)
   Christopher J. Cramer and Donald G. Truhlar   : smd solvation model
   Lars Goerigk                                  : TD-DFT with DH, B97 family of functionals
   V. Asgeirsson, H. Jonsson                     : NEB implementation
   FAccTs GmbH                                   : IRC, NEB, NEB-TS, Multilevel, MM, QM/MM, CI optimization
   S Lehtola, MJT Oliveira, MAL Marques          : LibXC Library


 Your calculation uses the libint2 library for the computation of 2-el integrals
 For citations please refer to: http://libint.valeyev.net

 Your ORCA version has been built with support for libXC version: 4.2.3
 For citations please refer to: https://tddft.org/programs/libxc/

 This ORCA versions uses:
   CBLAS   interface :  Fast vector & matrix operations
   LAPACKE interface :  Fast linear algebra routines
   SCALAPACK package :  Parallel linear algebra routines


Your calculation utilizes the DFT-NL dispersion correction.
Cite in your paper:
Vydrov, O. A.; Van Voorhis, T. J. Chem. Phys. 2010, 133, 244103
Hujo, W.; Grimme, S. J. Chem. Theory Comput. 2011, 7, 3866 
   

----- Orbital basis set information -----
Your calculation utilizes the basis: def2-TZVPPD
   F. Weigend and R. Ahlrichs, Phys. Chem. Chem. Phys. 7, 3297 (2005).
   D. Rappoport and F. Furche, J. Chem. Phys. 133 134105 (2010).

----- AuxJK basis set information -----
Your calculation utilizes the auxiliary basis: def2/JK
   H-Ba, Hf-Rn: F. Weigend, J. Comput. Chem. 29, 167 (2008).

================================================================================
                                        WARNINGS
                       Please study these warnings very carefully!
================================================================================

INFO   : Found keyword 'NumGrad' for Energy calculation
  ===> : Setting RunTyp to EnGrad

WARNING: Numerical Gradient with sloppy Convergence Criteria    
         Your results may be not reliable!                      
         Please choose at least TightSCF!                       

WARNING: your system is open-shell and RHF/RKS was chosen
  ===> : WILL SWITCH to UHF/UKS


INFO   : the flag for use of LIBINT has been found!

================================================================================
                                       INPUT FILE
================================================================================
NAME = NiCH2+.in
|  1> #
|  2> # NiCH2+ wB97X-V/Def2-TZVPPD
|  3> #
|  4> ! wb97x-v def2-tzvppd def2/jk grid4 nofinalgrid numgrad
|  5> 
|  6> *xyz 1 2
|  7> C          0.00000        0.00000        0.00000
|  8> Ni         0.00000        0.00000        1.78130
|  9> H          0.93287        0.00000       -0.58718
| 10> H         -0.93287        0.00000       -0.58718
| 11> *
| 12> 
| 13> %maxcore 5000
| 14> 
| 15> %pal
| 16> nprocs = 28
| 17> end
| 18> 
| 19> 
| 20>                          ****END OF INPUT****
================================================================================

                     *******************************
                     * Energy+Gradient Calculation *
                     *******************************

---------------------------------
CARTESIAN COORDINATES (ANGSTROEM)
---------------------------------
  C      0.000000    0.000000    0.000000
  Ni     0.000000    0.000000    1.781300
  H      0.932870    0.000000   -0.587180
  H     -0.932870    0.000000   -0.587180

----------------------------
CARTESIAN COORDINATES (A.U.)
----------------------------
  NO LB      ZA    FRAG     MASS         X           Y           Z
   0 C     6.0000    0    12.011    0.000000    0.000000    0.000000
   1 Ni   28.0000    0    58.700    0.000000    0.000000    3.366169
   2 H     1.0000    0     1.008    1.762869    0.000000   -1.109609
   3 H     1.0000    0     1.008   -1.762869    0.000000   -1.109609

--------------------------------
INTERNAL COORDINATES (ANGSTROEM)
--------------------------------
 C      0   0   0     0.000000000000     0.00000000     0.00000000
 Ni     1   0   0     1.781300000000     0.00000000     0.00000000
 H      1   2   0     1.102282536059   122.18770232     0.00000000
 H      1   2   3     1.102282536059   122.18770232   180.00000000

---------------------------
INTERNAL COORDINATES (A.U.)
---------------------------
 C      0   0   0     0.000000000000     0.00000000     0.00000000
 Ni     1   0   0     3.366169162354     0.00000000     0.00000000
 H      1   2   0     2.083012115355   122.18770232     0.00000000
 H      1   2   3     2.083012115355   122.18770232   180.00000000

---------------------
BASIS SET INFORMATION
---------------------
There are 3 groups of distinct atoms

 Group   1 Type C   : 12s6p3d1f contracted to 6s3p3d1f pattern {621111/411/111/1}
 Group   2 Type Ni  : 17s13p7d2f1g contracted to 6s6p4d2f1g pattern {842111/631111/4111/11/1}
 Group   3 Type H   : 5s3p1d contracted to 3s3p1d pattern {311/111/1}

Atom   0C    basis set group =>   1
Atom   1Ni   basis set group =>   2
Atom   2H    basis set group =>   3
Atom   3H    basis set group =>   3
----------------------------------
AUXILIARY/JK BASIS SET INFORMATION
----------------------------------
There are 3 groups of distinct atoms

 Group   1 Type C   : 14s10p6d2f1g contracted to 10s8p5d1f1g pattern {5111111111/31111111/21111/2/1}
 Group   2 Type Ni  : 19s14p12d10f7g3h1i contracted to 16s13p11d9f5g3h1i pattern {4111111111111111/2111111111111/21111111111/211111111/31111/111/1}
 Group   3 Type H   : 4s2p2d contracted to 2s2p2d pattern {31/11/11}

Atom   0C    basis set group =>   1
Atom   1Ni   basis set group =>   2
Atom   2H    basis set group =>   3
Atom   3H    basis set group =>   3


           ************************************************************
           *        Program running with 28 parallel MPI-processes    *
           *              working on a common directory               *
           ************************************************************
------------------------------------------------------------------------------
                           ORCA GTO INTEGRAL CALCULATION
------------------------------------------------------------------------------

                         BASIS SET STATISTICS AND STARTUP INFO

 # of primitive gaussian shells          ...   80
 # of primitive gaussian functions       ...  204
 # of contracted shells                  ...   46
 # of contracted basis functions         ...  138
 Highest angular momentum                ...    4
 Maximum contraction depth               ...    8
 Integral package used                   ... LIBINT
 Integral threshhold            Thresh   ...  1.000e-10
 Primitive cut-off              TCut     ...  1.000e-11


------------------------------ INTEGRAL EVALUATION ----------------------------


 * One electron integrals 
 Pre-screening matrix                    ... done
 Shell pair data                         ... done (   0.000 sec)



           ************************************************************
           *        Program running with 28 parallel MPI-processes    *
           *              working on a common directory               *
           ************************************************************
-------------------------------------------------------------------------------
                                 ORCA SCF
-------------------------------------------------------------------------------

------------
SCF SETTINGS
------------
Hamiltonian:
 Density Functional     Method          .... DFT(GTOs)
 Exchange Functional    Exchange        .... WB97X-V
 Correlation Functional Correlation     .... WB97X-V
 Gradients option       PostSCFGGA      .... off
 Hybrid DFT is turned on
   Fraction HF Exchange ScalHFX         ....  0.167000
   Scaling of DF-GGA-X  ScalDFX         ....  0.000000
   Scaling of DF-GGA-C  ScalDFC         ....  1.000000
   Scaling of DF-LDA-C  ScalLDAC        ....  1.000000
   Perturbative correction              ....  0.000000
   Density functional embedding theory  .... OFF
 Long-range corrected/Screened/Range-Separated Hybrid DFT is turned on
   Amount of maximum screened exact exchange              ....  0.833000
   Range separation parameter mu (erf(mu*r12)/r12)        ....  0.300000
   NL short-range parameter             ....  6.000000
   NL long-range parameter              ....  0.010000


General Settings:
 Integral files         IntName         .... NiCH2+
 Hartree-Fock type      HFTyp           .... UHF
 Total Charge           Charge          ....    1
 Multiplicity           Mult            ....    2
 Number of Electrons    NEL             ....   35
 Basis Dimension        Dim             ....  138
 Nuclear Repulsion      ENuc            ....     67.5942370709 Eh

Convergence Acceleration:
 DIIS                   CNVDIIS         .... on
   Start iteration      DIISMaxIt       ....    12
   Startup error        DIISStart       ....  0.200000
   # of expansion vecs  DIISMaxEq       ....     5
   Bias factor          DIISBfac        ....   1.050
   Max. coefficient     DIISMaxC        ....  10.000
 Newton-Raphson         CNVNR           .... off
 SOSCF                  CNVSOSCF        .... off
 Level Shifting         CNVShift        .... on
   Level shift para.    LevelShift      ....    0.2500
   Turn off err/grad.   ShiftErr        ....    0.0010
 Zerner damping         CNVZerner       .... off
 Static damping         CNVDamp         .... on
   Fraction old density DampFac         ....    0.7000
   Max. Damping (<1)    DampMax         ....    0.9800
   Min. Damping (>=0)   DampMin         ....    0.0000
   Turn off err/grad.   DampErr         ....    0.1000
 Fernandez-Rico         CNVRico         .... off

SCF Procedure:
 Maximum # iterations   MaxIter         ....   125
 SCF integral mode      SCFMode         .... Direct
   Integral package                     .... LIBINT
 Reset frequency        DirectResetFreq ....    20
 Integral Threshold     Thresh          ....  1.000e-10 Eh
 Primitive CutOff       TCut            ....  1.000e-11 Eh

Convergence Tolerance:
 Convergence Check Mode ConvCheckMode   .... Total+1el-Energy
 Convergence forced     ConvForced      .... 0
 Energy Change          TolE            ....  1.000e-06 Eh
 1-El. energy change                    ....  1.000e-03 Eh
 DIIS Error             TolErr          ....  1.000e-06


Diagonalization of the overlap matrix:
Smallest eigenvalue                        ... 7.188e-05
Time for diagonalization                   ...    0.004 sec
Threshold for overlap eigenvalues          ... 1.000e-08
Number of eigenvalues below threshold      ... 0
Time for construction of square roots      ...    0.086 sec
Total time needed                          ...    0.090 sec

-------------------
DFT GRID GENERATION
-------------------

General Integration Accuracy     IntAcc      ...  4.670
Radial Grid Type                 RadialGrid  ... Gauss-Chebyshev
Angular Grid (max. acc.)         AngularGrid ... Lebedev-302
Angular grid pruning method      GridPruning ... 3 (G Style)
Weight generation scheme         WeightScheme... Becke
Basis function cutoff            BFCut       ...    1.0000e-10
Integration weight cutoff        WCut        ...    1.0000e-14
Grids for H and He will be reduced by one unit

# of grid points (after initial pruning)     ...  22664 (   0.0 sec)
# of grid points (after weights+screening)   ...  22309 (   0.0 sec)
nearest neighbour list constructed           ...    0.0 sec
Grid point re-assignment to atoms done       ...    0.0 sec
Grid point division into batches done        ...    0.1 sec
Reduced shell lists constructed in    0.1 sec

Total number of grid points                  ...    22309
Total number of batches                      ...      350
Average number of points per batch           ...       63
Average number of grid points per atom       ...     5577
Average number of shells per batch           ...    35.14 (76.40%)
Average number of basis functions per batch  ...   105.57 (76.50%)
Average number of large shells per batch     ...    31.71 (90.24%)
Average number of large basis fcns per batch ...    94.00 (89.04%)
Maximum spatial batch extension              ...   3.82, 18.07,  3.21 au
Average spatial batch extension              ...   0.08,  0.17,  0.08 au

Time for grid setup =    2.007 sec

------------------------------
INITIAL GUESS: MODEL POTENTIAL
------------------------------
Loading Hartree-Fock densities                     ... done
Calculating cut-offs                               ... done
Setting up the integral package                    ... done
Initializing the effective Hamiltonian             ... done
Starting the Coulomb interaction                   ... done (   0.0 sec)
Reading the grid                                   ... done
Mapping shells                                     ... done
Starting the XC term evaluation                    ... done (   0.0 sec)
  promolecular density results
     # of electrons  =     35.999068982
     EX              =    -50.943278649
     EC              =     -2.007044122
     EX+EC           =    -52.950322771
Transforming the Hamiltonian                       ... done (   0.0 sec)
Diagonalizing the Hamiltonian                      ... done (   0.0 sec)
Back transforming the eigenvectors                 ... done (   0.0 sec)
Now organizing SCF variables                       ... done
                      ------------------
                      INITIAL GUESS DONE (   2.2 sec)
                      ------------------
--------------
SCF ITERATIONS
--------------
ITER       Energy         Delta-E        Max-DP      RMS-DP      [F,P]     Damp
               ***  Starting incremental Fock matrix formation  ***
  0  -1543.2863276346   0.000000000000 0.96368570  0.01114996  2.0626745 0.7000
  1  -1545.4307168204  -2.144389185727 0.20193137  0.00353911  0.3817124 0.7000
  2  -1545.7417760024  -0.311059182028 0.24973886  0.00395853  0.4230070 0.7000
  3  -1546.1729220492  -0.431146046813 0.21423994  0.00308166  0.2186297 0.7000
                               ***Turning on DIIS***
  4  -1546.4600551873  -0.287133138079 0.15265128  0.00222562  0.1216478 0.7000
  5  -1546.6766215768  -0.216566389545 0.44381752  0.00612238  0.0995960 0.0000
  6  -1547.2297196859  -0.553098109109 0.12314875  0.00134811  0.0296981 0.0000
  7  -1547.2377409545  -0.008021268553 0.04084264  0.00044431  0.0362663 0.0000
  8  -1547.2408345678  -0.003093613308 0.02810046  0.00028652  0.0243560 0.0000
  9  -1547.2426201080  -0.001785540187 0.02383635  0.00024078  0.0132371 0.0000
 10  -1547.2436540206  -0.001033912631 0.00831327  0.00009711  0.0068103 0.0000
 11  -1547.2439360137  -0.000281993051 0.00311209  0.00004806  0.0042158 0.0000
 12  -1547.2440354925  -0.000099478847 0.00139140  0.00002648  0.0015710 0.0000
 13  -1547.2440747174  -0.000039224871 0.00174207  0.00002874  0.0009245 0.0000
 14  -1547.2441089409  -0.000034223520 0.00129968  0.00001631  0.0002989 0.0000
 15  -1547.2441241374  -0.000015196525 0.00182756  0.00002256  0.0002042 0.0000
 16  -1547.2441402211  -0.000016083655 0.00177534  0.00002206  0.0001264 0.0000
 17  -1547.2441505271  -0.000010306042 0.00118253  0.00001473  0.0000607 0.0000
 18  -1547.2441545225  -0.000003995400 0.00073810  0.00000938  0.0000716 0.0000
 19  -1547.2441559053  -0.000001382786 0.00045644  0.00000580  0.0000188 0.0000
               *** Restarting incremental Fock matrix formation ***
                                   *** Resetting DIIS ***
 20  -1547.2441562938  -0.000000388534 0.00003860  0.00000059  0.0000292 0.0000
 21  -1547.2441563114  -0.000000017549 0.00002251  0.00000027  0.0000522 0.0000
                 **** Energy Check signals convergence ****

               *****************************************************
               *                     SUCCESS                       *
               *           SCF CONVERGED AFTER  22 CYCLES          *
               *****************************************************


Setting up the DFT-NL grid :

General Integration Accuracy     IntAcc      ...  4.340
Radial Grid Type                 RadialGrid  ... Gauss-Chebyshev
Angular Grid (max. acc.)         AngularGrid ... Lebedev-110
Angular grid pruning method      GridPruning ... 3 (G Style)
Weight generation scheme         WeightScheme... Becke
Basis function cutoff            BFCut       ...    1.0000e-10
Integration weight cutoff        WCut        ...    1.0000e-14
Grids for H and He will be reduced by one unit

# of grid points (after initial pruning)     ...   6156 (   0.0 sec)
# of grid points (after weights+screening)   ...   6064 (   0.0 sec)
nearest neighbour list constructed           ...    0.0 sec
Grid point re-assignment to atoms done       ...    0.0 sec
Grid point division into batches done        ...    0.0 sec
Reduced shell lists constructed in    0.0 sec

Total number of grid points                  ...     6064
Total number of batches                      ...       97
Average number of points per batch           ...       62
Average number of grid points per atom       ...     1516
Average number of shells per batch           ...    33.60 (73.04%)
Average number of basis functions per batch  ...   102.00 (73.91%)
Average number of large shells per batch     ...    31.20 (92.86%)
Average number of large basis fcns per batch ...    95.20 (93.33%)
Maximum spatial batch extension              ...   3.88, 19.81,  3.48 au
Average spatial batch extension              ...   0.12,  0.46,  0.11 au

Final grid set up in    2.5 sec

-------------------------------------------------------------------------------
                         DFT-NL dispersion correction                          
-------------------------------------------------------------------------------

SC Energy -1547.244156318 
NL    Energy 0.147668259 
SC+NL Energy -1547.096488059 
NL done in    2.6 sec
-------------------------------------------------------------------------------

----------------
TOTAL SCF ENERGY
----------------

Total Energy       :        -1547.09648806 Eh          -42098.63569 eV

Components:
Nuclear Repulsion  :           67.59423707 Eh            1839.33270 eV
Electronic Energy  :        -1614.69072513 Eh          -43937.96839 eV
One Electron Energy:        -2273.24704281 Eh          -61858.19684 eV
Two Electron Energy:          658.55631768 Eh           17920.22845 eV

Virial components:
Potential Energy   :        -3091.92180796 Eh          -84135.46976 eV
Kinetic Energy     :         1544.82531990 Eh           42036.83407 eV
Virial Ratio       :            2.00147018


DFT components:
N(Alpha)           :       18.000003893721 electrons
N(Beta)            :       17.000004166932 electrons
N(Total)           :       35.000008060654 electrons
E(X)               :      -51.081605177902 Eh       
E(C)               :       -1.985679994669 Eh       
NL Energy, E(C,NL) :        0.147668258585 Eh       
E(XC)              :      -52.919616913986 Eh       
DFET-embed. en.    :        0.000000000000 Eh       

---------------
SCF CONVERGENCE
---------------

  Last Energy change         ...   -6.5459e-09  Tolerance :   1.0000e-06
  Last MAX-Density change    ...    3.0604e-05  Tolerance :   1.0000e-05
  Last RMS-Density change    ...    5.4939e-07  Tolerance :   1.0000e-06
  Last DIIS Error            ...    1.9665e-05  Tolerance :   1.0000e-06

             **** THE GBW FILE WAS UPDATED (NiCH2+.gbw) ****
             **** DENSITY FILE WAS UPDATED (NiCH2+.scfp) ****
             **** ENERGY FILE WAS UPDATED (NiCH2+.en.tmp) ****
----------------------
UHF SPIN CONTAMINATION
----------------------

Warning: in a DFT calculation there is little theoretical justification to 
         calculate <S**2> as in Hartree-Fock theory. We will do it anyways
         but you should keep in mind that the values have only limited relevance

Expectation value of <S**2>     :     0.781031
Ideal value S*(S+1) for S=0.5   :     0.750000
Deviation                       :     0.031031

             **** THE GBW FILE WAS UPDATED (NiCH2+.gbw) ****
             **** DENSITY FILE WAS UPDATED (NiCH2+.scfp) ****
----------------
ORBITAL ENERGIES
----------------
                 SPIN UP ORBITALS
  NO   OCC          E(Eh)            E(eV) 
   0   1.0000    -299.995004     -8163.2791 
   1   1.0000     -36.109304      -982.5841 
   2   1.0000     -31.539496      -858.2333 
   3   1.0000     -31.529932      -857.9731 
   4   1.0000     -31.504555      -857.2825 
   5   1.0000     -10.588477      -288.1271 
   6   1.0000      -4.428956      -120.5180 
   7   1.0000      -3.045218       -82.8646 
   8   1.0000      -3.029032       -82.4242 
   9   1.0000      -2.983455       -81.1839 
  10   1.0000      -1.034596       -28.1528 
  11   1.0000      -0.787235       -21.4218 
  12   1.0000      -0.735086       -20.0027 
  13   1.0000      -0.734048       -19.9744 
  14   1.0000      -0.694934       -18.9101 
  15   1.0000      -0.686844       -18.6900 
  16   1.0000      -0.663688       -18.0599 
  17   1.0000      -0.601663       -16.3721 
  18   0.0000      -0.274411        -7.4671 
  19   0.0000      -0.209465        -5.6998 
  20   0.0000      -0.124214        -3.3800 
  21   0.0000      -0.102045        -2.7768 
  22   0.0000      -0.080703        -2.1960 
  23   0.0000      -0.031401        -0.8545 
  24   0.0000      -0.026819        -0.7298 
  25   0.0000      -0.005493        -0.1495 
  26   0.0000       0.009432         0.2567 
  27   0.0000       0.011932         0.3247 
  28   0.0000       0.047374         1.2891 
  29   0.0000       0.051003         1.3879 
  30   0.0000       0.095889         2.6093 
  31   0.0000       0.101263         2.7555 
  32   0.0000       0.107986         2.9385 
  33   0.0000       0.120816         3.2876 
  34   0.0000       0.135605         3.6900 
  35   0.0000       0.151932         4.1343 
  36   0.0000       0.152695         4.1550 
  37   0.0000       0.179621         4.8877 
  38   0.0000       0.180815         4.9202 
  39   0.0000       0.229288         6.2392 
  40   0.0000       0.250451         6.8151 
  41   0.0000       0.251174         6.8348 
  42   0.0000       0.275759         7.5038 
  43   0.0000       0.302657         8.2357 
  44   0.0000       0.325919         8.8687 
  45   0.0000       0.334780         9.1098 
  46   0.0000       0.347241         9.4489 
  47   0.0000       0.381375        10.3777 
  48   0.0000       0.385703        10.4955 
  49   0.0000       0.429613        11.6904 
  50   0.0000       0.538786        14.6611 
  51   0.0000       0.574489        15.6327 
  52   0.0000       0.578593        15.7443 
  53   0.0000       0.583990        15.8912 
  54   0.0000       0.621511        16.9122 
  55   0.0000       0.630014        17.1435 
  56   0.0000       0.698274        19.0010 
  57   0.0000       0.823173        22.3997 
  58   0.0000       0.839831        22.8530 
  59   0.0000       0.873380        23.7659 
  60   0.0000       0.906636        24.6708 
  61   0.0000       0.917220        24.9588 
  62   0.0000       0.946831        25.7646 
  63   0.0000       0.989775        26.9331 
  64   0.0000       1.124483        30.5987 
  65   0.0000       1.151819        31.3426 
  66   0.0000       1.202179        32.7129 
  67   0.0000       1.282019        34.8855 
  68   0.0000       1.302725        35.4489 
  69   0.0000       1.306455        35.5504 
  70   0.0000       1.374539        37.4031 
  71   0.0000       1.506496        40.9938 
  72   0.0000       1.588234        43.2180 
  73   0.0000       1.672663        45.5155 
  74   0.0000       1.852948        50.4213 
  75   0.0000       2.369900        64.4883 
  76   0.0000       2.436942        66.3126 
  77   0.0000       2.437009        66.3144 
  78   0.0000       2.549809        69.3838 
  79   0.0000       2.564796        69.7917 
  80   0.0000       2.649042        72.0841 
  81   0.0000       2.652664        72.1826 
  82   0.0000       2.790885        75.9438 
  83   0.0000       2.797485        76.1234 
  84   0.0000       2.826577        76.9151 
  85   0.0000       2.869654        78.0873 
  86   0.0000       2.870963        78.1229 
  87   0.0000       2.915662        79.3392 
  88   0.0000       2.930443        79.7414 
  89   0.0000       2.945068        80.1394 
  90   0.0000       2.967214        80.7420 
  91   0.0000       2.989500        81.3484 
  92   0.0000       3.033639        82.5495 
  93   0.0000       3.077824        83.7518 
  94   0.0000       3.230286        87.9006 
  95   0.0000       3.263629        88.8079 
  96   0.0000       3.349758        91.1516 
  97   0.0000       3.405134        92.6584 
  98   0.0000       3.453847        93.9839 
  99   0.0000       3.556845        96.7867 
 100   0.0000       3.626671        98.6867 
 101   0.0000       3.634473        98.8991 
 102   0.0000       3.725843       101.3853 
 103   0.0000       3.847725       104.7019 
 104   0.0000       3.867269       105.2337 
 105   0.0000       3.885841       105.7391 
 106   0.0000       3.976190       108.1976 
 107   0.0000       3.981546       108.3434 
 108   0.0000       3.991015       108.6010 
 109   0.0000       4.031025       109.6898 
 110   0.0000       4.100469       111.5794 
 111   0.0000       4.110545       111.8536 
 112   0.0000       4.487524       122.1117 
 113   0.0000       4.504097       122.5627 
 114   0.0000       4.600069       125.1742 
 115   0.0000       4.638393       126.2171 
 116   0.0000       4.711364       128.2027 
 117   0.0000       4.958993       134.9411 
 118   0.0000       5.173946       140.7902 
 119   0.0000       5.253487       142.9546 
 120   0.0000       5.370451       146.1374 
 121   0.0000      11.237873       305.7981 
 122   0.0000      11.238976       305.8281 
 123   0.0000      11.259591       306.3890 
 124   0.0000      11.261735       306.4474 
 125   0.0000      11.268345       306.6273 
 126   0.0000      11.290997       307.2436 
 127   0.0000      11.294765       307.3462 
 128   0.0000      11.314265       307.8768 
 129   0.0000      11.319094       308.0082 
 130   0.0000      11.577729       315.0460 
 131   0.0000      11.577828       315.0487 
 132   0.0000      11.615355       316.0699 
 133   0.0000      11.670995       317.5839 
 134   0.0000      11.754639       319.8600 
 135   0.0000      11.814586       321.4912 
 136   0.0000      12.029320       327.3344 
 137   0.0000      22.585822       614.5914 

                 SPIN DOWN ORBITALS
  NO   OCC          E(Eh)            E(eV) 
   0   1.0000    -299.994688     -8163.2705 
   1   1.0000     -36.083530      -981.8828 
   2   1.0000     -31.512252      -857.4920 
   3   1.0000     -31.504891      -857.2917 
   4   1.0000     -31.494912      -857.0201 
   5   1.0000     -10.589701      -288.1604 
   6   1.0000      -4.372543      -118.9829 
   7   1.0000      -2.964296       -80.6626 
   8   1.0000      -2.956930       -80.4622 
   9   1.0000      -2.954190       -80.3876 
  10   1.0000      -1.039413       -28.2839 
  11   1.0000      -0.786815       -21.4103 
  12   1.0000      -0.721816       -19.6416 
  13   1.0000      -0.673765       -18.3341 
  14   1.0000      -0.641720       -17.4621 
  15   1.0000      -0.635980       -17.3059 
  16   1.0000      -0.583777       -15.8854 
  17   0.0000      -0.277007        -7.5377 
  18   0.0000      -0.236150        -6.4260 
  19   0.0000      -0.205150        -5.5824 
  20   0.0000      -0.122683        -3.3384 
  21   0.0000      -0.102158        -2.7799 
  22   0.0000      -0.080979        -2.2035 
  23   0.0000      -0.030218        -0.8223 
  24   0.0000      -0.026428        -0.7191 
  25   0.0000      -0.005080        -0.1382 
  26   0.0000       0.010713         0.2915 
  27   0.0000       0.011346         0.3088 
  28   0.0000       0.048235         1.3125 
  29   0.0000       0.056413         1.5351 
  30   0.0000       0.094231         2.5642 
  31   0.0000       0.102526         2.7899 
  32   0.0000       0.108234         2.9452 
  33   0.0000       0.121300         3.3007 
  34   0.0000       0.136718         3.7203 
  35   0.0000       0.154581         4.2064 
  36   0.0000       0.158999         4.3266 
  37   0.0000       0.179294         4.8788 
  38   0.0000       0.182110         4.9555 
  39   0.0000       0.228988         6.2311 
  40   0.0000       0.250323         6.8116 
  41   0.0000       0.251822         6.8524 
  42   0.0000       0.276194         7.5156 
  43   0.0000       0.303461         8.2576 
  44   0.0000       0.326087         8.8733 
  45   0.0000       0.334880         9.1126 
  46   0.0000       0.347692         9.4612 
  47   0.0000       0.382463        10.4073 
  48   0.0000       0.387827        10.5533 
  49   0.0000       0.430614        11.7176 
  50   0.0000       0.544455        14.8154 
  51   0.0000       0.573810        15.6142 
  52   0.0000       0.578309        15.7366 
  53   0.0000       0.590455        16.0671 
  54   0.0000       0.620293        16.8790 
  55   0.0000       0.631696        17.1893 
  56   0.0000       0.699831        19.0434 
  57   0.0000       0.822817        22.3900 
  58   0.0000       0.841166        22.8893 
  59   0.0000       0.875789        23.8314 
  60   0.0000       0.919542        25.0220 
  61   0.0000       0.936555        25.4850 
  62   0.0000       0.950561        25.8661 
  63   0.0000       0.991489        26.9798 
  64   0.0000       1.132375        30.8135 
  65   0.0000       1.156815        31.4785 
  66   0.0000       1.207161        32.8485 
  67   0.0000       1.281873        34.8815 
  68   0.0000       1.304499        35.4972 
  69   0.0000       1.308665        35.6106 
  70   0.0000       1.375116        37.4188 
  71   0.0000       1.501718        40.8638 
  72   0.0000       1.586064        43.1590 
  73   0.0000       1.670991        45.4700 
  74   0.0000       1.851971        50.3947 
  75   0.0000       2.371820        64.5405 
  76   0.0000       2.437990        66.3411 
  77   0.0000       2.437993        66.3412 
  78   0.0000       2.550596        69.4053 
  79   0.0000       2.564619        69.7868 
  80   0.0000       2.649211        72.0887 
  81   0.0000       2.651029        72.1382 
  82   0.0000       2.815652        76.6178 
  83   0.0000       2.821663        76.7814 
  84   0.0000       2.826198        76.9048 
  85   0.0000       2.916419        79.3598 
  86   0.0000       2.918475        79.4157 
  87   0.0000       2.931238        79.7630 
  88   0.0000       2.948040        80.2203 
  89   0.0000       2.954047        80.3837 
  90   0.0000       2.967734        80.7561 
  91   0.0000       2.984669        81.2170 
  92   0.0000       3.039895        82.7198 
  93   0.0000       3.085873        83.9709 
  94   0.0000       3.236987        88.0829 
  95   0.0000       3.265073        88.8472 
  96   0.0000       3.361318        91.4661 
  97   0.0000       3.403996        92.6274 
  98   0.0000       3.454936        94.0136 
  99   0.0000       3.564973        97.0079 
 100   0.0000       3.629163        98.7545 
 101   0.0000       3.647563        99.2552 
 102   0.0000       3.728072       101.4460 
 103   0.0000       3.851849       104.8141 
 104   0.0000       3.883907       105.6865 
 105   0.0000       3.887726       105.7904 
 106   0.0000       3.986189       108.4697 
 107   0.0000       3.987126       108.4952 
 108   0.0000       4.045290       110.0779 
 109   0.0000       4.076227       110.9198 
 110   0.0000       4.126951       112.3000 
 111   0.0000       4.126973       112.3006 
 112   0.0000       4.494451       122.3002 
 113   0.0000       4.501806       122.5004 
 114   0.0000       4.600458       125.1848 
 115   0.0000       4.637838       126.2020 
 116   0.0000       4.708825       128.1336 
 117   0.0000       4.959231       134.9475 
 118   0.0000       5.174206       140.7973 
 119   0.0000       5.252996       142.9413 
 120   0.0000       5.370426       146.1367 
 121   0.0000      11.298152       307.4384 
 122   0.0000      11.300035       307.4896 
 123   0.0000      11.300119       307.4919 
 124   0.0000      11.304468       307.6102 
 125   0.0000      11.307902       307.7037 
 126   0.0000      11.320244       308.0395 
 127   0.0000      11.328372       308.2607 
 128   0.0000      11.339460       308.5624 
 129   0.0000      11.341597       308.6205 
 130   0.0000      11.659296       317.2656 
 131   0.0000      11.661184       317.3169 
 132   0.0000      11.692333       318.1646 
 133   0.0000      11.694219       318.2159 
 134   0.0000      11.798808       321.0619 
 135   0.0000      11.849133       322.4313 
 136   0.0000      12.064680       328.2966 
 137   0.0000      22.584225       614.5480 

                    ********************************
                    * MULLIKEN POPULATION ANALYSIS *
                    ********************************

--------------------------------------------
MULLIKEN ATOMIC CHARGES AND SPIN POPULATIONS
--------------------------------------------
   0 C :    0.161675   -0.109720
   1 Ni:    0.565886    1.131815
   2 H :    0.136218   -0.011046
   3 H :    0.136221   -0.011049
Sum of atomic charges         :    1.0000000
Sum of atomic spin populations:    1.0000000

-----------------------------------------------------
MULLIKEN REDUCED ORBITAL CHARGES AND SPIN POPULATIONS
-----------------------------------------------------
CHARGE
  0 C s       :     3.181205  s :     3.181205
      pz      :     1.278221  p :     2.628041
      px      :     1.125751
      py      :     0.224069
      dz2     :    -0.006472  d :     0.023884
      dxz     :     0.011482
      dyz     :     0.011255
      dx2y2   :     0.006846
      dxy     :     0.000773
      f0      :     0.001906  f :     0.005196
      f+1     :     0.001386
      f-1     :     0.001095
      f+2     :     0.000645
      f-2     :     0.000049
      f+3     :     0.000117
      f-3     :    -0.000001
  1 Nis       :     6.704094  s :     6.704094
      pz      :     4.129460  p :    12.137536
      px      :     4.001167
      py      :     4.006910
      dz2     :     1.862338  d :     8.591483
      dxz     :     1.978671
      dyz     :     1.752914
      dx2y2   :     1.998237
      dxy     :     0.999323
      f0      :     0.000649  f :     0.000972
      f+1     :     0.000235
      f-1     :    -0.000010
      f+2     :     0.000031
      f-2     :     0.000014
      f+3     :     0.000025
      f-3     :     0.000029
      g0      :     0.000005  g :     0.000028
      g+1     :     0.000004
      g-1     :     0.000001
      g+2     :     0.000002
      g-2     :     0.000004
      g+3     :     0.000002
      g-3     :     0.000001
      g+4     :     0.000008
      g-4     :     0.000000
  2 H s       :     0.842758  s :     0.842758
      pz      :    -0.001204  p :     0.019269
      px      :     0.018859
      py      :     0.001614
      dz2     :     0.000744  d :     0.001755
      dxz     :     0.000569
      dyz     :     0.000081
      dx2y2   :     0.000270
      dxy     :     0.000092
  3 H s       :     0.842755  s :     0.842755
      pz      :    -0.001204  p :     0.019268
      px      :     0.018858
      py      :     0.001614
      dz2     :     0.000744  d :     0.001755
      dxz     :     0.000569
      dyz     :     0.000081
      dx2y2   :     0.000270
      dxy     :     0.000092

SPIN
  0 C s       :     0.008941  s :     0.008941
      pz      :    -0.018093  p :    -0.115240
      px      :    -0.000845
      py      :    -0.096302
      dz2     :    -0.000786  d :    -0.003436
      dxz     :    -0.000901
      dyz     :    -0.002241
      dx2y2   :    -0.000282
      dxy     :     0.000773
      f0      :    -0.000027  f :     0.000015
      f+1     :    -0.000034
      f-1     :    -0.000069
      f+2     :     0.000040
      f-2     :     0.000049
      f+3     :     0.000055
      f-3     :     0.000002
  1 Nis       :     0.006451  s :     0.006451
      pz      :     0.004325  p :    -0.000113
      px      :     0.000114
      py      :    -0.004552
      dz2     :     0.019791  d :     1.125451
      dxz     :     0.001179
      dyz     :     0.104908
      dx2y2   :     0.000250
      dxy     :     0.999323
      f0      :     0.000017  f :     0.000011
      f+1     :     0.000010
      f-1     :    -0.000005
      f+2     :     0.000001
      f-2     :     0.000014
      f+3     :    -0.000001
      f-3     :    -0.000025
      g0      :     0.000002  g :     0.000015
      g+1     :     0.000003
      g-1     :     0.000002
      g+2     :     0.000001
      g-2     :     0.000004
      g+3     :     0.000002
      g-3     :    -0.000001
      g+4     :     0.000001
      g-4     :     0.000000
  2 H s       :    -0.006006  s :    -0.006006
      pz      :    -0.003729  p :    -0.004929
      px      :    -0.000339
      py      :    -0.000861
      dz2     :    -0.000010  d :    -0.000110
      dxz     :    -0.000016
      dyz     :    -0.000029
      dx2y2   :    -0.000005
      dxy     :    -0.000052
  3 H s       :    -0.006009  s :    -0.006009
      pz      :    -0.003729  p :    -0.004930
      px      :    -0.000340
      py      :    -0.000861
      dz2     :    -0.000010  d :    -0.000110
      dxz     :    -0.000016
      dyz     :    -0.000029
      dx2y2   :    -0.000005
      dxy     :    -0.000052


                     *******************************
                     * LOEWDIN POPULATION ANALYSIS *
                     *******************************

-------------------------------------------
LOEWDIN ATOMIC CHARGES AND SPIN POPULATIONS
-------------------------------------------
   0 C :    0.335472   -0.092704
   1 Ni:    0.811685    1.108922
   2 H :   -0.073578   -0.008109
   3 H :   -0.073578   -0.008109

----------------------------------------------------
LOEWDIN REDUCED ORBITAL CHARGES AND SPIN POPULATIONS
----------------------------------------------------
CHARGE
  0 C s       :     2.926213  s :     2.926213
      pz      :     1.237824  p :     2.487351
      px      :     1.059994
      py      :     0.189533
      dz2     :     0.080663  d :     0.226774
      dxz     :     0.083877
      dyz     :     0.029301
      dx2y2   :     0.031293
      dxy     :     0.001641
      f0      :     0.010075  f :     0.024190
      f+1     :     0.005415
      f-1     :     0.003945
      f+2     :     0.003316
      f-2     :     0.000202
      f+3     :     0.001131
      f-3     :     0.000105
  1 Nis       :     6.316793  s :     6.316793
      pz      :     4.157500  p :    12.193202
      px      :     4.032299
      py      :     4.003403
      dz2     :     1.941143  d :     8.675262
      dxz     :     2.001808
      dyz     :     1.739135
      dx2y2   :     1.995085
      dxy     :     0.998091
      f0      :     0.002208  f :     0.003016
      f+1     :     0.000665
      f-1     :     0.000032
      f+2     :     0.000040
      f-2     :     0.000017
      f+3     :     0.000025
      f-3     :     0.000029
      g0      :     0.000014  g :     0.000043
      g+1     :     0.000007
      g-1     :     0.000003
      g+2     :     0.000002
      g-2     :     0.000004
      g+3     :     0.000002
      g-3     :     0.000001
      g+4     :     0.000008
      g-4     :     0.000000
  2 H s       :     0.738767  s :     0.738767
      pz      :     0.153947  p :     0.308376
      px      :     0.139004
      py      :     0.015425
      dz2     :     0.007163  d :     0.026436
      dxz     :     0.010482
      dyz     :     0.000636
      dx2y2   :     0.006938
      dxy     :     0.001217
  3 H s       :     0.738767  s :     0.738767
      pz      :     0.153947  p :     0.308376
      px      :     0.139004
      py      :     0.015425
      dz2     :     0.007163  d :     0.026436
      dxz     :     0.010482
      dyz     :     0.000636
      dx2y2   :     0.006938
      dxy     :     0.001217

SPIN
  0 C s       :    -0.004539  s :    -0.004539
      pz      :    -0.005458  p :    -0.084673
      px      :    -0.001039
      py      :    -0.078176
      dz2     :    -0.000552  d :    -0.003724
      dxz     :    -0.001553
      dyz     :    -0.003063
      dx2y2   :    -0.000197
      dxy     :     0.001641
      f0      :    -0.000001  f :     0.000232
      f+1     :    -0.000086
      f-1     :     0.000117
      f+2     :     0.000017
      f-2     :     0.000202
      f+3     :     0.000035
      f-3     :    -0.000053
  1 Nis       :    -0.006275  s :    -0.006275
      pz      :    -0.000136  p :    -0.004829
      px      :     0.000113
      py      :    -0.004806
      dz2     :     0.017653  d :     1.120017
      dxz     :     0.002421
      dyz     :     0.101489
      dx2y2   :     0.000363
      dxy     :     0.998091
      f0      :    -0.000001  f :    -0.000008
      f+1     :     0.000008
      f-1     :    -0.000007
      f+2     :     0.000001
      f-2     :     0.000017
      f+3     :    -0.000001
      f-3     :    -0.000025
      g0      :     0.000003  g :     0.000018
      g+1     :     0.000004
      g-1     :     0.000003
      g+2     :     0.000001
      g-2     :     0.000004
      g+3     :     0.000002
      g-3     :    -0.000001
      g+4     :     0.000001
      g-4     :     0.000000
  2 H s       :     0.000541  s :     0.000541
      pz      :    -0.000475  p :    -0.007673
      px      :    -0.000340
      py      :    -0.006858
      dz2     :    -0.000036  d :    -0.000978
      dxz     :    -0.000062
      dyz     :    -0.000286
      dx2y2   :    -0.000019
      dxy     :    -0.000574
  3 H s       :     0.000541  s :     0.000541
      pz      :    -0.000475  p :    -0.007673
      px      :    -0.000340
      py      :    -0.006858
      dz2     :    -0.000036  d :    -0.000978
      dxz     :    -0.000062
      dyz     :    -0.000286
      dx2y2   :    -0.000019
      dxy     :    -0.000574


                      *****************************
                      * MAYER POPULATION ANALYSIS *
                      *****************************

  NA   - Mulliken gross atomic population
  ZA   - Total nuclear charge
  QA   - Mulliken gross atomic charge
  VA   - Mayer's total valence
  BVA  - Mayer's bonded valence
  FA   - Mayer's free valence

  ATOM       NA         ZA         QA         VA         BVA        FA
  0 C      5.8383     6.0000     0.1617     3.3203     3.3102     0.0101
  1 Ni    27.4341    28.0000     0.5659     2.3729     1.3527     1.0202
  2 H      0.8638     1.0000     0.1362     0.9806     0.9805     0.0001
  3 H      0.8638     1.0000     0.1362     0.9806     0.9805     0.0001

  Mayer bond orders larger than 0.100000
B(  0-C ,  1-Ni) :   1.3552 B(  0-C ,  2-H ) :   0.9775 B(  0-C ,  3-H ) :   0.9775 


-------
TIMINGS
-------

Total SCF time: 0 days 0 hours 3 min 53 sec 

Total time                  ....     233.662 sec
Sum of individual times     ....     228.058 sec  ( 97.6%)

Fock matrix formation       ....     217.296 sec  ( 93.0%)
  XC integration            ....     209.202 sec  ( 96.3% of F)
    Basis function eval.    ....       0.064 sec  (  0.0% of XC)
    Density eval.           ....       0.069 sec  (  0.0% of XC)
    XC-Functional eval.     ....       0.046 sec  (  0.0% of XC)
    XC-Potential eval.      ....       0.151 sec  (  0.1% of XC)
Diagonalization             ....       5.172 sec  (  2.2%)
Density matrix formation    ....       0.048 sec  (  0.0%)
Population analysis         ....       0.613 sec  (  0.3%)
Initial guess               ....       0.182 sec  (  0.1%)
Orbital Transformation      ....       0.000 sec  (  0.0%)
Orbital Orthonormalization  ....       0.000 sec  (  0.0%)
DIIS solution               ....       0.225 sec  (  0.1%)
Grid generation             ....       4.522 sec  (  1.9%)

-------------------------   --------------------
FINAL SINGLE POINT ENERGY     -1547.096488059355
-------------------------   --------------------


----------------------------------------------------------------------------
                           ORCA NUMERICAL GRADIENT
                              (28-process run)
----------------------------------------------------------------------------

I state                        ... 1
J state                        ... 0
Number of atoms                ... 4
Derivative's order of accuracy ... 2
Central differences            ... used
Number of displacements        ... 24
Numerical increment            ... 5.000e-03 bohr
Translation invariance         ... used

The output will be reduced. Please look at the following files:
SCF program output             ... >NiCH2+.lastscf
Integral program output        ... >NiCH2+.lastint
Gradient program output        ... >NiCH2+.lastgrad


     Note:   There are more processes than displacements to do
     ===>:   Reducing number of processes to   9

             <<<Displacing   4/coordinate 1 (+)>>>
             <<<Displacing   4/coordinate 3 (+)>>>
             <<<Displacing   2/coordinate 1 (+)>>>
             <<<Displacing   3/coordinate 2 (+)>>>
             <<<Displacing   3/coordinate 1 (+)>>>
             <<<Displacing   4/coordinate 2 (+)>>>
             <<<Displacing   3/coordinate 3 (+)>>>
             <<<Displacing   2/coordinate 3 (+)>>>
             <<<Displacing   2/coordinate 2 (+)>>>
             <<<Displacing   3/coordinate 2 (-)>>>
             <<<Displacing   4/coordinate 2 (-)>>>
             <<<Displacing   4/coordinate 1 (-)>>>
             <<<Displacing   2/coordinate 2 (-)>>>
             <<<Displacing   3/coordinate 3 (-)>>>
             <<<Displacing   3/coordinate 1 (-)>>>
             <<<Displacing   2/coordinate 3 (-)>>>
             <<<Displacing   2/coordinate 1 (-)>>>
             <<<Displacing   4/coordinate 3 (-)>>>

------------------------------
CARTESIAN GRADIENT (NUMERICAL)
-------------------------------
   1   C   :    0.000000007    0.000000000    0.018420690
   2   Ni  :   -0.000000007   -0.000000001   -0.024145436
   3   H   :    0.008910427   -0.000000001    0.002862373
   4   H   :   -0.008910427    0.000000002    0.002862373

Norm of the cartesian gradient     ...    0.033128562
RMS gradient                       ...    0.009563392
MAX gradient                       ...    0.024145436

-------
TIMINGS
-------

Total numerical gradient time      ...       51.986 sec


                            ***************************************
                            *     ORCA property calculations      *
                            ***************************************

                                    ---------------------
                                    Active property flags
                                    ---------------------
   (+) Dipole Moment


------------------------------------------------------------------------------
                       ORCA ELECTRIC PROPERTIES CALCULATION
------------------------------------------------------------------------------

Dipole Moment Calculation                       ... on
Quadrupole Moment Calculation                   ... off
Polarizability Calculation                      ... off
GBWName                                         ... NiCH2+.gbw
Electron density file                           ... NiCH2+.scfp
The origin for moment calculation is the CENTER OF MASS  = ( 0.000000,  0.000000  2.686171)

-------------
DIPOLE MOMENT
-------------
                                X             Y             Z
Electronic contribution:     -0.00000      -0.00000       4.38717
Nuclear contribution   :      0.00000       0.00000      -4.66864
                        -----------------------------------------
Total Dipole Moment    :     -0.00000      -0.00000      -0.28147
                        -----------------------------------------
Magnitude (a.u.)       :      0.28147
Magnitude (Debye)      :      0.71544



--------------------
Rotational spectrum 
--------------------
 
Rotational constants in cm-1:     9.608689     0.421405     0.403700 
Rotational constants in MHz : 288061.237701 12633.415954 12102.634323 

 Dipole components along the rotational axes: 
x,y,z [a.u.] :    -0.281470    -0.000000    -0.000000 
x,y,z [Debye]:    -0.715440    -0.000000    -0.000000 

 

Timings for individual modules:

Sum of individual times         ...      289.981 sec (=   4.833 min)
GTO integral calculation        ...        3.665 sec (=   0.061 min)   1.3 %
SCF iterations                  ...      234.330 sec (=   3.906 min)  80.8 %
SCF Gradient evaluation         ...       51.986 sec (=   0.866 min)  17.9 %
                             ****ORCA TERMINATED NORMALLY****
TOTAL RUN TIME: 0 days 0 hours 5 minutes 10 seconds 340 msec
