
                                 *****************
                                 * O   R   C   A *
                                 *****************

           --- An Ab Initio, DFT and Semiempirical electronic structure package ---

                  #######################################################
                  #                        -***-                        #
                  #          Department of theory and spectroscopy      #
                  #               Directorship: Frank Neese             #
                  #        Max Planck Institute fuer Kohlenforschung    #
                  #                Kaiser Wilhelm Platz 1               #
                  #                 D-45470 Muelheim/Ruhr               #
                  #                      Germany                        #
                  #                                                     #
                  #                  All rights reserved                #
                  #                        -***-                        #
                  #######################################################


                         Program Version 4.2.0 -  RELEASE  -


 With contributions from (in alphabetic order):
   Daniel Aravena         : Magnetic Suceptibility
   Michael Atanasov       : Ab Initio Ligand Field Theory (pilot matlab implementation)
   Alexander A. Auer      : GIAO ZORA, VPT2
   Ute Becker             : Parallelization
   Giovanni Bistoni       : ED, misc. LED, open-shell LED, HFLED
   Martin Brehm           : Molecular dynamics
   Dmytro Bykov           : SCF Hessian
   Vijay G. Chilkuri      : MRCI spin determinant printing, contributions to CSF-ICE
   Dipayan Datta          : RHF DLPNO-CCSD density
   Achintya Kumar Dutta   : EOM-CC, STEOM-CC
   Dmitry Ganyushin       : Spin-Orbit,Spin-Spin,Magnetic field MRCI
   Miquel Garcia          : C-PCM Hessian, Gaussian charge scheme
   Yang Guo               : DLPNO-NEVPT2, CIM, IAO-localization
   Andreas Hansen         : Spin unrestricted coupled pair/coupled cluster methods
   Benjamin Helmich-Paris : CASSCF linear response (MC-RPA)
   Lee Huntington         : MR-EOM, pCC
   Robert Izsak           : Overlap fitted RIJCOSX, COSX-SCS-MP3, EOM
   Christian Kollmar      : KDIIS, OOCD, Brueckner-CCSD(T), CCSD density
   Simone Kossmann        : Meta GGA functionals, TD-DFT gradient, OOMP2, MP2 Hessian
   Martin Krupicka        : AUTO-CI
   Lucas Lang             : DCDCAS
   Dagmar Lenk            : GEPOL surface, SMD
   Dimitrios Liakos       : Extrapolation schemes; Compound Job, initial MDCI parallelization
   Dimitrios Manganas     : Further ROCIS development; embedding schemes
   Dimitrios Pantazis     : SARC Basis sets
   Taras Petrenko         : DFT Hessian,TD-DFT gradient, ASA, ECA, R-Raman, ABS, FL, XAS/XES, NRVS
   Peter Pinski           : DLPNO-MP2, DLPNO-MP2 Gradient
   Christoph Reimann      : Effective Core Potentials
   Marius Retegan         : Local ZFS, SOC
   Christoph Riplinger    : Optimizer, TS searches, QM/MM, DLPNO-CCSD(T), (RO)-DLPNO pert. Triples
   Tobias Risthaus        : Range-separated hybrids, TD-DFT gradient, RPA, STAB
   Michael Roemelt        : Original ROCIS implementation
   Masaaki Saitow         : Open-shell DLPNO-CCSD energy and density
   Barbara Sandhoefer     : DKH picture change effects
   Avijit Sen             : IP-ROCIS
   Kantharuban Sivalingam : CASSCF convergence, NEVPT2, FIC-MRCI
   Bernardo de Souza      : ESD, SOC TD-DFT
   Georgi Stoychev        : AutoAux, RI-MP2 NMR
   Willem Van den Heuvel  : Paramagnetic NMR
   Boris Wezisla          : Elementary symmetry handling
   Frank Wennmohs         : Technical directorship


 We gratefully acknowledge several colleagues who have allowed us to
 interface, adapt or use parts of their codes:
   Stefan Grimme, W. Hujo, H. Kruse,             : VdW corrections, initial TS optimization,
                  C. Bannwarth                     DFT functionals, gCP, sTDA/sTD-DF
   Ed Valeev, F. Pavosevic, A. Kumar             : LibInt (2-el integral package), F12 methods
   Garnet Chan, S. Sharma, J. Yang, R. Olivares  : DMRG
   Ulf Ekstrom                                   : XCFun DFT Library
   Mihaly Kallay                                 : mrcc  (arbitrary order and MRCC methods)
   Andreas Klamt, Michael Diedenhofen            : otool_cosmo (COSMO solvation model)
   Jiri Pittner, Ondrej Demel                    : Mk-CCSD
   Frank Weinhold                                : gennbo (NPA and NBO analysis)
   Christopher J. Cramer and Donald G. Truhlar   : smd solvation model
   Lars Goerigk                                  : TD-DFT with DH, B97 family of functionals
   V. Asgeirsson, H. Jonsson                     : NEB implementation
   FAccTs GmbH                                   : IRC, NEB, NEB-TS, Multilevel, MM, QM/MM, CI optimization
   S Lehtola, MJT Oliveira, MAL Marques          : LibXC Library


 Your calculation uses the libint2 library for the computation of 2-el integrals
 For citations please refer to: http://libint.valeyev.net

 Your ORCA version has been built with support for libXC version: 4.2.3
 For citations please refer to: https://tddft.org/programs/libxc/

 This ORCA versions uses:
   CBLAS   interface :  Fast vector & matrix operations
   LAPACKE interface :  Fast linear algebra routines
   SCALAPACK package :  Parallel linear algebra routines


Your calculation utilizes the DFT-NL dispersion correction.
Cite in your paper:
Vydrov, O. A.; Van Voorhis, T. J. Chem. Phys. 2010, 133, 244103
Hujo, W.; Grimme, S. J. Chem. Theory Comput. 2011, 7, 3866 
   

----- Orbital basis set information -----
Your calculation utilizes the basis: def2-TZVPPD
   F. Weigend and R. Ahlrichs, Phys. Chem. Chem. Phys. 7, 3297 (2005).
   D. Rappoport and F. Furche, J. Chem. Phys. 133 134105 (2010).

----- AuxJK basis set information -----
Your calculation utilizes the auxiliary basis: def2/JK
   H-Ba, Hf-Rn: F. Weigend, J. Comput. Chem. 29, 167 (2008).

================================================================================
                                        WARNINGS
                       Please study these warnings very carefully!
================================================================================

INFO   : Found keyword 'NumGrad' for Energy calculation
  ===> : Setting RunTyp to EnGrad

WARNING: Numerical Gradient with sloppy Convergence Criteria    
         Your results may be not reliable!                      
         Please choose at least TightSCF!                       

WARNING: your system is open-shell and RHF/RKS was chosen
  ===> : WILL SWITCH to UHF/UKS


INFO   : the flag for use of LIBINT has been found!

================================================================================
                                       INPUT FILE
================================================================================
NAME = o2.in
|  1> #
|  2> # o2 wB97X-V/Def2-TZVPPD
|  3> #
|  4> ! wb97x-v def2-tzvppd def2/jk grid4 nofinalgrid numgrad
|  5> 
|  6> *xyz 0 3
|  7> O          0.00000        0.00000        0.00000
|  8> O          0.00000        0.00000        1.20780
|  9> *
| 10> 
| 11> %maxcore 5000
| 12> 
| 13> %pal
| 14> nprocs = 28
| 15> end
| 16> 
| 17> 
| 18>                          ****END OF INPUT****
================================================================================

                     *******************************
                     * Energy+Gradient Calculation *
                     *******************************

---------------------------------
CARTESIAN COORDINATES (ANGSTROEM)
---------------------------------
  O      0.000000    0.000000    0.000000
  O      0.000000    0.000000    1.207800

----------------------------
CARTESIAN COORDINATES (A.U.)
----------------------------
  NO LB      ZA    FRAG     MASS         X           Y           Z
   0 O     8.0000    0    15.999    0.000000    0.000000    0.000000
   1 O     8.0000    0    15.999    0.000000    0.000000    2.282411

--------------------------------
INTERNAL COORDINATES (ANGSTROEM)
--------------------------------
 O      0   0   0     0.000000000000     0.00000000     0.00000000
 O      1   0   0     1.207800000000     0.00000000     0.00000000

---------------------------
INTERNAL COORDINATES (A.U.)
---------------------------
 O      0   0   0     0.000000000000     0.00000000     0.00000000
 O      1   0   0     2.282411224550     0.00000000     0.00000000

---------------------
BASIS SET INFORMATION
---------------------
There are 1 groups of distinct atoms

 Group   1 Type O   : 12s7p3d1f contracted to 6s4p3d1f pattern {621111/4111/111/1}

Atom   0O    basis set group =>   1
Atom   1O    basis set group =>   1
----------------------------------
AUXILIARY/JK BASIS SET INFORMATION
----------------------------------
There are 1 groups of distinct atoms

 Group   1 Type O   : 14s10p6d2f1g contracted to 10s8p4d2f1g pattern {5111111111/31111111/3111/11/1}

Atom   0O    basis set group =>   1
Atom   1O    basis set group =>   1


           ************************************************************
           *        Program running with 28 parallel MPI-processes    *
           *              working on a common directory               *
           ************************************************************
------------------------------------------------------------------------------
                           ORCA GTO INTEGRAL CALCULATION
------------------------------------------------------------------------------

                         BASIS SET STATISTICS AND STARTUP INFO

 # of primitive gaussian shells          ...   46
 # of primitive gaussian functions       ...  110
 # of contracted shells                  ...   28
 # of contracted basis functions         ...   80
 Highest angular momentum                ...    3
 Maximum contraction depth               ...    6
 Integral package used                   ... LIBINT
 Integral threshhold            Thresh   ...  1.000e-10
 Primitive cut-off              TCut     ...  1.000e-11


------------------------------ INTEGRAL EVALUATION ----------------------------


 * One electron integrals 
 Pre-screening matrix                    ... done
 Shell pair data                         ... done (   0.000 sec)



           ************************************************************
           *        Program running with 28 parallel MPI-processes    *
           *              working on a common directory               *
           ************************************************************
-------------------------------------------------------------------------------
                                 ORCA SCF
-------------------------------------------------------------------------------

------------
SCF SETTINGS
------------
Hamiltonian:
 Density Functional     Method          .... DFT(GTOs)
 Exchange Functional    Exchange        .... WB97X-V
 Correlation Functional Correlation     .... WB97X-V
 Gradients option       PostSCFGGA      .... off
 Hybrid DFT is turned on
   Fraction HF Exchange ScalHFX         ....  0.167000
   Scaling of DF-GGA-X  ScalDFX         ....  0.000000
   Scaling of DF-GGA-C  ScalDFC         ....  1.000000
   Scaling of DF-LDA-C  ScalLDAC        ....  1.000000
   Perturbative correction              ....  0.000000
   Density functional embedding theory  .... OFF
 Long-range corrected/Screened/Range-Separated Hybrid DFT is turned on
   Amount of maximum screened exact exchange              ....  0.833000
   Range separation parameter mu (erf(mu*r12)/r12)        ....  0.300000
   NL short-range parameter             ....  6.000000
   NL long-range parameter              ....  0.010000


General Settings:
 Integral files         IntName         .... o2
 Hartree-Fock type      HFTyp           .... UHF
 Total Charge           Charge          ....    0
 Multiplicity           Mult            ....    3
 Number of Electrons    NEL             ....   16
 Basis Dimension        Dim             ....   80
 Nuclear Repulsion      ENuc            ....     28.0405210558 Eh

Convergence Acceleration:
 DIIS                   CNVDIIS         .... on
   Start iteration      DIISMaxIt       ....    12
   Startup error        DIISStart       ....  0.200000
   # of expansion vecs  DIISMaxEq       ....     5
   Bias factor          DIISBfac        ....   1.050
   Max. coefficient     DIISMaxC        ....  10.000
 Newton-Raphson         CNVNR           .... off
 SOSCF                  CNVSOSCF        .... off
 Level Shifting         CNVShift        .... on
   Level shift para.    LevelShift      ....    0.2500
   Turn off err/grad.   ShiftErr        ....    0.0010
 Zerner damping         CNVZerner       .... off
 Static damping         CNVDamp         .... on
   Fraction old density DampFac         ....    0.7000
   Max. Damping (<1)    DampMax         ....    0.9800
   Min. Damping (>=0)   DampMin         ....    0.0000
   Turn off err/grad.   DampErr         ....    0.1000
 Fernandez-Rico         CNVRico         .... off

SCF Procedure:
 Maximum # iterations   MaxIter         ....   125
 SCF integral mode      SCFMode         .... Direct
   Integral package                     .... LIBINT
 Reset frequency        DirectResetFreq ....    20
 Integral Threshold     Thresh          ....  1.000e-10 Eh
 Primitive CutOff       TCut            ....  1.000e-11 Eh

Convergence Tolerance:
 Convergence Check Mode ConvCheckMode   .... Total+1el-Energy
 Convergence forced     ConvForced      .... 0
 Energy Change          TolE            ....  1.000e-06 Eh
 1-El. energy change                    ....  1.000e-03 Eh
 DIIS Error             TolErr          ....  1.000e-06


Diagonalization of the overlap matrix:
Smallest eigenvalue                        ... 2.492e-04
Time for diagonalization                   ...    0.002 sec
Threshold for overlap eigenvalues          ... 1.000e-08
Number of eigenvalues below threshold      ... 0
Time for construction of square roots      ...    0.022 sec
Total time needed                          ...    0.023 sec

-------------------
DFT GRID GENERATION
-------------------

General Integration Accuracy     IntAcc      ...  4.670
Radial Grid Type                 RadialGrid  ... Gauss-Chebyshev
Angular Grid (max. acc.)         AngularGrid ... Lebedev-302
Angular grid pruning method      GridPruning ... 3 (G Style)
Weight generation scheme         WeightScheme... Becke
Basis function cutoff            BFCut       ...    1.0000e-10
Integration weight cutoff        WCut        ...    1.0000e-14
Grids for H and He will be reduced by one unit

# of grid points (after initial pruning)     ...  12424 (   0.0 sec)
# of grid points (after weights+screening)   ...  12396 (   0.0 sec)
nearest neighbour list constructed           ...    0.0 sec
Grid point re-assignment to atoms done       ...    0.0 sec
Grid point division into batches done        ...    0.1 sec
Reduced shell lists constructed in    0.1 sec

Total number of grid points                  ...    12396
Total number of batches                      ...      194
Average number of points per batch           ...       63
Average number of grid points per atom       ...     6198
Average number of shells per batch           ...     8.00 (28.57%)
Average number of basis functions per batch  ...    21.25 (26.56%)
Average number of large shells per batch     ...     4.62 (57.81%)
Average number of large basis fcns per batch ...    13.12 (61.76%)
Maximum spatial batch extension              ...  19.94, 19.94, 11.06 au
Average spatial batch extension              ...   0.55,  0.50,  0.34 au

Time for grid setup =    1.339 sec

------------------------------
INITIAL GUESS: MODEL POTENTIAL
------------------------------
Loading Hartree-Fock densities                     ... done
Calculating cut-offs                               ... done
Setting up the integral package                    ... done
Initializing the effective Hamiltonian             ... done
Starting the Coulomb interaction                   ... done (   0.0 sec)
Reading the grid                                   ... done
Mapping shells                                     ... done
Starting the XC term evaluation                    ... done (   0.0 sec)
  promolecular density results
     # of electrons  =     15.999999817
     EX              =    -11.370969701
     EC              =     -0.706449567
     EX+EC           =    -12.077419268
Transforming the Hamiltonian                       ... done (   0.1 sec)
Diagonalizing the Hamiltonian                      ... done (   0.0 sec)
Back transforming the eigenvectors                 ... done (   0.0 sec)
Now organizing SCF variables                       ... done
                      ------------------
                      INITIAL GUESS DONE (   1.8 sec)
                      ------------------
--------------
SCF ITERATIONS
--------------
ITER       Energy         Delta-E        Max-DP      RMS-DP      [F,P]     Damp
               ***  Starting incremental Fock matrix formation  ***
  0   -150.2636104854   0.000000000000 0.03041534  0.00131083  0.3627416 0.7000
  1   -150.3166536972  -0.053043211795 0.02576786  0.00111703  0.2382183 0.7000
                               ***Turning on DIIS***
  2   -150.3466075947  -0.029953897449 0.01919729  0.00082350  0.1562120 0.7000
  3   -150.3650249313  -0.018417336630 0.01417781  0.00061369  0.1036134 0.7000
  4   -150.3774893475  -0.012464416186 0.03647524  0.00158450  0.0718810 0.0000
  5   -150.4069565426  -0.029467195130 0.00548350  0.00020763  0.0034710 0.0000
  6   -150.4071722261  -0.000215683508 0.00329283  0.00012066  0.0015553 0.0000
  7   -150.4072291025  -0.000056876419 0.00224567  0.00008089  0.0006079 0.0000
  8   -150.4072396459  -0.000010543408 0.00019196  0.00000715  0.0000616 0.0000
                 **** Energy Check signals convergence ****

               *****************************************************
               *                     SUCCESS                       *
               *           SCF CONVERGED AFTER   9 CYCLES          *
               *****************************************************


Setting up the DFT-NL grid :

General Integration Accuracy     IntAcc      ...  4.340
Radial Grid Type                 RadialGrid  ... Gauss-Chebyshev
Angular Grid (max. acc.)         AngularGrid ... Lebedev-110
Angular grid pruning method      GridPruning ... 3 (G Style)
Weight generation scheme         WeightScheme... Becke
Basis function cutoff            BFCut       ...    1.0000e-10
Integration weight cutoff        WCut        ...    1.0000e-14
Grids for H and He will be reduced by one unit

# of grid points (after initial pruning)     ...   3432 (   0.0 sec)
# of grid points (after weights+screening)   ...   3406 (   0.0 sec)
nearest neighbour list constructed           ...    0.0 sec
Grid point re-assignment to atoms done       ...    0.0 sec
Grid point division into batches done        ...    0.0 sec
Reduced shell lists constructed in    0.0 sec

Total number of grid points                  ...     3406
Total number of batches                      ...       54
Average number of points per batch           ...       63
Average number of grid points per atom       ...     1703
Average number of shells per batch           ...    12.00 (42.86%)
Average number of basis functions per batch  ...    34.67 (43.33%)
Average number of large shells per batch     ...    10.67 (88.89%)
Average number of large basis fcns per batch ...    29.33 (84.62%)
Maximum spatial batch extension              ...  13.89, 25.65, 13.62 au
Average spatial batch extension              ...   0.51,  0.95,  0.50 au

Final grid set up in    2.1 sec

-------------------------------------------------------------------------------
                         DFT-NL dispersion correction                          
-------------------------------------------------------------------------------

SC Energy -150.407239726 
NL    Energy 0.067722349 
SC+NL Energy -150.339517377 
NL done in    1.4 sec
-------------------------------------------------------------------------------

----------------
TOTAL SCF ENERGY
----------------

Total Energy       :         -150.33951738 Eh           -4090.94625 eV

Components:
Nuclear Repulsion  :           28.04052106 Eh             763.02137 eV
Electronic Energy  :         -178.38003843 Eh           -4853.96762 eV
One Electron Energy:         -261.76556684 Eh           -7123.00320 eV
Two Electron Energy:           83.38552840 Eh            2269.03558 eV

Virial components:
Potential Energy   :         -300.24545192 Eh           -8170.09411 eV
Kinetic Energy     :          149.90593454 Eh            4079.14786 eV
Virial Ratio       :            2.00289237


DFT components:
N(Alpha)           :        9.000001296453 electrons
N(Beta)            :        7.000001640718 electrons
N(Total)           :       16.000002937171 electrons
E(X)               :      -11.494876570079 Eh       
E(C)               :       -0.696019327720 Eh       
NL Energy, E(C,NL) :        0.067722349486 Eh       
E(XC)              :      -12.123173548313 Eh       
DFET-embed. en.    :        0.000000000000 Eh       

---------------
SCF CONVERGENCE
---------------

  Last Energy change         ...   -8.0525e-08  Tolerance :   1.0000e-06
  Last MAX-Density change    ...    8.7642e-06  Tolerance :   1.0000e-05
  Last RMS-Density change    ...    5.5638e-07  Tolerance :   1.0000e-06
  Last DIIS Error            ...    7.9110e-06  Tolerance :   1.0000e-06

             **** THE GBW FILE WAS UPDATED (o2.gbw) ****
             **** DENSITY FILE WAS UPDATED (o2.scfp) ****
             **** ENERGY FILE WAS UPDATED (o2.en.tmp) ****
----------------------
UHF SPIN CONTAMINATION
----------------------

Warning: in a DFT calculation there is little theoretical justification to 
         calculate <S**2> as in Hartree-Fock theory. We will do it anyways
         but you should keep in mind that the values have only limited relevance

Expectation value of <S**2>     :     2.009417
Ideal value S*(S+1) for S=1.0   :     2.000000
Deviation                       :     0.009417

             **** THE GBW FILE WAS UPDATED (o2.gbw) ****
             **** DENSITY FILE WAS UPDATED (o2.scfp) ****
----------------
ORBITAL ENERGIES
----------------
                 SPIN UP ORBITALS
  NO   OCC          E(Eh)            E(eV) 
   0   1.0000     -19.379060      -527.3310 
   1   1.0000     -19.378968      -527.3285 
   2   1.0000      -1.443106       -39.2689 
   3   1.0000      -0.972936       -26.4749 
   4   1.0000      -0.688829       -18.7440 
   5   1.0000      -0.688829       -18.7440 
   6   1.0000      -0.672061       -18.2877 
   7   1.0000      -0.427084       -11.6215 
   8   1.0000      -0.427084       -11.6215 
   9   0.0000       0.080912         2.2017 
  10   0.0000       0.111613         3.0371 
  11   0.0000       0.120752         3.2858 
  12   0.0000       0.120752         3.2858 
  13   0.0000       0.160629         4.3709 
  14   0.0000       0.160629         4.3709 
  15   0.0000       0.164011         4.4630 
  16   0.0000       0.257439         7.0053 
  17   0.0000       0.366075         9.9614 
  18   0.0000       0.393886        10.7182 
  19   0.0000       0.393886        10.7182 
  20   0.0000       0.479866        13.0578 
  21   0.0000       0.532657        14.4943 
  22   0.0000       0.533421        14.5151 
  23   0.0000       0.533421        14.5151 
  24   0.0000       0.548044        14.9130 
  25   0.0000       0.548044        14.9130 
  26   0.0000       0.565562        15.3897 
  27   0.0000       0.565563        15.3898 
  28   0.0000       0.619192        16.8491 
  29   0.0000       0.619192        16.8491 
  30   0.0000       0.702981        19.1291 
  31   0.0000       0.861413        23.4403 
  32   0.0000       0.980672        26.6854 
  33   0.0000       0.980672        26.6854 
  34   0.0000       0.984817        26.7982 
  35   0.0000       1.311244        35.6808 
  36   0.0000       1.561388        42.4875 
  37   0.0000       1.561388        42.4875 
  38   0.0000       1.563864        42.5549 
  39   0.0000       1.563864        42.5549 
  40   0.0000       1.886146        51.3246 
  41   0.0000       1.886146        51.3246 
  42   0.0000       2.027774        55.1785 
  43   0.0000       2.230517        60.6955 
  44   0.0000       2.230517        60.6955 
  45   0.0000       2.483023        67.5665 
  46   0.0000       2.612795        71.0978 
  47   0.0000       2.612795        71.0978 
  48   0.0000       2.895525        78.7913 
  49   0.0000       3.112523        84.6961 
  50   0.0000       3.112523        84.6961 
  51   0.0000       3.224314        87.7380 
  52   0.0000       3.313441        90.1633 
  53   0.0000       4.360168       118.6462 
  54   0.0000       4.663610       126.9033 
  55   0.0000       4.663611       126.9033 
  56   0.0000       4.784104       130.1821 
  57   0.0000       4.784104       130.1821 
  58   0.0000       4.988223       135.7365 
  59   0.0000       4.988223       135.7365 
  60   0.0000       5.087997       138.4514 
  61   0.0000       5.228492       142.2745 
  62   0.0000       5.228492       142.2745 
  63   0.0000       5.782009       157.3365 
  64   0.0000       5.782009       157.3365 
  65   0.0000       6.267548       170.5486 
  66   0.0000       6.267559       170.5489 
  67   0.0000       6.374908       173.4701 
  68   0.0000       6.374908       173.4701 
  69   0.0000       6.437844       175.1827 
  70   0.0000       6.437854       175.1829 
  71   0.0000       6.567664       178.7152 
  72   0.0000       6.578793       179.0181 
  73   0.0000       6.578793       179.0181 
  74   0.0000       7.301355       198.6800 
  75   0.0000       7.301355       198.6800 
  76   0.0000       7.533526       204.9977 
  77   0.0000       8.742518       237.8960 
  78   0.0000      43.397230      1180.8987 
  79   0.0000      44.035784      1198.2746 

                 SPIN DOWN ORBITALS
  NO   OCC          E(Eh)            E(eV) 
   0   1.0000     -19.353498      -526.6355 
   1   1.0000     -19.353183      -526.6269 
   2   1.0000      -1.387500       -37.7558 
   3   1.0000      -0.881535       -23.9878 
   4   1.0000      -0.631493       -17.1838 
   5   1.0000      -0.580191       -15.7878 
   6   1.0000      -0.580191       -15.7878 
   7   0.0000      -0.020864        -0.5678 
   8   0.0000      -0.020864        -0.5678 
   9   0.0000       0.084328         2.2947 
  10   0.0000       0.115852         3.1525 
  11   0.0000       0.124837         3.3970 
  12   0.0000       0.124837         3.3970 
  13   0.0000       0.164908         4.4874 
  14   0.0000       0.168471         4.5843 
  15   0.0000       0.168471         4.5843 
  16   0.0000       0.274302         7.4641 
  17   0.0000       0.394888        10.7454 
  18   0.0000       0.396920        10.8007 
  19   0.0000       0.396921        10.8008 
  20   0.0000       0.481462        13.1013 
  21   0.0000       0.542961        14.7747 
  22   0.0000       0.548020        14.9124 
  23   0.0000       0.548020        14.9124 
  24   0.0000       0.552856        15.0440 
  25   0.0000       0.552856        15.0440 
  26   0.0000       0.571763        15.5585 
  27   0.0000       0.571764        15.5585 
  28   0.0000       0.643609        17.5135 
  29   0.0000       0.643609        17.5135 
  30   0.0000       0.715901        19.4807 
  31   0.0000       0.873593        23.7717 
  32   0.0000       0.986056        26.8319 
  33   0.0000       1.000215        27.2172 
  34   0.0000       1.000215        27.2172 
  35   0.0000       1.327340        36.1187 
  36   0.0000       1.590980        43.2928 
  37   0.0000       1.590980        43.2928 
  38   0.0000       1.599687        43.5297 
  39   0.0000       1.599687        43.5297 
  40   0.0000       1.941069        52.8192 
  41   0.0000       1.941070        52.8192 
  42   0.0000       2.052356        55.8475 
  43   0.0000       2.266991        61.6880 
  44   0.0000       2.266991        61.6880 
  45   0.0000       2.503339        68.1193 
  46   0.0000       2.683508        73.0220 
  47   0.0000       2.683508        73.0220 
  48   0.0000       2.936457        79.9050 
  49   0.0000       3.175196        86.4015 
  50   0.0000       3.175196        86.4015 
  51   0.0000       3.255493        88.5865 
  52   0.0000       3.355262        91.3013 
  53   0.0000       4.389132       119.4343 
  54   0.0000       4.701913       127.9455 
  55   0.0000       4.701913       127.9455 
  56   0.0000       4.814069       130.9975 
  57   0.0000       4.814069       130.9975 
  58   0.0000       5.051043       137.4459 
  59   0.0000       5.051043       137.4459 
  60   0.0000       5.130264       139.6016 
  61   0.0000       5.294940       144.0826 
  62   0.0000       5.294940       144.0826 
  63   0.0000       5.832414       158.7081 
  64   0.0000       5.832415       158.7081 
  65   0.0000       6.371268       173.3710 
  66   0.0000       6.371278       173.3713 
  67   0.0000       6.437284       175.1674 
  68   0.0000       6.437284       175.1674 
  69   0.0000       6.536758       177.8742 
  70   0.0000       6.536768       177.8745 
  71   0.0000       6.613802       179.9707 
  72   0.0000       6.638474       180.6421 
  73   0.0000       6.638474       180.6421 
  74   0.0000       7.336903       199.6473 
  75   0.0000       7.336903       199.6473 
  76   0.0000       7.569702       205.9821 
  77   0.0000       8.778490       238.8748 
  78   0.0000      43.429051      1181.7646 
  79   0.0000      44.066770      1199.1178 

                    ********************************
                    * MULLIKEN POPULATION ANALYSIS *
                    ********************************

--------------------------------------------
MULLIKEN ATOMIC CHARGES AND SPIN POPULATIONS
--------------------------------------------
   0 O :   -0.000000    1.000000
   1 O :    0.000000    1.000000
Sum of atomic charges         :    0.0000000
Sum of atomic spin populations:    2.0000000

-----------------------------------------------------
MULLIKEN REDUCED ORBITAL CHARGES AND SPIN POPULATIONS
-----------------------------------------------------
CHARGE
  0 O s       :     3.929606  s :     3.929606
      pz      :     1.055699  p :     4.018568
      px      :     1.481435
      py      :     1.481435
      dz2     :     0.012754  d :     0.047010
      dxz     :     0.017128
      dyz     :     0.017128
      dx2y2   :     0.000000
      dxy     :     0.000000
      f0      :     0.001942  f :     0.004817
      f+1     :     0.001438
      f-1     :     0.001438
      f+2     :     0.000000
      f-2     :     0.000000
      f+3     :     0.000000
      f-3     :     0.000000
  1 O s       :     3.929605  s :     3.929605
      pz      :     1.055699  p :     4.018568
      px      :     1.481435
      py      :     1.481435
      dz2     :     0.012754  d :     0.047010
      dxz     :     0.017128
      dyz     :     0.017128
      dx2y2   :     0.000000
      dxy     :     0.000000
      f0      :     0.001942  f :     0.004817
      f+1     :     0.001438
      f-1     :     0.001438
      f+2     :     0.000000
      f-2     :     0.000000
      f+3     :     0.000000
      f-3     :     0.000000

SPIN
  0 O s       :     0.008799  s :     0.008799
      pz      :    -0.008893  p :     1.004408
      px      :     0.506650
      py      :     0.506650
      dz2     :     0.000362  d :    -0.012939
      dxz     :    -0.006650
      dyz     :    -0.006650
      dx2y2   :     0.000000
      dxy     :     0.000000
      f0      :    -0.000269  f :    -0.000269
      f+1     :     0.000000
      f-1     :     0.000000
      f+2     :     0.000000
      f-2     :     0.000000
      f+3     :     0.000000
      f-3     :     0.000000
  1 O s       :     0.008800  s :     0.008800
      pz      :    -0.008893  p :     1.004408
      px      :     0.506650
      py      :     0.506650
      dz2     :     0.000362  d :    -0.012939
      dxz     :    -0.006650
      dyz     :    -0.006650
      dx2y2   :     0.000000
      dxy     :    -0.000000
      f0      :    -0.000269  f :    -0.000269
      f+1     :     0.000000
      f-1     :     0.000000
      f+2     :     0.000000
      f-2     :     0.000000
      f+3     :     0.000000
      f-3     :     0.000000


                     *******************************
                     * LOEWDIN POPULATION ANALYSIS *
                     *******************************

-------------------------------------------
LOEWDIN ATOMIC CHARGES AND SPIN POPULATIONS
-------------------------------------------
   0 O :   -0.000000    1.000000
   1 O :    0.000000    1.000000

----------------------------------------------------
LOEWDIN REDUCED ORBITAL CHARGES AND SPIN POPULATIONS
----------------------------------------------------
CHARGE
  0 O s       :     3.546424  s :     3.546424
      pz      :     1.290158  p :     4.084901
      px      :     1.397371
      py      :     1.397371
      dz2     :     0.155949  d :     0.349839
      dxz     :     0.096945
      dyz     :     0.096945
      dx2y2   :     0.000000
      dxy     :     0.000000
      f0      :     0.007469  f :     0.018836
      f+1     :     0.005684
      f-1     :     0.005684
      f+2     :     0.000000
      f-2     :     0.000000
      f+3     :     0.000000
      f-3     :     0.000000
  1 O s       :     3.546424  s :     3.546424
      pz      :     1.290158  p :     4.084901
      px      :     1.397371
      py      :     1.397371
      dz2     :     0.155949  d :     0.349839
      dxz     :     0.096945
      dyz     :     0.096945
      dx2y2   :     0.000000
      dxy     :     0.000000
      f0      :     0.007469  f :     0.018836
      f+1     :     0.005684
      f-1     :     0.005684
      f+2     :     0.000000
      f-2     :     0.000000
      f+3     :     0.000000
      f-3     :     0.000000

SPIN
  0 O s       :     0.009038  s :     0.009038
      pz      :    -0.011025  p :     0.886053
      px      :     0.448539
      py      :     0.448539
      dz2     :     0.002085  d :     0.099487
      dxz     :     0.048701
      dyz     :     0.048701
      dx2y2   :     0.000000
      dxy     :     0.000000
      f0      :    -0.000098  f :     0.005422
      f+1     :     0.002760
      f-1     :     0.002760
      f+2     :     0.000000
      f-2     :     0.000000
      f+3     :     0.000000
      f-3     :     0.000000
  1 O s       :     0.009038  s :     0.009038
      pz      :    -0.011025  p :     0.886053
      px      :     0.448539
      py      :     0.448539
      dz2     :     0.002085  d :     0.099487
      dxz     :     0.048701
      dyz     :     0.048701
      dx2y2   :     0.000000
      dxy     :    -0.000000
      f0      :    -0.000098  f :     0.005422
      f+1     :     0.002760
      f-1     :     0.002760
      f+2     :     0.000000
      f-2     :     0.000000
      f+3     :     0.000000
      f-3     :     0.000000


                      *****************************
                      * MAYER POPULATION ANALYSIS *
                      *****************************

  NA   - Mulliken gross atomic population
  ZA   - Total nuclear charge
  QA   - Mulliken gross atomic charge
  VA   - Mayer's total valence
  BVA  - Mayer's bonded valence
  FA   - Mayer's free valence

  ATOM       NA         ZA         QA         VA         BVA        FA
  0 O      8.0000     8.0000    -0.0000     2.2634     1.7108     0.5526
  1 O      8.0000     8.0000     0.0000     2.2634     1.7108     0.5526

  Mayer bond orders larger than 0.100000
B(  0-O ,  1-O ) :   1.7108 

-------
TIMINGS
-------

Total SCF time: 0 days 0 hours 1 min 35 sec 

Total time                  ....      95.240 sec
Sum of individual times     ....      91.658 sec  ( 96.2%)

Fock matrix formation       ....      86.061 sec  ( 90.4%)
  XC integration            ....      84.043 sec  ( 97.7% of F)
    Basis function eval.    ....       0.010 sec  (  0.0% of XC)
    Density eval.           ....       0.014 sec  (  0.0% of XC)
    XC-Functional eval.     ....       0.015 sec  (  0.0% of XC)
    XC-Potential eval.      ....       0.021 sec  (  0.0% of XC)
Diagonalization             ....       1.103 sec  (  1.2%)
Density matrix formation    ....       0.020 sec  (  0.0%)
Population analysis         ....       0.549 sec  (  0.6%)
Initial guess               ....       0.423 sec  (  0.4%)
Orbital Transformation      ....       0.000 sec  (  0.0%)
Orbital Orthonormalization  ....       0.000 sec  (  0.0%)
DIIS solution               ....       0.072 sec  (  0.1%)
Grid generation             ....       3.431 sec  (  3.6%)

-------------------------   --------------------
FINAL SINGLE POINT ENERGY      -150.339517376978
-------------------------   --------------------


----------------------------------------------------------------------------
                           ORCA NUMERICAL GRADIENT
                              (28-process run)
----------------------------------------------------------------------------

I state                        ... 1
J state                        ... 0
Number of atoms                ... 2
Derivative's order of accuracy ... 2
Central differences            ... used
Number of displacements        ... 12
Numerical increment            ... 5.000e-03 bohr
Translation invariance         ... used

The output will be reduced. Please look at the following files:
SCF program output             ... >o2.lastscf
Integral program output        ... >o2.lastint
Gradient program output        ... >o2.lastgrad


     Note:   There are more processes than displacements to do
     ===>:   Reducing number of processes to   3

             <<<Displacing   2/coordinate 3 (+)>>>
             <<<Displacing   2/coordinate 1 (+)>>>
             <<<Displacing   2/coordinate 2 (+)>>>
             <<<Displacing   2/coordinate 2 (-)>>>
             <<<Displacing   2/coordinate 1 (-)>>>
             <<<Displacing   2/coordinate 3 (-)>>>

------------------------------
CARTESIAN GRADIENT (NUMERICAL)
-------------------------------
   1   O   :   -0.000000000    0.000000000   -0.019103961
   2   O   :    0.000000000   -0.000000000    0.019103961

Norm of the cartesian gradient     ...    0.027017081
RMS gradient                       ...    0.011029677
MAX gradient                       ...    0.019103961

-------
TIMINGS
-------

Total numerical gradient time      ...       27.036 sec


                            ***************************************
                            *     ORCA property calculations      *
                            ***************************************

                                    ---------------------
                                    Active property flags
                                    ---------------------
   (+) Dipole Moment


------------------------------------------------------------------------------
                       ORCA ELECTRIC PROPERTIES CALCULATION
------------------------------------------------------------------------------

Dipole Moment Calculation                       ... on
Quadrupole Moment Calculation                   ... off
Polarizability Calculation                      ... off
GBWName                                         ... o2.gbw
Electron density file                           ... o2.scfp
The origin for moment calculation is the CENTER OF MASS  = ( 0.000000,  0.000000  1.141206)

-------------
DIPOLE MOMENT
-------------
                                X             Y             Z
Electronic contribution:      0.00000       0.00000      -0.00000
Nuclear contribution   :      0.00000       0.00000       0.00000
                        -----------------------------------------
Total Dipole Moment    :      0.00000       0.00000      -0.00000
                        -----------------------------------------
Magnitude (a.u.)       :      0.00000
Magnitude (Debye)      :      0.00000



--------------------
Rotational spectrum 
--------------------
 
Rotational constants in cm-1:     0.000000     1.444588     1.444588 
Rotational constants in MHz :     0.000000 43307.659213 43307.659213 

 Dipole components along the rotational axes: 
x,y,z [a.u.] :    -0.000000     0.000000     0.000000 
x,y,z [Debye]:    -0.000000     0.000000     0.000000 

 

Timings for individual modules:

Sum of individual times         ...      126.429 sec (=   2.107 min)
GTO integral calculation        ...        3.523 sec (=   0.059 min)   2.8 %
SCF iterations                  ...       95.870 sec (=   1.598 min)  75.8 %
SCF Gradient evaluation         ...       27.036 sec (=   0.451 min)  21.4 %
                             ****ORCA TERMINATED NORMALLY****
TOTAL RUN TIME: 0 days 0 hours 4 minutes 43 seconds 798 msec
