
                                 *****************
                                 * O   R   C   A *
                                 *****************

           --- An Ab Initio, DFT and Semiempirical electronic structure package ---

                  #######################################################
                  #                        -***-                        #
                  #          Department of theory and spectroscopy      #
                  #               Directorship: Frank Neese             #
                  #        Max Planck Institute fuer Kohlenforschung    #
                  #                Kaiser Wilhelm Platz 1               #
                  #                 D-45470 Muelheim/Ruhr               #
                  #                      Germany                        #
                  #                                                     #
                  #                  All rights reserved                #
                  #                        -***-                        #
                  #######################################################


                         Program Version 4.2.0 -  RELEASE  -


 With contributions from (in alphabetic order):
   Daniel Aravena         : Magnetic Suceptibility
   Michael Atanasov       : Ab Initio Ligand Field Theory (pilot matlab implementation)
   Alexander A. Auer      : GIAO ZORA, VPT2
   Ute Becker             : Parallelization
   Giovanni Bistoni       : ED, misc. LED, open-shell LED, HFLED
   Martin Brehm           : Molecular dynamics
   Dmytro Bykov           : SCF Hessian
   Vijay G. Chilkuri      : MRCI spin determinant printing, contributions to CSF-ICE
   Dipayan Datta          : RHF DLPNO-CCSD density
   Achintya Kumar Dutta   : EOM-CC, STEOM-CC
   Dmitry Ganyushin       : Spin-Orbit,Spin-Spin,Magnetic field MRCI
   Miquel Garcia          : C-PCM Hessian, Gaussian charge scheme
   Yang Guo               : DLPNO-NEVPT2, CIM, IAO-localization
   Andreas Hansen         : Spin unrestricted coupled pair/coupled cluster methods
   Benjamin Helmich-Paris : CASSCF linear response (MC-RPA)
   Lee Huntington         : MR-EOM, pCC
   Robert Izsak           : Overlap fitted RIJCOSX, COSX-SCS-MP3, EOM
   Christian Kollmar      : KDIIS, OOCD, Brueckner-CCSD(T), CCSD density
   Simone Kossmann        : Meta GGA functionals, TD-DFT gradient, OOMP2, MP2 Hessian
   Martin Krupicka        : AUTO-CI
   Lucas Lang             : DCDCAS
   Dagmar Lenk            : GEPOL surface, SMD
   Dimitrios Liakos       : Extrapolation schemes; Compound Job, initial MDCI parallelization
   Dimitrios Manganas     : Further ROCIS development; embedding schemes
   Dimitrios Pantazis     : SARC Basis sets
   Taras Petrenko         : DFT Hessian,TD-DFT gradient, ASA, ECA, R-Raman, ABS, FL, XAS/XES, NRVS
   Peter Pinski           : DLPNO-MP2, DLPNO-MP2 Gradient
   Christoph Reimann      : Effective Core Potentials
   Marius Retegan         : Local ZFS, SOC
   Christoph Riplinger    : Optimizer, TS searches, QM/MM, DLPNO-CCSD(T), (RO)-DLPNO pert. Triples
   Tobias Risthaus        : Range-separated hybrids, TD-DFT gradient, RPA, STAB
   Michael Roemelt        : Original ROCIS implementation
   Masaaki Saitow         : Open-shell DLPNO-CCSD energy and density
   Barbara Sandhoefer     : DKH picture change effects
   Avijit Sen             : IP-ROCIS
   Kantharuban Sivalingam : CASSCF convergence, NEVPT2, FIC-MRCI
   Bernardo de Souza      : ESD, SOC TD-DFT
   Georgi Stoychev        : AutoAux, RI-MP2 NMR
   Willem Van den Heuvel  : Paramagnetic NMR
   Boris Wezisla          : Elementary symmetry handling
   Frank Wennmohs         : Technical directorship


 We gratefully acknowledge several colleagues who have allowed us to
 interface, adapt or use parts of their codes:
   Stefan Grimme, W. Hujo, H. Kruse,             : VdW corrections, initial TS optimization,
                  C. Bannwarth                     DFT functionals, gCP, sTDA/sTD-DF
   Ed Valeev, F. Pavosevic, A. Kumar             : LibInt (2-el integral package), F12 methods
   Garnet Chan, S. Sharma, J. Yang, R. Olivares  : DMRG
   Ulf Ekstrom                                   : XCFun DFT Library
   Mihaly Kallay                                 : mrcc  (arbitrary order and MRCC methods)
   Andreas Klamt, Michael Diedenhofen            : otool_cosmo (COSMO solvation model)
   Jiri Pittner, Ondrej Demel                    : Mk-CCSD
   Frank Weinhold                                : gennbo (NPA and NBO analysis)
   Christopher J. Cramer and Donald G. Truhlar   : smd solvation model
   Lars Goerigk                                  : TD-DFT with DH, B97 family of functionals
   V. Asgeirsson, H. Jonsson                     : NEB implementation
   FAccTs GmbH                                   : IRC, NEB, NEB-TS, Multilevel, MM, QM/MM, CI optimization
   S Lehtola, MJT Oliveira, MAL Marques          : LibXC Library


 Your calculation uses the libint2 library for the computation of 2-el integrals
 For citations please refer to: http://libint.valeyev.net

 Your ORCA version has been built with support for libXC version: 4.2.3
 For citations please refer to: https://tddft.org/programs/libxc/

 This ORCA versions uses:
   CBLAS   interface :  Fast vector & matrix operations
   LAPACKE interface :  Fast linear algebra routines
   SCALAPACK package :  Parallel linear algebra routines


Your calculation utilizes the DFT-NL dispersion correction.
Cite in your paper:
Vydrov, O. A.; Van Voorhis, T. J. Chem. Phys. 2010, 133, 244103
Hujo, W.; Grimme, S. J. Chem. Theory Comput. 2011, 7, 3866 
   

----- Orbital basis set information -----
Your calculation utilizes the basis: def2-TZVPPD
   F. Weigend and R. Ahlrichs, Phys. Chem. Chem. Phys. 7, 3297 (2005).
   D. Rappoport and F. Furche, J. Chem. Phys. 133 134105 (2010).

----- AuxJK basis set information -----
Your calculation utilizes the auxiliary basis: def2/JK
   H-Ba, Hf-Rn: F. Weigend, J. Comput. Chem. 29, 167 (2008).

================================================================================
                                        WARNINGS
                       Please study these warnings very carefully!
================================================================================

INFO   : Found keyword 'NumGrad' for Energy calculation
  ===> : Setting RunTyp to EnGrad

WARNING: Numerical Gradient with sloppy Convergence Criteria    
         Your results may be not reliable!                      
         Please choose at least TightSCF!                       

WARNING: your system is open-shell and RHF/RKS was chosen
  ===> : WILL SWITCH to UHF/UKS


INFO   : the flag for use of LIBINT has been found!

================================================================================
                                       INPUT FILE
================================================================================
NAME = s.in
|  1> #
|  2> # s wB97X-V/Def2-TZVPPD
|  3> #
|  4> ! wb97x-v def2-tzvppd def2/jk grid4 nofinalgrid numgrad
|  5> 
|  6> *xyz 0 3
|  7> S          0.00000        0.00000        0.00000
|  8> *
|  9> 
| 10> %maxcore 5000
| 11> 
| 12> %pal
| 13> nprocs = 28
| 14> end
| 15> 
| 16> 
| 17>                          ****END OF INPUT****
================================================================================

                     *******************************
                     * Energy+Gradient Calculation *
                     *******************************

---------------------------------
CARTESIAN COORDINATES (ANGSTROEM)
---------------------------------
  S      0.000000    0.000000    0.000000

----------------------------
CARTESIAN COORDINATES (A.U.)
----------------------------
  NO LB      ZA    FRAG     MASS         X           Y           Z
   0 S    16.0000    0    32.060    0.000000    0.000000    0.000000

--------------------------------
INTERNAL COORDINATES (ANGSTROEM)
--------------------------------
 S      0   0   0     0.000000000000     0.00000000     0.00000000

---------------------------
INTERNAL COORDINATES (A.U.)
---------------------------
 S      0   0   0     0.000000000000     0.00000000     0.00000000

---------------------
BASIS SET INFORMATION
---------------------
There are 1 groups of distinct atoms

 Group   1 Type S   : 15s10p4d1f contracted to 6s6p4d1f pattern {732111/511111/1111/1}

Atom   0S    basis set group =>   1
----------------------------------
AUXILIARY/JK BASIS SET INFORMATION
----------------------------------
There are 1 groups of distinct atoms

 Group   1 Type S   : 16s12p10d4f1g contracted to 13s11p9d4f1g pattern {4111111111111/21111111111/211111111/1111/1}

Atom   0S    basis set group =>   1


           ************************************************************
           *        Program running with 28 parallel MPI-processes    *
           *              working on a common directory               *
           ************************************************************
------------------------------------------------------------------------------
                           ORCA GTO INTEGRAL CALCULATION
------------------------------------------------------------------------------

                         BASIS SET STATISTICS AND STARTUP INFO

 # of primitive gaussian shells          ...   30
 # of primitive gaussian functions       ...   72
 # of contracted shells                  ...   17
 # of contracted basis functions         ...   51
 Highest angular momentum                ...    3
 Maximum contraction depth               ...    7
 Integral package used                   ... LIBINT
 Integral threshhold            Thresh   ...  1.000e-10
 Primitive cut-off              TCut     ...  1.000e-11


------------------------------ INTEGRAL EVALUATION ----------------------------


 * One electron integrals 
 Pre-screening matrix                    ... done
 Shell pair data                         ... done (   0.000 sec)



           ************************************************************
           *        Program running with 28 parallel MPI-processes    *
           *              working on a common directory               *
           ************************************************************
-------------------------------------------------------------------------------
                                 ORCA SCF
-------------------------------------------------------------------------------

------------
SCF SETTINGS
------------
Hamiltonian:
 Density Functional     Method          .... DFT(GTOs)
 Exchange Functional    Exchange        .... WB97X-V
 Correlation Functional Correlation     .... WB97X-V
 Gradients option       PostSCFGGA      .... off
 Hybrid DFT is turned on
   Fraction HF Exchange ScalHFX         ....  0.167000
   Scaling of DF-GGA-X  ScalDFX         ....  0.000000
   Scaling of DF-GGA-C  ScalDFC         ....  1.000000
   Scaling of DF-LDA-C  ScalLDAC        ....  1.000000
   Perturbative correction              ....  0.000000
   Density functional embedding theory  .... OFF
 Long-range corrected/Screened/Range-Separated Hybrid DFT is turned on
   Amount of maximum screened exact exchange              ....  0.833000
   Range separation parameter mu (erf(mu*r12)/r12)        ....  0.300000
   NL short-range parameter             ....  6.000000
   NL long-range parameter              ....  0.010000


General Settings:
 Integral files         IntName         .... s.in
 Hartree-Fock type      HFTyp           .... UHF
 Total Charge           Charge          ....    0
 Multiplicity           Mult            ....    3
 Number of Electrons    NEL             ....   16
 Basis Dimension        Dim             ....   51
 Nuclear Repulsion      ENuc            ....      0.0000000000 Eh

Convergence Acceleration:
 DIIS                   CNVDIIS         .... on
   Start iteration      DIISMaxIt       ....    12
   Startup error        DIISStart       ....  0.200000
   # of expansion vecs  DIISMaxEq       ....     5
   Bias factor          DIISBfac        ....   1.050
   Max. coefficient     DIISMaxC        ....  10.000
 Newton-Raphson         CNVNR           .... off
 SOSCF                  CNVSOSCF        .... off
 Level Shifting         CNVShift        .... on
   Level shift para.    LevelShift      ....    0.2500
   Turn off err/grad.   ShiftErr        ....    0.0010
 Zerner damping         CNVZerner       .... off
 Static damping         CNVDamp         .... on
   Fraction old density DampFac         ....    0.7000
   Max. Damping (<1)    DampMax         ....    0.9800
   Min. Damping (>=0)   DampMin         ....    0.0000
   Turn off err/grad.   DampErr         ....    0.1000
 Fernandez-Rico         CNVRico         .... off

SCF Procedure:
 Maximum # iterations   MaxIter         ....   125
 SCF integral mode      SCFMode         .... Direct
   Integral package                     .... LIBINT
 Reset frequency        DirectResetFreq ....    20
 Integral Threshold     Thresh          ....  1.000e-10 Eh
 Primitive CutOff       TCut            ....  1.000e-11 Eh

Convergence Tolerance:
 Convergence Check Mode ConvCheckMode   .... Total+1el-Energy
 Convergence forced     ConvForced      .... 0
 Energy Change          TolE            ....  1.000e-06 Eh
 1-El. energy change                    ....  1.000e-03 Eh
 DIIS Error             TolErr          ....  1.000e-06


Diagonalization of the overlap matrix:
Smallest eigenvalue                        ... 3.254e-02
Time for diagonalization                   ...    0.001 sec
Threshold for overlap eigenvalues          ... 1.000e-08
Number of eigenvalues below threshold      ... 0
Time for construction of square roots      ...    0.160 sec
Total time needed                          ...    0.161 sec

-------------------
DFT GRID GENERATION
-------------------

General Integration Accuracy     IntAcc      ...  4.670
Radial Grid Type                 RadialGrid  ... Gauss-Chebyshev
Angular Grid (max. acc.)         AngularGrid ... Lebedev-302
Angular grid pruning method      GridPruning ... 3 (G Style)
Weight generation scheme         WeightScheme... Becke
Basis function cutoff            BFCut       ...    1.0000e-10
Integration weight cutoff        WCut        ...    1.0000e-14
Grids for H and He will be reduced by one unit

# of grid points (after initial pruning)     ...   6846 (   0.0 sec)
# of grid points (after weights+screening)   ...   6846 (   0.0 sec)
Grid point division into batches done        ...    0.0 sec
Reduced shell lists constructed in    0.0 sec

Total number of grid points                  ...     6846
Total number of batches                      ...      107
Average number of points per batch           ...       63
Average number of grid points per atom       ...     6846
Average number of shells per batch           ...     4.00 (23.53%)
Average number of basis functions per batch  ...    10.40 (20.39%)
Average number of large shells per batch     ...     3.20 (80.00%)
Average number of large basis fcns per batch ...     9.60 (92.31%)
Maximum spatial batch extension              ...  17.78, 17.78, 17.78 au
Average spatial batch extension              ...   0.55,  0.55,  0.63 au

Time for grid setup =    1.394 sec

------------------------------
INITIAL GUESS: MODEL POTENTIAL
------------------------------
Loading Hartree-Fock densities                     ... done
Calculating cut-offs                               ... done
Setting up the integral package                    ... done
Initializing the effective Hamiltonian             ... done
Starting the Coulomb interaction                   ... done (   0.0 sec)
Reading the grid                                   ... done
Mapping shells                                     ... done
Starting the XC term evaluation                    ... done (   0.0 sec)
  promolecular density results
     # of electrons  =     16.000000228
     EX              =    -18.480801485
     EC              =     -0.813910637
     EX+EC           =    -19.294712122
Transforming the Hamiltonian                       ... done (   0.0 sec)
Diagonalizing the Hamiltonian                      ... done (   0.0 sec)
Back transforming the eigenvectors                 ... done (   0.0 sec)
Now organizing SCF variables                       ... done
                      ------------------
                      INITIAL GUESS DONE (   1.5 sec)
                      ------------------
--------------
SCF ITERATIONS
--------------
ITER       Energy         Delta-E        Max-DP      RMS-DP      [F,P]     Damp
               ***  Starting incremental Fock matrix formation  ***
  0   -397.9954955201   0.000000000000 0.05123403  0.00171549  0.3226184 0.7000
  1   -398.0361710833  -0.040675563140 0.03651982  0.00134097  0.1868071 0.7000
                               ***Turning on DIIS***
  2   -398.0622540484  -0.026082965074 0.01986127  0.00086837  0.1045709 0.7000
  3   -398.0790904968  -0.016836448476 0.04909621  0.00178844  0.0579391 0.0000
  4   -398.1168837045  -0.037793207663 0.02187801  0.00056074  0.0096882 0.0000
  5   -398.1174018370  -0.000518132503 0.00771087  0.00022174  0.0033397 0.0000
  6   -398.1175135100  -0.000111672993 0.00155910  0.00006761  0.0015198 0.0000
  7   -398.1175316234  -0.000018113406 0.00116025  0.00004679  0.0006507 0.0000
  8   -398.1175355436  -0.000003920148 0.00006756  0.00000274  0.0000303 0.0000
                 **** Energy Check signals convergence ****

               *****************************************************
               *                     SUCCESS                       *
               *           SCF CONVERGED AFTER   9 CYCLES          *
               *****************************************************


Setting up the DFT-NL grid :

General Integration Accuracy     IntAcc      ...  4.340
Radial Grid Type                 RadialGrid  ... Gauss-Chebyshev
Angular Grid (max. acc.)         AngularGrid ... Lebedev-110
Angular grid pruning method      GridPruning ... 3 (G Style)
Weight generation scheme         WeightScheme... Becke
Basis function cutoff            BFCut       ...    1.0000e-10
Integration weight cutoff        WCut        ...    1.0000e-14
Grids for H and He will be reduced by one unit

# of grid points (after initial pruning)     ...   1806 (   0.0 sec)
# of grid points (after weights+screening)   ...   1806 (   0.0 sec)
Grid point division into batches done        ...    0.0 sec
Reduced shell lists constructed in    0.0 sec

Total number of grid points                  ...     1806
Total number of batches                      ...       29
Average number of points per batch           ...       62
Average number of grid points per atom       ...     1806
Average number of shells per batch           ...     7.33 (43.14%)
Average number of basis functions per batch  ...    24.67 (48.37%)
Average number of large shells per batch     ...     6.00 (81.82%)
Average number of large basis fcns per batch ...    19.33 (78.38%)
Maximum spatial batch extension              ...  16.21, 29.83, 29.83 au
Average spatial batch extension              ...   1.12,  2.06,  2.06 au

Final grid set up in    2.0 sec

-------------------------------------------------------------------------------
                         DFT-NL dispersion correction                          
-------------------------------------------------------------------------------

SC Energy -398.117535571 
NL    Energy 0.068699254 
SC+NL Energy -398.048836317 
NL done in    3.0 sec
-------------------------------------------------------------------------------

----------------
TOTAL SCF ENERGY
----------------

Total Energy       :         -398.04883632 Eh          -10831.45950 eV

Components:
Nuclear Repulsion  :            0.00000000 Eh               0.00000 eV
Electronic Energy  :         -398.04883632 Eh          -10831.45950 eV
One Electron Energy:         -549.46578372 Eh          -14951.72411 eV
Two Electron Energy:          151.41694741 Eh            4120.26461 eV

Virial components:
Potential Energy   :         -795.43901477 Eh          -21644.99600 eV
Kinetic Energy     :          397.39017845 Eh           10813.53651 eV
Virial Ratio       :            2.00165746


DFT components:
N(Alpha)           :        9.000000116229 electrons
N(Beta)            :        7.000000115265 electrons
N(Total)           :       16.000000231494 electrons
E(X)               :      -18.525304534783 Eh       
E(C)               :       -0.793566871703 Eh       
NL Energy, E(C,NL) :        0.068699253551 Eh       
E(XC)              :      -19.250172152935 Eh       
DFET-embed. en.    :        0.000000000000 Eh       

---------------
SCF CONVERGENCE
---------------

  Last Energy change         ...   -2.6999e-08  Tolerance :   1.0000e-06
  Last MAX-Density change    ...    2.6678e-05  Tolerance :   1.0000e-05
  Last RMS-Density change    ...    9.4551e-07  Tolerance :   1.0000e-06
  Last DIIS Error            ...    7.9255e-06  Tolerance :   1.0000e-06

             **** THE GBW FILE WAS UPDATED (s.in.gbw) ****
             **** DENSITY FILE WAS UPDATED (s.in.scfp) ****
             **** ENERGY FILE WAS UPDATED (s.in.en.tmp) ****
----------------------
UHF SPIN CONTAMINATION
----------------------

Warning: in a DFT calculation there is little theoretical justification to 
         calculate <S**2> as in Hartree-Fock theory. We will do it anyways
         but you should keep in mind that the values have only limited relevance

Expectation value of <S**2>     :     2.003819
Ideal value S*(S+1) for S=1.0   :     2.000000
Deviation                       :     0.003819

             **** THE GBW FILE WAS UPDATED (s.in.gbw) ****
             **** DENSITY FILE WAS UPDATED (s.in.scfp) ****
----------------
ORBITAL ENERGIES
----------------
                 SPIN UP ORBITALS
  NO   OCC          E(Eh)            E(eV) 
   0   1.0000     -88.923089     -2419.7203 
   1   1.0000      -8.096706      -220.3226 
   2   1.0000      -6.058111      -164.8496 
   3   1.0000      -6.058111      -164.8496 
   4   1.0000      -6.039436      -164.3414 
   5   1.0000      -0.854623       -23.2555 
   6   1.0000      -0.439367       -11.9558 
   7   1.0000      -0.439367       -11.9558 
   8   1.0000      -0.393290       -10.7020 
   9   0.0000       0.076973         2.0945 
  10   0.0000       0.076973         2.0945 
  11   0.0000       0.083710         2.2779 
  12   0.0000       0.094308         2.5663 
  13   0.0000       0.193657         5.2697 
  14   0.0000       0.193657         5.2697 
  15   0.0000       0.204505         5.5649 
  16   0.0000       0.204505         5.5649 
  17   0.0000       0.207997         5.6599 
  18   0.0000       0.439981        11.9725 
  19   0.0000       0.439981        11.9725 
  20   0.0000       0.459391        12.5007 
  21   0.0000       0.520003        14.1500 
  22   0.0000       0.520003        14.1500 
  23   0.0000       0.546201        14.8629 
  24   0.0000       0.546201        14.8629 
  25   0.0000       0.555963        15.1285 
  26   0.0000       0.710879        19.3440 
  27   0.0000       1.621103        44.1125 
  28   0.0000       1.621103        44.1125 
  29   0.0000       1.646769        44.8109 
  30   0.0000       1.646769        44.8109 
  31   0.0000       1.656207        45.0677 
  32   0.0000       1.685449        45.8634 
  33   0.0000       1.685449        45.8634 
  34   0.0000       1.712012        46.5862 
  35   0.0000       1.712012        46.5862 
  36   0.0000       1.728341        47.0305 
  37   0.0000       1.728341        47.0305 
  38   0.0000       1.733931        47.1827 
  39   0.0000       1.921320        52.2818 
  40   0.0000       1.921320        52.2818 
  41   0.0000       1.957706        53.2719 
  42   0.0000       6.783841       184.5977 
  43   0.0000       6.783841       184.5977 
  44   0.0000       6.804196       185.1516 
  45   0.0000       6.804196       185.1516 
  46   0.0000       6.811037       185.3377 
  47   0.0000       8.909726       242.4460 
  48   0.0000       8.909726       242.4460 
  49   0.0000       8.938851       243.2385 
  50   0.0000      18.003014       489.8869 

                 SPIN DOWN ORBITALS
  NO   OCC          E(Eh)            E(eV) 
   0   1.0000     -88.912286     -2419.4263 
   1   1.0000      -8.087540      -220.0732 
   2   1.0000      -6.037804      -164.2970 
   3   1.0000      -6.037804      -164.2970 
   4   1.0000      -6.032640      -164.1565 
   5   1.0000      -0.748964       -20.3804 
   6   1.0000      -0.366113        -9.9625 
   7   0.0000      -0.087462        -2.3800 
   8   0.0000      -0.087462        -2.3800 
   9   0.0000       0.085505         2.3267 
  10   0.0000       0.089261         2.4289 
  11   0.0000       0.089264         2.4290 
  12   0.0000       0.103857         2.8261 
  13   0.0000       0.215242         5.8570 
  14   0.0000       0.215243         5.8571 
  15   0.0000       0.216861         5.9011 
  16   0.0000       0.217892         5.9291 
  17   0.0000       0.217898         5.9293 
  18   0.0000       0.466770        12.7014 
  19   0.0000       0.468631        12.7521 
  20   0.0000       0.468632        12.7521 
  21   0.0000       0.586019        15.9464 
  22   0.0000       0.586438        15.9578 
  23   0.0000       0.586438        15.9578 
  24   0.0000       0.590297        16.0628 
  25   0.0000       0.590300        16.0629 
  26   0.0000       0.738344        20.0914 
  27   0.0000       1.670228        45.4492 
  28   0.0000       1.670229        45.4492 
  29   0.0000       1.675702        45.5982 
  30   0.0000       1.675703        45.5982 
  31   0.0000       1.678405        45.6717 
  32   0.0000       1.762113        47.9495 
  33   0.0000       1.762113        47.9495 
  34   0.0000       1.766384        48.0657 
  35   0.0000       1.766384        48.0658 
  36   0.0000       1.767046        48.0838 
  37   0.0000       1.767046        48.0838 
  38   0.0000       1.769989        48.1638 
  39   0.0000       1.972766        53.6817 
  40   0.0000       1.972766        53.6817 
  41   0.0000       1.975613        53.7592 
  42   0.0000       6.802673       185.1101 
  43   0.0000       6.802673       185.1102 
  44   0.0000       6.814413       185.4296 
  45   0.0000       6.814413       185.4296 
  46   0.0000       6.819329       185.5634 
  47   0.0000       8.940637       243.2871 
  48   0.0000       8.940637       243.2871 
  49   0.0000       8.949210       243.5204 
  50   0.0000      18.019298       490.3300 

                    ********************************
                    * MULLIKEN POPULATION ANALYSIS *
                    ********************************

--------------------------------------------
MULLIKEN ATOMIC CHARGES AND SPIN POPULATIONS
--------------------------------------------
   0 S :   -0.000000    2.000000
Sum of atomic charges         :   -0.0000000
Sum of atomic spin populations:    2.0000000

-----------------------------------------------------
MULLIKEN REDUCED ORBITAL CHARGES AND SPIN POPULATIONS
-----------------------------------------------------
CHARGE
  0 S s       :     5.998539  s :     5.998539
      pz      :     3.179662  p :     9.999424
      px      :     3.001019
      py      :     3.818744
      dz2     :     0.000077  d :     0.001461
      dxz     :     0.000001
      dyz     :     0.000645
      dx2y2   :     0.000733
      dxy     :     0.000004
      f0      :     0.000051  f :     0.000576
      f+1     :     0.000000
      f-1     :     0.000126
      f+2     :     0.000132
      f-2     :     0.000060
      f+3     :     0.000102
      f-3     :     0.000105

SPIN
  0 S s       :    -0.000725  s :    -0.000725
      pz      :     0.819982  p :     1.999425
      px      :     0.998658
      py      :     0.180786
      dz2     :     0.000038  d :     0.000725
      dxz     :     0.000000
      dyz     :     0.000320
      dx2y2   :     0.000364
      dxy     :     0.000002
      f0      :     0.000050  f :     0.000575
      f+1     :     0.000000
      f-1     :     0.000126
      f+2     :     0.000131
      f-2     :     0.000060
      f+3     :     0.000102
      f-3     :     0.000105


                     *******************************
                     * LOEWDIN POPULATION ANALYSIS *
                     *******************************

-------------------------------------------
LOEWDIN ATOMIC CHARGES AND SPIN POPULATIONS
-------------------------------------------
   0 S :   -0.000000    2.000000

----------------------------------------------------
LOEWDIN REDUCED ORBITAL CHARGES AND SPIN POPULATIONS
----------------------------------------------------
CHARGE
  0 S s       :     5.998539  s :     5.998539
      pz      :     3.179662  p :     9.999424
      px      :     3.001019
      py      :     3.818744
      dz2     :     0.000077  d :     0.001461
      dxz     :     0.000001
      dyz     :     0.000645
      dx2y2   :     0.000733
      dxy     :     0.000004
      f0      :     0.000051  f :     0.000576
      f+1     :     0.000000
      f-1     :     0.000126
      f+2     :     0.000132
      f-2     :     0.000060
      f+3     :     0.000102
      f-3     :     0.000105

SPIN
  0 S s       :    -0.000725  s :    -0.000725
      pz      :     0.819982  p :     1.999425
      px      :     0.998658
      py      :     0.180786
      dz2     :     0.000038  d :     0.000725
      dxz     :     0.000000
      dyz     :     0.000320
      dx2y2   :     0.000364
      dxy     :     0.000002
      f0      :     0.000050  f :     0.000575
      f+1     :     0.000000
      f-1     :     0.000126
      f+2     :     0.000131
      f-2     :     0.000060
      f+3     :     0.000102
      f-3     :     0.000105


                      *****************************
                      * MAYER POPULATION ANALYSIS *
                      *****************************

  NA   - Mulliken gross atomic population
  ZA   - Total nuclear charge
  QA   - Mulliken gross atomic charge
  VA   - Mayer's total valence
  BVA  - Mayer's bonded valence
  FA   - Mayer's free valence

  ATOM       NA         ZA         QA         VA         BVA        FA
  0 S     16.0000    16.0000     0.0000     2.0076     0.0000     2.0076

  Mayer bond orders larger than 0.100000


-------
TIMINGS
-------

Total SCF time: 0 days 0 hours 1 min 28 sec 

Total time                  ....      88.290 sec
Sum of individual times     ....      83.237 sec  ( 94.3%)

Fock matrix formation       ....      78.386 sec  ( 88.8%)
  XC integration            ....      79.008 sec  (100.8% of F)
    Basis function eval.    ....       0.003 sec  (  0.0% of XC)
    Density eval.           ....       0.007 sec  (  0.0% of XC)
    XC-Functional eval.     ....       0.012 sec  (  0.0% of XC)
    XC-Potential eval.      ....       0.004 sec  (  0.0% of XC)
Diagonalization             ....       0.723 sec  (  0.8%)
Density matrix formation    ....       0.003 sec  (  0.0%)
Population analysis         ....       0.501 sec  (  0.6%)
Initial guess               ....       0.149 sec  (  0.2%)
Orbital Transformation      ....       0.000 sec  (  0.0%)
Orbital Orthonormalization  ....       0.000 sec  (  0.0%)
DIIS solution               ....       0.059 sec  (  0.1%)
Grid generation             ....       3.415 sec  (  3.9%)

-------------------------   --------------------
FINAL SINGLE POINT ENERGY      -398.048836317000
-------------------------   --------------------


----------------------------------------------------------------------------
                           ORCA NUMERICAL GRADIENT
                              (28-process run)
----------------------------------------------------------------------------

I state                        ... 1
J state                        ... 0
Number of atoms                ... 1
Derivative's order of accuracy ... 2
Central differences            ... used
Number of displacements        ... 6
Numerical increment            ... 5.000e-03 bohr
Translation invariance         ... used

The output will be reduced. Please look at the following files:
SCF program output             ... >s.in.lastscf
Integral program output        ... >s.in.lastint
Gradient program output        ... >s.in.lastgrad


     Note:   There are more processes than displacements to do
     ===>:   Reducing number of processes to   0


------------------------------
CARTESIAN GRADIENT (NUMERICAL)
-------------------------------
   1   S   :    0.000000000    0.000000000    0.000000000

Norm of the cartesian gradient     ...    0.000000000
RMS gradient                       ...    0.000000000
MAX gradient                       ...    0.000000000
*** glibc detected *** /mnt/storage/software/apps/orca-4.2.0/orca_4_2_0_linux_x86-64_openmpi314/orca: free(): invalid next size (fast): 0x000000000cdc35d0 ***
======= Backtrace: =========
[0xb0928aa]
[0xb09567c]
[0x76d903]
[0x76fb95]
[0x915b4f]
[0x918f24]
[0x487649]
[0xb05c99e]
[0x4870d9]
======= Memory map: ========
00400000-0bf42000 r-xp 00000000 00:2b 4876154                            /mnt/storage/software/apps/orca-4.2.0/orca_4_2_0_linux_x86-64_openmpi314/orca
0c141000-0c203000 rw-p 0bb41000 00:2b 4876154                            /mnt/storage/software/apps/orca-4.2.0/orca_4_2_0_linux_x86-64_openmpi314/orca
0c203000-0c77a000 rw-p 00000000 00:00 0 
0cc1c000-0ce88000 rw-p 00000000 00:00 0                                  [heap]
2b24a2015000-2b24a2816000 rw-p 00000000 00:00 0 
2b24a3015000-2b24a56d8000 rw-p 00000000 00:00 0 
2b24a8000000-2b24a80b3000 rw-p 00000000 00:00 0 
2b24a80b3000-2b24ac000000 ---p 00000000 00:00 0 
7ffdc723d000-7ffdc733f000 rw-p 00000000 00:00 0                          [stack]
7ffdc7366000-7ffdc7368000 r-xp 00000000 00:00 0                          [vdso]
ffffffffff600000-ffffffffff601000 r-xp 00000000 00:00 0                  [vsyscall]
