
                                 *****************
                                 * O   R   C   A *
                                 *****************

           --- An Ab Initio, DFT and Semiempirical electronic structure package ---

                  #######################################################
                  #                        -***-                        #
                  #          Department of theory and spectroscopy      #
                  #               Directorship: Frank Neese             #
                  #        Max Planck Institute fuer Kohlenforschung    #
                  #                Kaiser Wilhelm Platz 1               #
                  #                 D-45470 Muelheim/Ruhr               #
                  #                      Germany                        #
                  #                                                     #
                  #                  All rights reserved                #
                  #                        -***-                        #
                  #######################################################


                         Program Version 4.2.0 -  RELEASE  -


 With contributions from (in alphabetic order):
   Daniel Aravena         : Magnetic Suceptibility
   Michael Atanasov       : Ab Initio Ligand Field Theory (pilot matlab implementation)
   Alexander A. Auer      : GIAO ZORA, VPT2
   Ute Becker             : Parallelization
   Giovanni Bistoni       : ED, misc. LED, open-shell LED, HFLED
   Martin Brehm           : Molecular dynamics
   Dmytro Bykov           : SCF Hessian
   Vijay G. Chilkuri      : MRCI spin determinant printing, contributions to CSF-ICE
   Dipayan Datta          : RHF DLPNO-CCSD density
   Achintya Kumar Dutta   : EOM-CC, STEOM-CC
   Dmitry Ganyushin       : Spin-Orbit,Spin-Spin,Magnetic field MRCI
   Miquel Garcia          : C-PCM Hessian, Gaussian charge scheme
   Yang Guo               : DLPNO-NEVPT2, CIM, IAO-localization
   Andreas Hansen         : Spin unrestricted coupled pair/coupled cluster methods
   Benjamin Helmich-Paris : CASSCF linear response (MC-RPA)
   Lee Huntington         : MR-EOM, pCC
   Robert Izsak           : Overlap fitted RIJCOSX, COSX-SCS-MP3, EOM
   Christian Kollmar      : KDIIS, OOCD, Brueckner-CCSD(T), CCSD density
   Simone Kossmann        : Meta GGA functionals, TD-DFT gradient, OOMP2, MP2 Hessian
   Martin Krupicka        : AUTO-CI
   Lucas Lang             : DCDCAS
   Dagmar Lenk            : GEPOL surface, SMD
   Dimitrios Liakos       : Extrapolation schemes; Compound Job, initial MDCI parallelization
   Dimitrios Manganas     : Further ROCIS development; embedding schemes
   Dimitrios Pantazis     : SARC Basis sets
   Taras Petrenko         : DFT Hessian,TD-DFT gradient, ASA, ECA, R-Raman, ABS, FL, XAS/XES, NRVS
   Peter Pinski           : DLPNO-MP2, DLPNO-MP2 Gradient
   Christoph Reimann      : Effective Core Potentials
   Marius Retegan         : Local ZFS, SOC
   Christoph Riplinger    : Optimizer, TS searches, QM/MM, DLPNO-CCSD(T), (RO)-DLPNO pert. Triples
   Tobias Risthaus        : Range-separated hybrids, TD-DFT gradient, RPA, STAB
   Michael Roemelt        : Original ROCIS implementation
   Masaaki Saitow         : Open-shell DLPNO-CCSD energy and density
   Barbara Sandhoefer     : DKH picture change effects
   Avijit Sen             : IP-ROCIS
   Kantharuban Sivalingam : CASSCF convergence, NEVPT2, FIC-MRCI
   Bernardo de Souza      : ESD, SOC TD-DFT
   Georgi Stoychev        : AutoAux, RI-MP2 NMR
   Willem Van den Heuvel  : Paramagnetic NMR
   Boris Wezisla          : Elementary symmetry handling
   Frank Wennmohs         : Technical directorship


 We gratefully acknowledge several colleagues who have allowed us to
 interface, adapt or use parts of their codes:
   Stefan Grimme, W. Hujo, H. Kruse,             : VdW corrections, initial TS optimization,
                  C. Bannwarth                     DFT functionals, gCP, sTDA/sTD-DF
   Ed Valeev, F. Pavosevic, A. Kumar             : LibInt (2-el integral package), F12 methods
   Garnet Chan, S. Sharma, J. Yang, R. Olivares  : DMRG
   Ulf Ekstrom                                   : XCFun DFT Library
   Mihaly Kallay                                 : mrcc  (arbitrary order and MRCC methods)
   Andreas Klamt, Michael Diedenhofen            : otool_cosmo (COSMO solvation model)
   Jiri Pittner, Ondrej Demel                    : Mk-CCSD
   Frank Weinhold                                : gennbo (NPA and NBO analysis)
   Christopher J. Cramer and Donald G. Truhlar   : smd solvation model
   Lars Goerigk                                  : TD-DFT with DH, B97 family of functionals
   V. Asgeirsson, H. Jonsson                     : NEB implementation
   FAccTs GmbH                                   : IRC, NEB, NEB-TS, Multilevel, MM, QM/MM, CI optimization
   S Lehtola, MJT Oliveira, MAL Marques          : LibXC Library


 Your calculation uses the libint2 library for the computation of 2-el integrals
 For citations please refer to: http://libint.valeyev.net

 Your ORCA version has been built with support for libXC version: 4.2.3
 For citations please refer to: https://tddft.org/programs/libxc/

 This ORCA versions uses:
   CBLAS   interface :  Fast vector & matrix operations
   LAPACKE interface :  Fast linear algebra routines
   SCALAPACK package :  Parallel linear algebra routines


Your calculation utilizes the DFT-NL dispersion correction.
Cite in your paper:
Vydrov, O. A.; Van Voorhis, T. J. Chem. Phys. 2010, 133, 244103
Hujo, W.; Grimme, S. J. Chem. Theory Comput. 2011, 7, 3866 
   

----- Orbital basis set information -----
Your calculation utilizes the basis: def2-TZVPPD
   F. Weigend and R. Ahlrichs, Phys. Chem. Chem. Phys. 7, 3297 (2005).
   D. Rappoport and F. Furche, J. Chem. Phys. 133 134105 (2010).

----- AuxJK basis set information -----
Your calculation utilizes the auxiliary basis: def2/JK
   H-Ba, Hf-Rn: F. Weigend, J. Comput. Chem. 29, 167 (2008).

================================================================================
                                        WARNINGS
                       Please study these warnings very carefully!
================================================================================

INFO   : Found keyword 'NumGrad' for Energy calculation
  ===> : Setting RunTyp to EnGrad

WARNING: Numerical Gradient with sloppy Convergence Criteria    
         Your results may be not reliable!                      
         Please choose at least TightSCF!                       

WARNING: your system is open-shell and RHF/RKS was chosen
  ===> : WILL SWITCH to UHF/UKS


INFO   : the flag for use of LIBINT has been found!

================================================================================
                                       INPUT FILE
================================================================================
NAME = s2.in
|  1> #
|  2> # s2 wB97X-V/Def2-TZVPPD
|  3> #
|  4> ! wb97x-v def2-tzvppd def2/jk grid4 nofinalgrid numgrad
|  5> 
|  6> *xyz 0 3
|  7> S          0.00000        0.00000        0.96175
|  8> S          0.00000        0.00000       -0.96175
|  9> *
| 10> 
| 11> %maxcore 5000
| 12> 
| 13> %pal
| 14> nprocs = 28
| 15> end
| 16> 
| 17> 
| 18>                          ****END OF INPUT****
================================================================================

                     *******************************
                     * Energy+Gradient Calculation *
                     *******************************

---------------------------------
CARTESIAN COORDINATES (ANGSTROEM)
---------------------------------
  S      0.000000    0.000000    0.961750
  S      0.000000    0.000000   -0.961750

----------------------------
CARTESIAN COORDINATES (A.U.)
----------------------------
  NO LB      ZA    FRAG     MASS         X           Y           Z
   0 S    16.0000    0    32.060    0.000000    0.000000    1.817444
   1 S    16.0000    0    32.060    0.000000    0.000000   -1.817444

--------------------------------
INTERNAL COORDINATES (ANGSTROEM)
--------------------------------
 S      0   0   0     0.000000000000     0.00000000     0.00000000
 S      1   0   0     1.923500000000     0.00000000     0.00000000

---------------------------
INTERNAL COORDINATES (A.U.)
---------------------------
 S      0   0   0     0.000000000000     0.00000000     0.00000000
 S      1   0   0     3.634888218598     0.00000000     0.00000000

---------------------
BASIS SET INFORMATION
---------------------
There are 1 groups of distinct atoms

 Group   1 Type S   : 15s10p4d1f contracted to 6s6p4d1f pattern {732111/511111/1111/1}

Atom   0S    basis set group =>   1
Atom   1S    basis set group =>   1
----------------------------------
AUXILIARY/JK BASIS SET INFORMATION
----------------------------------
There are 1 groups of distinct atoms

 Group   1 Type S   : 16s12p10d4f1g contracted to 13s11p9d4f1g pattern {4111111111111/21111111111/211111111/1111/1}

Atom   0S    basis set group =>   1
Atom   1S    basis set group =>   1


           ************************************************************
           *        Program running with 28 parallel MPI-processes    *
           *              working on a common directory               *
           ************************************************************
------------------------------------------------------------------------------
                           ORCA GTO INTEGRAL CALCULATION
------------------------------------------------------------------------------

                         BASIS SET STATISTICS AND STARTUP INFO

 # of primitive gaussian shells          ...   60
 # of primitive gaussian functions       ...  144
 # of contracted shells                  ...   34
 # of contracted basis functions         ...  102
 Highest angular momentum                ...    3
 Maximum contraction depth               ...    7
 Integral package used                   ... LIBINT
 Integral threshhold            Thresh   ...  1.000e-10
 Primitive cut-off              TCut     ...  1.000e-11


------------------------------ INTEGRAL EVALUATION ----------------------------


 * One electron integrals 
 Pre-screening matrix                    ... done
 Shell pair data                         ... done (   0.000 sec)



           ************************************************************
           *        Program running with 28 parallel MPI-processes    *
           *              working on a common directory               *
           ************************************************************
-------------------------------------------------------------------------------
                                 ORCA SCF
-------------------------------------------------------------------------------

------------
SCF SETTINGS
------------
Hamiltonian:
 Density Functional     Method          .... DFT(GTOs)
 Exchange Functional    Exchange        .... WB97X-V
 Correlation Functional Correlation     .... WB97X-V
 Gradients option       PostSCFGGA      .... off
 Hybrid DFT is turned on
   Fraction HF Exchange ScalHFX         ....  0.167000
   Scaling of DF-GGA-X  ScalDFX         ....  0.000000
   Scaling of DF-GGA-C  ScalDFC         ....  1.000000
   Scaling of DF-LDA-C  ScalLDAC        ....  1.000000
   Perturbative correction              ....  0.000000
   Density functional embedding theory  .... OFF
 Long-range corrected/Screened/Range-Separated Hybrid DFT is turned on
   Amount of maximum screened exact exchange              ....  0.833000
   Range separation parameter mu (erf(mu*r12)/r12)        ....  0.300000
   NL short-range parameter             ....  6.000000
   NL long-range parameter              ....  0.010000


General Settings:
 Integral files         IntName         .... s2
 Hartree-Fock type      HFTyp           .... UHF
 Total Charge           Charge          ....    0
 Multiplicity           Mult            ....    3
 Number of Electrons    NEL             ....   32
 Basis Dimension        Dim             ....  102
 Nuclear Repulsion      ENuc            ....     70.4285756822 Eh

Convergence Acceleration:
 DIIS                   CNVDIIS         .... on
   Start iteration      DIISMaxIt       ....    12
   Startup error        DIISStart       ....  0.200000
   # of expansion vecs  DIISMaxEq       ....     5
   Bias factor          DIISBfac        ....   1.050
   Max. coefficient     DIISMaxC        ....  10.000
 Newton-Raphson         CNVNR           .... off
 SOSCF                  CNVSOSCF        .... off
 Level Shifting         CNVShift        .... on
   Level shift para.    LevelShift      ....    0.2500
   Turn off err/grad.   ShiftErr        ....    0.0010
 Zerner damping         CNVZerner       .... off
 Static damping         CNVDamp         .... on
   Fraction old density DampFac         ....    0.7000
   Max. Damping (<1)    DampMax         ....    0.9800
   Min. Damping (>=0)   DampMin         ....    0.0000
   Turn off err/grad.   DampErr         ....    0.1000
 Fernandez-Rico         CNVRico         .... off

SCF Procedure:
 Maximum # iterations   MaxIter         ....   125
 SCF integral mode      SCFMode         .... Direct
   Integral package                     .... LIBINT
 Reset frequency        DirectResetFreq ....    20
 Integral Threshold     Thresh          ....  1.000e-10 Eh
 Primitive CutOff       TCut            ....  1.000e-11 Eh

Convergence Tolerance:
 Convergence Check Mode ConvCheckMode   .... Total+1el-Energy
 Convergence forced     ConvForced      .... 0
 Energy Change          TolE            ....  1.000e-06 Eh
 1-El. energy change                    ....  1.000e-03 Eh
 DIIS Error             TolErr          ....  1.000e-06


Diagonalization of the overlap matrix:
Smallest eigenvalue                        ... 7.821e-04
Time for diagonalization                   ...    0.002 sec
Threshold for overlap eigenvalues          ... 1.000e-08
Number of eigenvalues below threshold      ... 0
Time for construction of square roots      ...    0.005 sec
Total time needed                          ...    0.007 sec

-------------------
DFT GRID GENERATION
-------------------

General Integration Accuracy     IntAcc      ...  4.670
Radial Grid Type                 RadialGrid  ... Gauss-Chebyshev
Angular Grid (max. acc.)         AngularGrid ... Lebedev-302
Angular grid pruning method      GridPruning ... 3 (G Style)
Weight generation scheme         WeightScheme... Becke
Basis function cutoff            BFCut       ...    1.0000e-10
Integration weight cutoff        WCut        ...    1.0000e-14
Grids for H and He will be reduced by one unit

# of grid points (after initial pruning)     ...  13692 (   0.0 sec)
# of grid points (after weights+screening)   ...  13666 (   0.0 sec)
nearest neighbour list constructed           ...    0.0 sec
Grid point re-assignment to atoms done       ...    0.0 sec
Grid point division into batches done        ...    0.1 sec
Reduced shell lists constructed in    0.1 sec

Total number of grid points                  ...    13666
Total number of batches                      ...      214
Average number of points per batch           ...       63
Average number of grid points per atom       ...     6833
Average number of shells per batch           ...     8.11 (23.86%)
Average number of basis functions per batch  ...    21.67 (21.24%)
Average number of large shells per batch     ...     6.33 (78.08%)
Average number of large basis fcns per batch ...    19.00 (87.69%)
Maximum spatial batch extension              ...  19.50, 19.55, 13.50 au
Average spatial batch extension              ...   0.59,  0.57,  0.41 au

Time for grid setup =    0.275 sec

------------------------------
INITIAL GUESS: MODEL POTENTIAL
------------------------------
Loading Hartree-Fock densities                     ... done
Calculating cut-offs                               ... done
Setting up the integral package                    ... done
Initializing the effective Hamiltonian             ... done
Starting the Coulomb interaction                   ... done (   0.0 sec)
Reading the grid                                   ... done
Mapping shells                                     ... done
Starting the XC term evaluation                    ... done (   0.0 sec)
  promolecular density results
     # of electrons  =     32.000015260
     EX              =    -37.059825790
     EC              =     -1.655163611
     EX+EC           =    -38.714989402
Transforming the Hamiltonian                       ... done (   0.1 sec)
Diagonalizing the Hamiltonian                      ... done (   0.0 sec)
Back transforming the eigenvectors                 ... done (   0.0 sec)
Now organizing SCF variables                       ... done
                      ------------------
                      INITIAL GUESS DONE (   0.9 sec)
                      ------------------
--------------
SCF ITERATIONS
--------------
ITER       Energy         Delta-E        Max-DP      RMS-DP      [F,P]     Damp
               ***  Starting incremental Fock matrix formation  ***
  0   -796.2495901470   0.000000000000 0.04132967  0.00121593  0.3110907 0.7000
  1   -796.2999954551  -0.050405308051 0.02918883  0.00095926  0.1836648 0.7000
                               ***Turning on DIIS***
  2   -796.3314681865  -0.031472731454 0.01576838  0.00065626  0.1047578 0.7000
  3   -796.3516994890  -0.020231302473 0.04067727  0.00149164  0.0592805 0.0000
  4   -796.3974435603  -0.045744071281 0.01406774  0.00031766  0.0067532 0.0000
  5   -796.3981012580  -0.000657697709 0.00521186  0.00015792  0.0018094 0.0000
  6   -796.3982805127  -0.000179254723 0.00422472  0.00011209  0.0008229 0.0000
  7   -796.3983287163  -0.000048203603 0.00099825  0.00002762  0.0002343 0.0000
  8   -796.3983316889  -0.000002972590 0.00008030  0.00000273  0.0000359 0.0000
                 **** Energy Check signals convergence ****

               *****************************************************
               *                     SUCCESS                       *
               *           SCF CONVERGED AFTER   9 CYCLES          *
               *****************************************************


Setting up the DFT-NL grid :

General Integration Accuracy     IntAcc      ...  4.340
Radial Grid Type                 RadialGrid  ... Gauss-Chebyshev
Angular Grid (max. acc.)         AngularGrid ... Lebedev-110
Angular grid pruning method      GridPruning ... 3 (G Style)
Weight generation scheme         WeightScheme... Becke
Basis function cutoff            BFCut       ...    1.0000e-10
Integration weight cutoff        WCut        ...    1.0000e-14
Grids for H and He will be reduced by one unit

# of grid points (after initial pruning)     ...   3612 (   0.0 sec)
# of grid points (after weights+screening)   ...   3588 (   0.0 sec)
nearest neighbour list constructed           ...    0.0 sec
Grid point re-assignment to atoms done       ...    0.0 sec
Grid point division into batches done        ...    0.0 sec
Reduced shell lists constructed in    0.0 sec

Total number of grid points                  ...     3588
Total number of batches                      ...       58
Average number of points per batch           ...       61
Average number of grid points per atom       ...     1794
Average number of shells per batch           ...    14.50 (42.65%)
Average number of basis functions per batch  ...    48.00 (47.06%)
Average number of large shells per batch     ...    11.00 (75.86%)
Average number of large basis fcns per batch ...    33.50 (69.79%)
Maximum spatial batch extension              ...  29.83, 22.78, 16.64 au
Average spatial batch extension              ...   1.05,  1.06,  0.74 au

Final grid set up in    2.5 sec

-------------------------------------------------------------------------------
                         DFT-NL dispersion correction                          
-------------------------------------------------------------------------------

SC Energy -796.398331756 
NL    Energy 0.133688353 
SC+NL Energy -796.264643403 
NL done in    1.2 sec
-------------------------------------------------------------------------------

----------------
TOTAL SCF ENERGY
----------------

Total Energy       :         -796.26464340 Eh          -21667.46250 eV

Components:
Nuclear Repulsion  :           70.42857568 Eh            1916.45898 eV
Electronic Energy  :         -866.69321909 Eh          -23583.92147 eV
One Electron Energy:        -1239.61124486 Eh          -33731.53685 eV
Two Electron Energy:          372.91802578 Eh           10147.61538 eV

Virial components:
Potential Energy   :        -1591.09847729 Eh          -43295.99069 eV
Kinetic Energy     :          794.83383388 Eh           21628.52819 eV
Virial Ratio       :            2.00180014


DFT components:
N(Alpha)           :       17.000005251088 electrons
N(Beta)            :       15.000005250287 electrons
N(Total)           :       32.000010501375 electrons
E(X)               :      -37.083593926818 Eh       
E(C)               :       -1.646538261115 Eh       
NL Energy, E(C,NL) :        0.133688353260 Eh       
E(XC)              :      -38.596443834673 Eh       
DFET-embed. en.    :        0.000000000000 Eh       

---------------
SCF CONVERGENCE
---------------

  Last Energy change         ...   -6.7572e-08  Tolerance :   1.0000e-06
  Last MAX-Density change    ...    2.5080e-05  Tolerance :   1.0000e-05
  Last RMS-Density change    ...    6.2083e-07  Tolerance :   1.0000e-06
  Last DIIS Error            ...    9.1877e-06  Tolerance :   1.0000e-06

             **** THE GBW FILE WAS UPDATED (s2.gbw) ****
             **** DENSITY FILE WAS UPDATED (s2.scfp) ****
             **** ENERGY FILE WAS UPDATED (s2.en.tmp) ****
----------------------
UHF SPIN CONTAMINATION
----------------------

Warning: in a DFT calculation there is little theoretical justification to 
         calculate <S**2> as in Hartree-Fock theory. We will do it anyways
         but you should keep in mind that the values have only limited relevance

Expectation value of <S**2>     :     2.015553
Ideal value S*(S+1) for S=1.0   :     2.000000
Deviation                       :     0.015553

             **** THE GBW FILE WAS UPDATED (s2.gbw) ****
             **** DENSITY FILE WAS UPDATED (s2.scfp) ****
----------------
ORBITAL ENERGIES
----------------
                 SPIN UP ORBITALS
  NO   OCC          E(Eh)            E(eV) 
   0   1.0000     -88.922621     -2419.7075 
   1   1.0000     -88.922607     -2419.7072 
   2   1.0000      -8.097149      -220.3346 
   3   1.0000      -8.097026      -220.3313 
   4   1.0000      -6.051116      -164.6592 
   5   1.0000      -6.051116      -164.6592 
   6   1.0000      -6.051086      -164.6584 
   7   1.0000      -6.051086      -164.6584 
   8   1.0000      -6.050699      -164.6479 
   9   1.0000      -6.050051      -164.6303 
  10   1.0000      -0.968525       -26.3549 
  11   1.0000      -0.764088       -20.7919 
  12   1.0000      -0.503090       -13.6898 
  13   1.0000      -0.489310       -13.3148 
  14   1.0000      -0.489310       -13.3148 
  15   1.0000      -0.350959        -9.5501 
  16   1.0000      -0.350959        -9.5501 
  17   0.0000       0.036106         0.9825 
  18   0.0000       0.076420         2.0795 
  19   0.0000       0.076420         2.0795 
  20   0.0000       0.077385         2.1057 
  21   0.0000       0.090718         2.4686 
  22   0.0000       0.096590         2.6283 
  23   0.0000       0.096590         2.6283 
  24   0.0000       0.097177         2.6443 
  25   0.0000       0.170106         4.6288 
  26   0.0000       0.170106         4.6288 
  27   0.0000       0.212065         5.7706 
  28   0.0000       0.220206         5.9921 
  29   0.0000       0.220206         5.9921 
  30   0.0000       0.261359         7.1119 
  31   0.0000       0.266819         7.2605 
  32   0.0000       0.266821         7.2606 
  33   0.0000       0.311207         8.4684 
  34   0.0000       0.311207         8.4684 
  35   0.0000       0.312785         8.5113 
  36   0.0000       0.425062        11.5665 
  37   0.0000       0.425062        11.5665 
  38   0.0000       0.464769        12.6470 
  39   0.0000       0.486115        13.2279 
  40   0.0000       0.486115        13.2279 
  41   0.0000       0.507544        13.8110 
  42   0.0000       0.507545        13.8110 
  43   0.0000       0.586961        15.9720 
  44   0.0000       0.586961        15.9720 
  45   0.0000       0.599576        16.3153 
  46   0.0000       0.599576        16.3153 
  47   0.0000       0.610088        16.6013 
  48   0.0000       0.638343        17.3702 
  49   0.0000       0.723856        19.6971 
  50   0.0000       0.723856        19.6971 
  51   0.0000       0.794586        21.6218 
  52   0.0000       0.844463        22.9790 
  53   0.0000       1.211221        32.9590 
  54   0.0000       1.526854        41.5478 
  55   0.0000       1.526856        41.5479 
  56   0.0000       1.551276        42.2124 
  57   0.0000       1.581302        43.0294 
  58   0.0000       1.581302        43.0294 
  59   0.0000       1.645292        44.7707 
  60   0.0000       1.645298        44.7708 
  61   0.0000       1.670408        45.4541 
  62   0.0000       1.670413        45.4542 
  63   0.0000       1.673530        45.5391 
  64   0.0000       1.673530        45.5391 
  65   0.0000       1.679957        45.7139 
  66   0.0000       1.679957        45.7139 
  67   0.0000       1.716112        46.6978 
  68   0.0000       1.763154        47.9779 
  69   0.0000       1.763154        47.9779 
  70   0.0000       1.765300        48.0363 
  71   0.0000       1.765300        48.0363 
  72   0.0000       1.933237        52.6061 
  73   0.0000       1.933237        52.6061 
  74   0.0000       1.938820        52.7580 
  75   0.0000       2.006341        54.5953 
  76   0.0000       2.006346        54.5954 
  77   0.0000       2.031494        55.2798 
  78   0.0000       2.031494        55.2798 
  79   0.0000       2.092875        56.9500 
  80   0.0000       2.557927        69.6047 
  81   0.0000       2.596115        70.6439 
  82   0.0000       2.596115        70.6439 
  83   0.0000       3.134088        85.2829 
  84   0.0000       6.791248       184.7992 
  85   0.0000       6.791275       184.8000 
  86   0.0000       6.821211       185.6146 
  87   0.0000       6.821238       185.6153 
  88   0.0000       6.825004       185.7178 
  89   0.0000       6.825004       185.7178 
  90   0.0000       6.842614       186.1970 
  91   0.0000       6.843436       186.2194 
  92   0.0000       6.843436       186.2194 
  93   0.0000       7.054304       191.9574 
  94   0.0000       8.925380       242.8719 
  95   0.0000       8.925380       242.8719 
  96   0.0000       9.055054       246.4005 
  97   0.0000       9.055054       246.4005 
  98   0.0000       9.212169       250.6759 
  99   0.0000       9.331313       253.9179 
 100   0.0000      18.382296       500.2077 
 101   0.0000      19.076934       519.1098 

                 SPIN DOWN ORBITALS
  NO   OCC          E(Eh)            E(eV) 
   0   1.0000     -88.916476     -2419.5403 
   1   1.0000     -88.916464     -2419.5400 
   2   1.0000      -8.091917      -220.1923 
   3   1.0000      -8.091716      -220.1868 
   4   1.0000      -6.047046      -164.5485 
   5   1.0000      -6.046389      -164.5306 
   6   1.0000      -6.039503      -164.3432 
   7   1.0000      -6.039503      -164.3432 
   8   1.0000      -6.039456      -164.3419 
   9   1.0000      -6.039456      -164.3419 
  10   1.0000      -0.938511       -25.5382 
  11   1.0000      -0.696421       -18.9506 
  12   1.0000      -0.479275       -13.0417 
  13   1.0000      -0.425103       -11.5676 
  14   1.0000      -0.425103       -11.5676 
  15   0.0000      -0.064190        -1.7467 
  16   0.0000      -0.064190        -1.7467 
  17   0.0000       0.042210         1.1486 
  18   0.0000       0.078703         2.1416 
  19   0.0000       0.078703         2.1416 
  20   0.0000       0.080137         2.1806 
  21   0.0000       0.097751         2.6599 
  22   0.0000       0.102659         2.7935 
  23   0.0000       0.102659         2.7935 
  24   0.0000       0.103802         2.8246 
  25   0.0000       0.177839         4.8393 
  26   0.0000       0.177840         4.8393 
  27   0.0000       0.218043         5.9333 
  28   0.0000       0.237338         6.4583 
  29   0.0000       0.237338         6.4583 
  30   0.0000       0.267344         7.2748 
  31   0.0000       0.279725         7.6117 
  32   0.0000       0.279726         7.6117 
  33   0.0000       0.317528         8.6404 
  34   0.0000       0.319612         8.6971 
  35   0.0000       0.319612         8.6971 
  36   0.0000       0.431708        11.7474 
  37   0.0000       0.431708        11.7474 
  38   0.0000       0.470110        12.7923 
  39   0.0000       0.511275        13.9125 
  40   0.0000       0.511275        13.9125 
  41   0.0000       0.535819        14.5804 
  42   0.0000       0.535821        14.5804 
  43   0.0000       0.610877        16.6228 
  44   0.0000       0.610877        16.6228 
  45   0.0000       0.616451        16.7745 
  46   0.0000       0.630167        17.1477 
  47   0.0000       0.630168        17.1477 
  48   0.0000       0.647828        17.6283 
  49   0.0000       0.749544        20.3961 
  50   0.0000       0.749544        20.3961 
  51   0.0000       0.813795        22.1445 
  52   0.0000       0.862469        23.4690 
  53   0.0000       1.225163        33.3384 
  54   0.0000       1.553978        42.2859 
  55   0.0000       1.553981        42.2860 
  56   0.0000       1.564546        42.5735 
  57   0.0000       1.598110        43.4868 
  58   0.0000       1.598110        43.4868 
  59   0.0000       1.671352        45.4798 
  60   0.0000       1.671352        45.4798 
  61   0.0000       1.697201        46.1832 
  62   0.0000       1.697201        46.1832 
  63   0.0000       1.697670        46.1959 
  64   0.0000       1.697671        46.1960 
  65   0.0000       1.712851        46.6090 
  66   0.0000       1.712851        46.6090 
  67   0.0000       1.727329        47.0030 
  68   0.0000       1.783023        48.5185 
  69   0.0000       1.783023        48.5185 
  70   0.0000       1.805413        49.1278 
  71   0.0000       1.805413        49.1278 
  72   0.0000       1.949189        53.0401 
  73   0.0000       1.962868        53.4124 
  74   0.0000       1.962868        53.4124 
  75   0.0000       2.035122        55.3785 
  76   0.0000       2.035128        55.3787 
  77   0.0000       2.059159        56.0326 
  78   0.0000       2.059159        56.0326 
  79   0.0000       2.108873        57.3854 
  80   0.0000       2.570046        69.9345 
  81   0.0000       2.616966        71.2113 
  82   0.0000       2.616966        71.2113 
  83   0.0000       3.146135        85.6107 
  84   0.0000       6.800768       185.0583 
  85   0.0000       6.800797       185.0591 
  86   0.0000       6.830014       185.8541 
  87   0.0000       6.830014       185.8541 
  88   0.0000       6.831106       185.8838 
  89   0.0000       6.831136       185.8847 
  90   0.0000       6.846621       186.3060 
  91   0.0000       6.848733       186.3635 
  92   0.0000       6.848733       186.3635 
  93   0.0000       7.059816       192.1073 
  94   0.0000       8.942061       243.3258 
  95   0.0000       8.942061       243.3258 
  96   0.0000       9.072080       246.8639 
  97   0.0000       9.072080       246.8639 
  98   0.0000       9.218613       250.8512 
  99   0.0000       9.337932       254.0980 
 100   0.0000      18.390914       500.4422 
 101   0.0000      19.085923       519.3544 

                    ********************************
                    * MULLIKEN POPULATION ANALYSIS *
                    ********************************

--------------------------------------------
MULLIKEN ATOMIC CHARGES AND SPIN POPULATIONS
--------------------------------------------
   0 S :   -0.000000    1.000001
   1 S :    0.000000    0.999999
Sum of atomic charges         :   -0.0000000
Sum of atomic spin populations:    2.0000000

-----------------------------------------------------
MULLIKEN REDUCED ORBITAL CHARGES AND SPIN POPULATIONS
-----------------------------------------------------
CHARGE
  0 S s       :     5.924823  s :     5.924823
      pz      :     3.038213  p :     9.944342
      px      :     3.453065
      py      :     3.453065
      dz2     :     0.033417  d :     0.120022
      dxz     :     0.043302
      dyz     :     0.043302
      dx2y2   :     0.000000
      dxy     :     0.000000
      f0      :     0.003547  f :     0.010813
      f+1     :     0.003633
      f-1     :     0.003633
      f+2     :     0.000000
      f-2     :     0.000000
      f+3     :     0.000000
      f-3     :     0.000000
  1 S s       :     5.924823  s :     5.924823
      pz      :     3.038213  p :     9.944342
      px      :     3.453065
      py      :     3.453065
      dz2     :     0.033417  d :     0.120022
      dxz     :     0.043302
      dyz     :     0.043302
      dx2y2   :     0.000000
      dxy     :     0.000000
      f0      :     0.003547  f :     0.010813
      f+1     :     0.003633
      f-1     :     0.003633
      f+2     :     0.000000
      f-2     :     0.000000
      f+3     :     0.000000
      f-3     :     0.000000

SPIN
  0 S s       :     0.010789  s :     0.010789
      pz      :    -0.011535  p :     1.001061
      px      :     0.506298
      py      :     0.506298
      dz2     :     0.001286  d :    -0.010724
      dxz     :    -0.006005
      dyz     :    -0.006005
      dx2y2   :    -0.000000
      dxy     :     0.000000
      f0      :    -0.000539  f :    -0.001125
      f+1     :    -0.000293
      f-1     :    -0.000293
      f+2     :    -0.000000
      f-2     :    -0.000000
      f+3     :     0.000000
      f-3     :     0.000000
  1 S s       :     0.010787  s :     0.010787
      pz      :    -0.011535  p :     1.001061
      px      :     0.506298
      py      :     0.506298
      dz2     :     0.001286  d :    -0.010724
      dxz     :    -0.006005
      dyz     :    -0.006005
      dx2y2   :    -0.000000
      dxy     :    -0.000000
      f0      :    -0.000539  f :    -0.001125
      f+1     :    -0.000293
      f-1     :    -0.000293
      f+2     :    -0.000000
      f-2     :    -0.000000
      f+3     :     0.000000
      f-3     :     0.000000


                     *******************************
                     * LOEWDIN POPULATION ANALYSIS *
                     *******************************

-------------------------------------------
LOEWDIN ATOMIC CHARGES AND SPIN POPULATIONS
-------------------------------------------
   0 S :    0.000000    1.000000
   1 S :   -0.000000    1.000000

----------------------------------------------------
LOEWDIN REDUCED ORBITAL CHARGES AND SPIN POPULATIONS
----------------------------------------------------
CHARGE
  0 S s       :     5.554642  s :     5.554642
      pz      :     3.235747  p :     9.954840
      px      :     3.359547
      py      :     3.359547
      dz2     :     0.197046  d :     0.459498
      dxz     :     0.131226
      dyz     :     0.131226
      dx2y2   :     0.000000
      dxy     :     0.000000
      f0      :     0.012565  f :     0.031020
      f+1     :     0.009227
      f-1     :     0.009227
      f+2     :     0.000000
      f-2     :     0.000000
      f+3     :     0.000000
      f-3     :     0.000000
  1 S s       :     5.554642  s :     5.554642
      pz      :     3.235747  p :     9.954840
      px      :     3.359547
      py      :     3.359547
      dz2     :     0.197046  d :     0.459498
      dxz     :     0.131226
      dyz     :     0.131226
      dx2y2   :     0.000000
      dxy     :     0.000000
      f0      :     0.012565  f :     0.031020
      f+1     :     0.009227
      f-1     :     0.009227
      f+2     :     0.000000
      f-2     :     0.000000
      f+3     :     0.000000
      f-3     :     0.000000

SPIN
  0 S s       :     0.004939  s :     0.004939
      pz      :    -0.009542  p :     0.881341
      px      :     0.445442
      py      :     0.445442
      dz2     :     0.005080  d :     0.108442
      dxz     :     0.051681
      dyz     :     0.051681
      dx2y2   :    -0.000000
      dxy     :    -0.000000
      f0      :    -0.000477  f :     0.005278
      f+1     :     0.002878
      f-1     :     0.002878
      f+2     :    -0.000000
      f-2     :    -0.000000
      f+3     :     0.000000
      f-3     :     0.000000
  1 S s       :     0.004939  s :     0.004939
      pz      :    -0.009542  p :     0.881341
      px      :     0.445442
      py      :     0.445442
      dz2     :     0.005080  d :     0.108442
      dxz     :     0.051681
      dyz     :     0.051681
      dx2y2   :    -0.000000
      dxy     :    -0.000000
      f0      :    -0.000477  f :     0.005278
      f+1     :     0.002878
      f-1     :     0.002878
      f+2     :    -0.000000
      f-2     :    -0.000000
      f+3     :     0.000000
      f-3     :     0.000000


                      *****************************
                      * MAYER POPULATION ANALYSIS *
                      *****************************

  NA   - Mulliken gross atomic population
  ZA   - Total nuclear charge
  QA   - Mulliken gross atomic charge
  VA   - Mayer's total valence
  BVA  - Mayer's bonded valence
  FA   - Mayer's free valence

  ATOM       NA         ZA         QA         VA         BVA        FA
  0 S     16.0000    16.0000    -0.0000     2.5521     1.9569     0.5951
  1 S     16.0000    16.0000     0.0000     2.5521     1.9569     0.5951

  Mayer bond orders larger than 0.100000
B(  0-S ,  1-S ) :   1.9569 

-------
TIMINGS
-------

Total SCF time: 0 days 0 hours 1 min 37 sec 

Total time                  ....      97.018 sec
Sum of individual times     ....      92.893 sec  ( 95.7%)

Fock matrix formation       ....      87.052 sec  ( 89.7%)
  XC integration            ....      83.688 sec  ( 96.1% of F)
    Basis function eval.    ....       0.013 sec  (  0.0% of XC)
    Density eval.           ....       0.015 sec  (  0.0% of XC)
    XC-Functional eval.     ....       0.017 sec  (  0.0% of XC)
    XC-Potential eval.      ....       0.030 sec  (  0.0% of XC)
Diagonalization             ....       1.484 sec  (  1.5%)
Density matrix formation    ....       0.028 sec  (  0.0%)
Population analysis         ....       0.832 sec  (  0.9%)
Initial guess               ....       0.604 sec  (  0.6%)
Orbital Transformation      ....       0.000 sec  (  0.0%)
Orbital Orthonormalization  ....       0.000 sec  (  0.0%)
DIIS solution               ....       0.075 sec  (  0.1%)
Grid generation             ....       2.819 sec  (  2.9%)

-------------------------   --------------------
FINAL SINGLE POINT ENERGY      -796.264643403223
-------------------------   --------------------


----------------------------------------------------------------------------
                           ORCA NUMERICAL GRADIENT
                              (28-process run)
----------------------------------------------------------------------------

I state                        ... 1
J state                        ... 0
Number of atoms                ... 2
Derivative's order of accuracy ... 2
Central differences            ... used
Number of displacements        ... 12
Numerical increment            ... 5.000e-03 bohr
Translation invariance         ... used

The output will be reduced. Please look at the following files:
SCF program output             ... >s2.lastscf
Integral program output        ... >s2.lastint
Gradient program output        ... >s2.lastgrad


     Note:   There are more processes than displacements to do
     ===>:   Reducing number of processes to   3

             <<<Displacing   2/coordinate 3 (+)>>>
             <<<Displacing   2/coordinate 2 (+)>>>
             <<<Displacing   2/coordinate 1 (+)>>>
             <<<Displacing   2/coordinate 2 (-)>>>
             <<<Displacing   2/coordinate 1 (-)>>>
             <<<Displacing   2/coordinate 3 (-)>>>

------------------------------
CARTESIAN GRADIENT (NUMERICAL)
-------------------------------
   1   S   :   -0.000000001   -0.000000000    0.029592171
   2   S   :    0.000000001    0.000000000   -0.029592171

Norm of the cartesian gradient     ...    0.041849650
RMS gradient                       ...    0.017085048
MAX gradient                       ...    0.029592171

-------
TIMINGS
-------

Total numerical gradient time      ...       38.928 sec


                            ***************************************
                            *     ORCA property calculations      *
                            ***************************************

                                    ---------------------
                                    Active property flags
                                    ---------------------
   (+) Dipole Moment


------------------------------------------------------------------------------
                       ORCA ELECTRIC PROPERTIES CALCULATION
------------------------------------------------------------------------------

Dipole Moment Calculation                       ... on
Quadrupole Moment Calculation                   ... off
Polarizability Calculation                      ... off
GBWName                                         ... s2.gbw
Electron density file                           ... s2.scfp
The origin for moment calculation is the CENTER OF MASS  = ( 0.000000,  0.000000  0.000000)

-------------
DIPOLE MOMENT
-------------
                                X             Y             Z
Electronic contribution:      0.00000       0.00000       0.00000
Nuclear contribution   :      0.00000       0.00000       0.00000
                        -----------------------------------------
Total Dipole Moment    :      0.00000       0.00000       0.00000
                        -----------------------------------------
Magnitude (a.u.)       :      0.00000
Magnitude (Debye)      :      0.00000



--------------------
Rotational spectrum 
--------------------
 
Rotational constants in cm-1:     0.000000     0.284236     0.284236 
Rotational constants in MHz :     0.000000  8521.179234  8521.179234 

 Dipole components along the rotational axes: 
x,y,z [a.u.] :     0.000000     0.000000     0.000000 
x,y,z [Debye]:     0.000000     0.000000     0.000000 

 

Timings for individual modules:

Sum of individual times         ...      140.180 sec (=   2.336 min)
GTO integral calculation        ...        3.542 sec (=   0.059 min)   2.5 %
SCF iterations                  ...       97.711 sec (=   1.629 min)  69.7 %
SCF Gradient evaluation         ...       38.928 sec (=   0.649 min)  27.8 %
                             ****ORCA TERMINATED NORMALLY****
TOTAL RUN TIME: 0 days 0 hours 4 minutes 49 seconds 175 msec
