
                                 *****************
                                 * O   R   C   A *
                                 *****************

           --- An Ab Initio, DFT and Semiempirical electronic structure package ---

                  #######################################################
                  #                        -***-                        #
                  #          Department of theory and spectroscopy      #
                  #               Directorship: Frank Neese             #
                  #        Max Planck Institute fuer Kohlenforschung    #
                  #                Kaiser Wilhelm Platz 1               #
                  #                 D-45470 Muelheim/Ruhr               #
                  #                      Germany                        #
                  #                                                     #
                  #                  All rights reserved                #
                  #                        -***-                        #
                  #######################################################


                         Program Version 4.2.0 -  RELEASE  -


 With contributions from (in alphabetic order):
   Daniel Aravena         : Magnetic Suceptibility
   Michael Atanasov       : Ab Initio Ligand Field Theory (pilot matlab implementation)
   Alexander A. Auer      : GIAO ZORA, VPT2
   Ute Becker             : Parallelization
   Giovanni Bistoni       : ED, misc. LED, open-shell LED, HFLED
   Martin Brehm           : Molecular dynamics
   Dmytro Bykov           : SCF Hessian
   Vijay G. Chilkuri      : MRCI spin determinant printing, contributions to CSF-ICE
   Dipayan Datta          : RHF DLPNO-CCSD density
   Achintya Kumar Dutta   : EOM-CC, STEOM-CC
   Dmitry Ganyushin       : Spin-Orbit,Spin-Spin,Magnetic field MRCI
   Miquel Garcia          : C-PCM Hessian, Gaussian charge scheme
   Yang Guo               : DLPNO-NEVPT2, CIM, IAO-localization
   Andreas Hansen         : Spin unrestricted coupled pair/coupled cluster methods
   Benjamin Helmich-Paris : CASSCF linear response (MC-RPA)
   Lee Huntington         : MR-EOM, pCC
   Robert Izsak           : Overlap fitted RIJCOSX, COSX-SCS-MP3, EOM
   Christian Kollmar      : KDIIS, OOCD, Brueckner-CCSD(T), CCSD density
   Simone Kossmann        : Meta GGA functionals, TD-DFT gradient, OOMP2, MP2 Hessian
   Martin Krupicka        : AUTO-CI
   Lucas Lang             : DCDCAS
   Dagmar Lenk            : GEPOL surface, SMD
   Dimitrios Liakos       : Extrapolation schemes; Compound Job, initial MDCI parallelization
   Dimitrios Manganas     : Further ROCIS development; embedding schemes
   Dimitrios Pantazis     : SARC Basis sets
   Taras Petrenko         : DFT Hessian,TD-DFT gradient, ASA, ECA, R-Raman, ABS, FL, XAS/XES, NRVS
   Peter Pinski           : DLPNO-MP2, DLPNO-MP2 Gradient
   Christoph Reimann      : Effective Core Potentials
   Marius Retegan         : Local ZFS, SOC
   Christoph Riplinger    : Optimizer, TS searches, QM/MM, DLPNO-CCSD(T), (RO)-DLPNO pert. Triples
   Tobias Risthaus        : Range-separated hybrids, TD-DFT gradient, RPA, STAB
   Michael Roemelt        : Original ROCIS implementation
   Masaaki Saitow         : Open-shell DLPNO-CCSD energy and density
   Barbara Sandhoefer     : DKH picture change effects
   Avijit Sen             : IP-ROCIS
   Kantharuban Sivalingam : CASSCF convergence, NEVPT2, FIC-MRCI
   Bernardo de Souza      : ESD, SOC TD-DFT
   Georgi Stoychev        : AutoAux, RI-MP2 NMR
   Willem Van den Heuvel  : Paramagnetic NMR
   Boris Wezisla          : Elementary symmetry handling
   Frank Wennmohs         : Technical directorship


 We gratefully acknowledge several colleagues who have allowed us to
 interface, adapt or use parts of their codes:
   Stefan Grimme, W. Hujo, H. Kruse,             : VdW corrections, initial TS optimization,
                  C. Bannwarth                     DFT functionals, gCP, sTDA/sTD-DF
   Ed Valeev, F. Pavosevic, A. Kumar             : LibInt (2-el integral package), F12 methods
   Garnet Chan, S. Sharma, J. Yang, R. Olivares  : DMRG
   Ulf Ekstrom                                   : XCFun DFT Library
   Mihaly Kallay                                 : mrcc  (arbitrary order and MRCC methods)
   Andreas Klamt, Michael Diedenhofen            : otool_cosmo (COSMO solvation model)
   Jiri Pittner, Ondrej Demel                    : Mk-CCSD
   Frank Weinhold                                : gennbo (NPA and NBO analysis)
   Christopher J. Cramer and Donald G. Truhlar   : smd solvation model
   Lars Goerigk                                  : TD-DFT with DH, B97 family of functionals
   V. Asgeirsson, H. Jonsson                     : NEB implementation
   FAccTs GmbH                                   : IRC, NEB, NEB-TS, Multilevel, MM, QM/MM, CI optimization
   S Lehtola, MJT Oliveira, MAL Marques          : LibXC Library


 Your calculation uses the libint2 library for the computation of 2-el integrals
 For citations please refer to: http://libint.valeyev.net

 Your ORCA version has been built with support for libXC version: 4.2.3
 For citations please refer to: https://tddft.org/programs/libxc/

 This ORCA versions uses:
   CBLAS   interface :  Fast vector & matrix operations
   LAPACKE interface :  Fast linear algebra routines
   SCALAPACK package :  Parallel linear algebra routines


Your calculation utilizes the DFT-NL dispersion correction.
Cite in your paper:
Vydrov, O. A.; Van Voorhis, T. J. Chem. Phys. 2010, 133, 244103
Hujo, W.; Grimme, S. J. Chem. Theory Comput. 2011, 7, 3866 
   

----- Orbital basis set information -----
Your calculation utilizes the basis: def2-TZVPPD
   F. Weigend and R. Ahlrichs, Phys. Chem. Chem. Phys. 7, 3297 (2005).
   D. Rappoport and F. Furche, J. Chem. Phys. 133 134105 (2010).

----- AuxJK basis set information -----
Your calculation utilizes the auxiliary basis: def2/JK
   H-Ba, Hf-Rn: F. Weigend, J. Comput. Chem. 29, 167 (2008).

================================================================================
                                        WARNINGS
                       Please study these warnings very carefully!
================================================================================

INFO   : Found keyword 'NumGrad' for Energy calculation
  ===> : Setting RunTyp to EnGrad

WARNING: Numerical Gradient with sloppy Convergence Criteria    
         Your results may be not reliable!                      
         Please choose at least TightSCF!                       

WARNING: your system is open-shell and RHF/RKS was chosen
  ===> : WILL SWITCH to UHF/UKS


INFO   : the flag for use of LIBINT has been found!

================================================================================
                                       INPUT FILE
================================================================================
NAME = V.in
|  1> #
|  2> # V wB97X-V/Def2-TZVPPD
|  3> #
|  4> ! wb97x-v def2-tzvppd def2/jk grid4 nofinalgrid numgrad
|  5> 
|  6> *xyz 0 6
|  7> V          0.00000        0.00000        0.00000
|  8> *
|  9> 
| 10> %maxcore 5000
| 11> 
| 12> %pal
| 13> nprocs = 28
| 14> end
| 15> 
| 16> 
| 17>                          ****END OF INPUT****
================================================================================

                     *******************************
                     * Energy+Gradient Calculation *
                     *******************************

---------------------------------
CARTESIAN COORDINATES (ANGSTROEM)
---------------------------------
  V      0.000000    0.000000    0.000000

----------------------------
CARTESIAN COORDINATES (A.U.)
----------------------------
  NO LB      ZA    FRAG     MASS         X           Y           Z
   0 V    23.0000    0    50.940    0.000000    0.000000    0.000000

--------------------------------
INTERNAL COORDINATES (ANGSTROEM)
--------------------------------
 V      0   0   0     0.000000000000     0.00000000     0.00000000

---------------------------
INTERNAL COORDINATES (A.U.)
---------------------------
 V      0   0   0     0.000000000000     0.00000000     0.00000000

---------------------
BASIS SET INFORMATION
---------------------
There are 1 groups of distinct atoms

 Group   1 Type V   : 17s13p7d2f1g contracted to 6s6p4d2f1g pattern {842111/631111/4111/11/1}

Atom   0V    basis set group =>   1
----------------------------------
AUXILIARY/JK BASIS SET INFORMATION
----------------------------------
There are 1 groups of distinct atoms

 Group   1 Type V   : 19s14p12d10f7g3h1i contracted to 16s13p11d9f5g3h1i pattern {4111111111111111/2111111111111/21111111111/211111111/31111/111/1}

Atom   0V    basis set group =>   1


           ************************************************************
           *        Program running with 28 parallel MPI-processes    *
           *              working on a common directory               *
           ************************************************************
------------------------------------------------------------------------------
                           ORCA GTO INTEGRAL CALCULATION
------------------------------------------------------------------------------

                         BASIS SET STATISTICS AND STARTUP INFO

 # of primitive gaussian shells          ...   40
 # of primitive gaussian functions       ...  114
 # of contracted shells                  ...   19
 # of contracted basis functions         ...   67
 Highest angular momentum                ...    4
 Maximum contraction depth               ...    8
 Integral package used                   ... LIBINT
 Integral threshhold            Thresh   ...  1.000e-10
 Primitive cut-off              TCut     ...  1.000e-11


------------------------------ INTEGRAL EVALUATION ----------------------------


 * One electron integrals 
 Pre-screening matrix                    ... done
 Shell pair data                         ... done (   0.000 sec)



           ************************************************************
           *        Program running with 28 parallel MPI-processes    *
           *              working on a common directory               *
           ************************************************************
-------------------------------------------------------------------------------
                                 ORCA SCF
-------------------------------------------------------------------------------

------------
SCF SETTINGS
------------
Hamiltonian:
 Density Functional     Method          .... DFT(GTOs)
 Exchange Functional    Exchange        .... WB97X-V
 Correlation Functional Correlation     .... WB97X-V
 Gradients option       PostSCFGGA      .... off
 Hybrid DFT is turned on
   Fraction HF Exchange ScalHFX         ....  0.167000
   Scaling of DF-GGA-X  ScalDFX         ....  0.000000
   Scaling of DF-GGA-C  ScalDFC         ....  1.000000
   Scaling of DF-LDA-C  ScalLDAC        ....  1.000000
   Perturbative correction              ....  0.000000
   Density functional embedding theory  .... OFF
 Long-range corrected/Screened/Range-Separated Hybrid DFT is turned on
   Amount of maximum screened exact exchange              ....  0.833000
   Range separation parameter mu (erf(mu*r12)/r12)        ....  0.300000
   NL short-range parameter             ....  6.000000
   NL long-range parameter              ....  0.010000


General Settings:
 Integral files         IntName         .... V.in
 Hartree-Fock type      HFTyp           .... UHF
 Total Charge           Charge          ....    0
 Multiplicity           Mult            ....    6
 Number of Electrons    NEL             ....   23
 Basis Dimension        Dim             ....   67
 Nuclear Repulsion      ENuc            ....      0.0000000000 Eh

Convergence Acceleration:
 DIIS                   CNVDIIS         .... on
   Start iteration      DIISMaxIt       ....    12
   Startup error        DIISStart       ....  0.200000
   # of expansion vecs  DIISMaxEq       ....     5
   Bias factor          DIISBfac        ....   1.050
   Max. coefficient     DIISMaxC        ....  10.000
 Newton-Raphson         CNVNR           .... off
 SOSCF                  CNVSOSCF        .... off
 Level Shifting         CNVShift        .... on
   Level shift para.    LevelShift      ....    0.2500
   Turn off err/grad.   ShiftErr        ....    0.0010
 Zerner damping         CNVZerner       .... off
 Static damping         CNVDamp         .... on
   Fraction old density DampFac         ....    0.7000
   Max. Damping (<1)    DampMax         ....    0.9800
   Min. Damping (>=0)   DampMin         ....    0.0000
   Turn off err/grad.   DampErr         ....    0.1000
 Fernandez-Rico         CNVRico         .... off

SCF Procedure:
 Maximum # iterations   MaxIter         ....   125
 SCF integral mode      SCFMode         .... Direct
   Integral package                     .... LIBINT
 Reset frequency        DirectResetFreq ....    20
 Integral Threshold     Thresh          ....  1.000e-10 Eh
 Primitive CutOff       TCut            ....  1.000e-11 Eh

Convergence Tolerance:
 Convergence Check Mode ConvCheckMode   .... Total+1el-Energy
 Convergence forced     ConvForced      .... 0
 Energy Change          TolE            ....  1.000e-06 Eh
 1-El. energy change                    ....  1.000e-03 Eh
 DIIS Error             TolErr          ....  1.000e-06


Diagonalization of the overlap matrix:
Smallest eigenvalue                        ... 3.674e-02
Time for diagonalization                   ...    0.001 sec
Threshold for overlap eigenvalues          ... 1.000e-08
Number of eigenvalues below threshold      ... 0
Time for construction of square roots      ...    0.135 sec
Total time needed                          ...    0.136 sec

-------------------
DFT GRID GENERATION
-------------------

General Integration Accuracy     IntAcc      ...  4.670
Radial Grid Type                 RadialGrid  ... Gauss-Chebyshev
Angular Grid (max. acc.)         AngularGrid ... Lebedev-302
Angular grid pruning method      GridPruning ... 3 (G Style)
Weight generation scheme         WeightScheme... Becke
Basis function cutoff            BFCut       ...    1.0000e-10
Integration weight cutoff        WCut        ...    1.0000e-14
Grids for H and He will be reduced by one unit

# of grid points (after initial pruning)     ...   9664 (   0.0 sec)
# of grid points (after weights+screening)   ...   9664 (   0.0 sec)
Grid point division into batches done        ...    0.1 sec
Reduced shell lists constructed in    0.1 sec

Total number of grid points                  ...     9664
Total number of batches                      ...      152
Average number of points per batch           ...       63
Average number of grid points per atom       ...     9664
Average number of shells per batch           ...     3.43 (18.05%)
Average number of basis functions per batch  ...    10.29 (15.35%)
Average number of large shells per batch     ...     3.43 (100.00%)
Average number of large basis fcns per batch ...    10.29 (100.00%)
Maximum spatial batch extension              ...  22.27, 22.27, 22.27 au
Average spatial batch extension              ...   0.77,  0.76,  0.74 au

Time for grid setup =    2.814 sec

------------------------------
INITIAL GUESS: MODEL POTENTIAL
------------------------------
Loading Hartree-Fock densities                     ... done
Calculating cut-offs                               ... done
Setting up the integral package                    ... done
Initializing the effective Hamiltonian             ... done
Starting the Coulomb interaction                   ... done (   0.0 sec)
Reading the grid                                   ... done
Mapping shells                                     ... done
Starting the XC term evaluation                    ... done (   0.0 sec)
  promolecular density results
     # of electrons  =     23.000003052
     EX              =    -33.382266879
     EC              =     -1.282215785
     EX+EC           =    -34.664482664
Transforming the Hamiltonian                       ... done (   0.0 sec)
Diagonalizing the Hamiltonian                      ... done (   0.0 sec)
Back transforming the eigenvectors                 ... done (   0.0 sec)
Now organizing SCF variables                       ... done
                      ------------------
                      INITIAL GUESS DONE (   3.7 sec)
                      ------------------
--------------
SCF ITERATIONS
--------------
ITER       Energy         Delta-E        Max-DP      RMS-DP      [F,P]     Damp
               ***  Starting incremental Fock matrix formation  ***
  0   -941.7969385577   0.000000000000 0.29727605  0.00795597  0.4989302 0.7000
  1   -942.8390699283  -1.042131370586 0.20809214  0.00488517  0.1511175 0.7000
                               ***Turning on DIIS***
  2   -943.1475512238  -0.308481295539 0.14566110  0.00335823  0.1255427 0.7000
  3   -943.2959242825  -0.148373058659 0.10196307  0.00232092  0.1585717 0.7000
  4   -943.3611789056  -0.065254623074 0.07137459  0.00163404  0.1990104 0.7000
  5   -943.3613765333  -0.000197627782 0.04996290  0.00114241  0.2472123 0.7000
  6   -943.3476313741   0.013745159265 0.03497410  0.00079830  0.2804708 0.7000
  7   -943.3323901668   0.015241207239 0.02448217  0.00057989  0.3030386 0.7000
  8   -943.3503000482  -0.017909881368 0.01713751  0.00065584  0.3023132 0.7000
  9   -943.4132905443  -0.062990496086 0.02500166  0.00118481  0.2721391 0.7000
 10   -943.5257755085  -0.112484964240 0.02744637  0.00126065  0.1979994 0.7000
 11   -943.6211673375  -0.095391828985 0.01745049  0.00086148  0.1305945 0.7000
 12   -943.6754221795  -0.054254841942 0.04298244  0.00196611  0.0872192 0.0000
 13   -943.7780476836  -0.102625504128 0.00390371  0.00019774  0.0179179 0.0000
 14   -943.7786059390  -0.000558255404 0.00218758  0.00011724  0.0079287 0.0000
 15   -943.7787750075  -0.000169068484 0.00110356  0.00006034  0.0022854 0.0000
 16   -943.7788163323  -0.000041324867 0.00106582  0.00004255  0.0010132 0.0000
 17   -943.7788418081  -0.000025475715 0.00106933  0.00003443  0.0012054 0.0000
 18   -943.7788637868  -0.000021978702 0.00062010  0.00001284  0.0014227 0.0000
 19   -943.7788717744  -0.000007987654 0.00020899  0.00000462  0.0015099 0.0000
               *** Restarting incremental Fock matrix formation ***
                                   *** Resetting DIIS ***
 20   -943.7788708754   0.000000899041 0.00141614  0.00003976  0.0015024 0.0000
 21   -943.7789007545  -0.000029879176 0.00098501  0.00002360  0.0017731 0.0000
 22   -943.7789206906  -0.000019936005 0.00047298  0.00000948  0.0019493 0.0000
 23   -943.7789163586   0.000004331928 0.00034647  0.00000683  0.0019175 0.0000
 24   -943.7789119534   0.000004405201 0.00038202  0.00000787  0.0018756 0.0000
 25   -943.7789063622   0.000005591200 0.00114841  0.00002866  0.0018211 0.0000
 26   -943.7789302965  -0.000023934280 0.00137866  0.00003867  0.0020076 0.0000
 27   -943.7789681334  -0.000037836930 0.00086116  0.00001731  0.0022919 0.0000
 28   -943.7789567395   0.000011393944 0.00107784  0.00002211  0.0022102 0.0000
 29   -943.7789383352   0.000018404283 0.00131159  0.00002799  0.0020645 0.0000
 30   -943.7789159235   0.000022411700 0.00047613  0.00001201  0.0019075 0.0000
 31   -943.7789101242   0.000005799265 0.00224209  0.00004404  0.0018514 0.0000
 32   -943.7788857933   0.000024330908 0.00077658  0.00001704  0.0016812 0.0000
 33   -943.7788767311   0.000009062265 0.00196735  0.00004126  0.0015853 0.0000
 34   -943.7788548238   0.000021907251 0.00167222  0.00003797  0.0013707 0.0000
 35   -943.7788370854   0.000017738451 0.00101619  0.00002176  0.0011448 0.0000
 36   -943.7788294681   0.000007617307 0.00289087  0.00005565  0.0009927 0.0000
 37   -943.7788158493   0.000013618768 0.00286645  0.00005450  0.0006004 0.0000
 38   -943.7788129023   0.000002946959 0.00259820  0.00005158  0.0003361 0.0000
                 **** Energy Check signals convergence ****

               *****************************************************
               *                     SUCCESS                       *
               *           SCF CONVERGED AFTER  39 CYCLES          *
               *****************************************************


Setting up the DFT-NL grid :

General Integration Accuracy     IntAcc      ...  4.340
Radial Grid Type                 RadialGrid  ... Gauss-Chebyshev
Angular Grid (max. acc.)         AngularGrid ... Lebedev-110
Angular grid pruning method      GridPruning ... 3 (G Style)
Weight generation scheme         WeightScheme... Becke
Basis function cutoff            BFCut       ...    1.0000e-10
Integration weight cutoff        WCut        ...    1.0000e-14
Grids for H and He will be reduced by one unit

# of grid points (after initial pruning)     ...   2972 (   0.0 sec)
# of grid points (after weights+screening)   ...   2972 (   0.0 sec)
Grid point division into batches done        ...    0.0 sec
Reduced shell lists constructed in    0.0 sec

Total number of grid points                  ...     2972
Total number of batches                      ...       47
Average number of points per batch           ...       63
Average number of grid points per atom       ...     2972
Average number of shells per batch           ...     5.33 (28.07%)
Average number of basis functions per batch  ...    18.67 (27.86%)
Average number of large shells per batch     ...     4.67 (87.50%)
Average number of large basis fcns per batch ...    14.00 (75.00%)
Maximum spatial batch extension              ...  18.71, 28.73, 28.73 au
Average spatial batch extension              ...   0.80,  1.22,  1.22 au

Final grid set up in    0.0 sec

-------------------------------------------------------------------------------
                         DFT-NL dispersion correction                          
-------------------------------------------------------------------------------

SC Energy -943.778812144 
NL    Energy 0.097832138 
SC+NL Energy -943.680980006 
NL done in    0.1 sec
-------------------------------------------------------------------------------

----------------
TOTAL SCF ENERGY
----------------

Total Energy       :         -943.68098001 Eh          -25678.86495 eV

Components:
Nuclear Repulsion  :            0.00000000 Eh               0.00000 eV
Electronic Energy  :         -943.68098001 Eh          -25678.86495 eV
One Electron Energy:        -1300.06150272 Eh          -35376.47199 eV
Two Electron Energy:          356.38052272 Eh            9697.60704 eV

Virial components:
Potential Energy   :        -1885.83166724 Eh          -51316.08853 eV
Kinetic Energy     :          942.15068723 Eh           25637.22357 eV
Virial Ratio       :            2.00162425


DFT components:
N(Alpha)           :       13.999999662989 electrons
N(Beta)            :        8.999999663395 electrons
N(Total)           :       22.999999326384 electrons
E(X)               :      -33.698856671371 Eh       
E(C)               :       -1.250785486107 Eh       
NL Energy, E(C,NL) :        0.097832138439 Eh       
E(XC)              :      -34.851810019040 Eh       
DFET-embed. en.    :        0.000000000000 Eh       

---------------
SCF CONVERGENCE
---------------

  Last Energy change         ...    7.5823e-07  Tolerance :   1.0000e-06
  Last MAX-Density change    ...    8.1305e-04  Tolerance :   1.0000e-05
  Last RMS-Density change    ...    2.0414e-05  Tolerance :   1.0000e-06
  Last DIIS Error            ...    1.2254e-04  Tolerance :   1.0000e-06

             **** THE GBW FILE WAS UPDATED (V.in.gbw) ****
             **** DENSITY FILE WAS UPDATED (V.in.scfp) ****
             **** ENERGY FILE WAS UPDATED (V.in.en.tmp) ****
----------------------
UHF SPIN CONTAMINATION
----------------------

Warning: in a DFT calculation there is little theoretical justification to 
         calculate <S**2> as in Hartree-Fock theory. We will do it anyways
         but you should keep in mind that the values have only limited relevance

Expectation value of <S**2>     :     8.750082
Ideal value S*(S+1) for S=2.5   :     8.750000
Deviation                       :     0.000082

             **** THE GBW FILE WAS UPDATED (V.in.gbw) ****
             **** DENSITY FILE WAS UPDATED (V.in.scfp) ****
----------------
ORBITAL ENERGIES
----------------
                 SPIN UP ORBITALS
  NO   OCC          E(Eh)            E(eV) 
   0   1.0000    -196.583972     -5349.3218 
   1   1.0000     -22.068365      -600.5107 
   2   1.0000     -18.566430      -505.2183 
   3   1.0000     -18.566426      -505.2181 
   4   1.0000     -18.566425      -505.2181 
   5   1.0000      -2.568664       -69.8969 
   6   1.0000      -1.613917       -43.9169 
   7   1.0000      -1.613912       -43.9168 
   8   1.0000      -1.613896       -43.9163 
   9   1.0000      -0.162267        -4.4155 
  10   1.0000      -0.162063        -4.4100 
  11   1.0000      -0.162059        -4.4098 
  12   1.0000      -0.161957        -4.4071 
  13   1.0000      -0.161957        -4.4071 
  14   0.0000      -0.010284        -0.2798 
  15   0.0000       0.037893         1.0311 
  16   0.0000       0.037899         1.0313 
  17   0.0000       0.037903         1.0314 
  18   0.0000       0.148501         4.0409 
  19   0.0000       0.148512         4.0412 
  20   0.0000       0.148520         4.0414 
  21   0.0000       0.191619         5.2142 
  22   0.0000       0.214050         5.8246 
  23   0.0000       0.214088         5.8256 
  24   0.0000       0.214089         5.8256 
  25   0.0000       0.214107         5.8262 
  26   0.0000       0.214111         5.8263 
  27   0.0000       0.515318        14.0225 
  28   0.0000       0.515318        14.0225 
  29   0.0000       0.515319        14.0226 
  30   0.0000       0.791654        21.5420 
  31   0.0000       0.791673        21.5425 
  32   0.0000       0.791673        21.5425 
  33   0.0000       0.791688        21.5429 
  34   0.0000       0.791688        21.5429 
  35   0.0000       1.294839        35.2344 
  36   0.0000       1.294839        35.2344 
  37   0.0000       1.294840        35.2344 
  38   0.0000       1.294841        35.2344 
  39   0.0000       1.294846        35.2345 
  40   0.0000       1.294848        35.2346 
  41   0.0000       1.294850        35.2347 
  42   0.0000       1.924317        52.3633 
  43   0.0000       1.924323        52.3635 
  44   0.0000       1.924343        52.3640 
  45   0.0000       2.103116        57.2287 
  46   0.0000       2.657452        72.3129 
  47   0.0000       2.657471        72.3135 
  48   0.0000       2.657471        72.3135 
  49   0.0000       2.657514        72.3146 
  50   0.0000       2.657517        72.3147 
  51   0.0000       4.339464       118.0828 
  52   0.0000       4.339464       118.0828 
  53   0.0000       4.339494       118.0836 
  54   0.0000       4.339495       118.0837 
  55   0.0000       4.339501       118.0838 
  56   0.0000       4.339505       118.0839 
  57   0.0000       4.339506       118.0840 
  58   0.0000       4.339508       118.0840 
  59   0.0000       4.339509       118.0840 
  60   0.0000       4.847416       131.9049 
  61   0.0000       4.847416       131.9049 
  62   0.0000       4.847431       131.9053 
  63   0.0000       4.847446       131.9057 
  64   0.0000       4.847451       131.9058 
  65   0.0000       4.847472       131.9064 
  66   0.0000       4.847472       131.9064 

                 SPIN DOWN ORBITALS
  NO   OCC          E(Eh)            E(eV) 
   0   1.0000    -196.584135     -5349.3263 
   1   1.0000     -22.025361      -599.3405 
   2   1.0000     -18.531035      -504.2551 
   3   1.0000     -18.531032      -504.2550 
   4   1.0000     -18.531018      -504.2546 
   5   1.0000      -2.429119       -66.0997 
   6   1.0000      -1.456610       -39.6364 
   7   1.0000      -1.456608       -39.6363 
   8   1.0000      -1.456558       -39.6350 
   9   0.0000       0.061631         1.6771 
  10   0.0000       0.070439         1.9168 
  11   0.0000       0.070459         1.9173 
  12   0.0000       0.070551         1.9198 
  13   0.0000       0.211764         5.7624 
  14   0.0000       0.211765         5.7624 
  15   0.0000       0.211895         5.7659 
  16   0.0000       0.211910         5.7664 
  17   0.0000       0.211917         5.7666 
  18   0.0000       0.215096         5.8531 
  19   0.0000       0.215122         5.8538 
  20   0.0000       0.215153         5.8546 
  21   0.0000       0.246409         6.7051 
  22   0.0000       0.326714         8.8903 
  23   0.0000       0.326716         8.8904 
  24   0.0000       0.326821         8.8933 
  25   0.0000       0.326848         8.8940 
  26   0.0000       0.326879         8.8948 
  27   0.0000       0.578035        15.7291 
  28   0.0000       0.578053        15.7296 
  29   0.0000       0.578192        15.7334 
  30   0.0000       0.887171        24.1411 
  31   0.0000       0.887171        24.1412 
  32   0.0000       0.887251        24.1433 
  33   0.0000       0.887254        24.1434 
  34   0.0000       0.887280        24.1441 
  35   0.0000       1.380164        37.5562 
  36   0.0000       1.380164        37.5562 
  37   0.0000       1.380202        37.5572 
  38   0.0000       1.380205        37.5573 
  39   0.0000       1.380223        37.5578 
  40   0.0000       1.380241        37.5583 
  41   0.0000       1.380244        37.5584 
  42   0.0000       2.019472        54.9526 
  43   0.0000       2.019476        54.9527 
  44   0.0000       2.019564        54.9551 
  45   0.0000       2.205645        60.0187 
  46   0.0000       2.764552        75.2273 
  47   0.0000       2.764553        75.2273 
  48   0.0000       2.764582        75.2281 
  49   0.0000       2.764586        75.2282 
  50   0.0000       2.764630        75.2294 
  51   0.0000       4.433687       120.6467 
  52   0.0000       4.433687       120.6467 
  53   0.0000       4.433698       120.6471 
  54   0.0000       4.433698       120.6471 
  55   0.0000       4.433728       120.6479 
  56   0.0000       4.433730       120.6479 
  57   0.0000       4.433751       120.6485 
  58   0.0000       4.433765       120.6489 
  59   0.0000       4.433770       120.6490 
  60   0.0000       4.969646       135.2309 
  61   0.0000       4.969646       135.2309 
  62   0.0000       4.969660       135.2313 
  63   0.0000       4.969660       135.2313 
  64   0.0000       4.969700       135.2324 
  65   0.0000       4.969704       135.2325 
  66   0.0000       4.969731       135.2333 

                    ********************************
                    * MULLIKEN POPULATION ANALYSIS *
                    ********************************

--------------------------------------------
MULLIKEN ATOMIC CHARGES AND SPIN POPULATIONS
--------------------------------------------
   0 V :   -0.000000    5.000000
Sum of atomic charges         :   -0.0000000
Sum of atomic spin populations:    5.0000000

-----------------------------------------------------
MULLIKEN REDUCED ORBITAL CHARGES AND SPIN POPULATIONS
-----------------------------------------------------
CHARGE
  0 V s       :     6.000006  s :     6.000006
      pz      :     4.000000  p :    12.000000
      px      :     4.000000
      py      :     4.000000
      dz2     :     0.999996  d :     4.999994
      dxz     :     0.999999
      dyz     :     0.999999
      dx2y2   :     1.000000
      dxy     :     1.000000
      f0      :     0.000000  f :     0.000000
      f+1     :     0.000000
      f-1     :     0.000000
      f+2     :     0.000000
      f-2     :     0.000000
      f+3     :     0.000000
      f-3     :     0.000000
      g0      :     0.000000  g :     0.000000
      g+1     :     0.000000
      g-1     :     0.000000
      g+2     :     0.000000
      g-2     :     0.000000
      g+3     :     0.000000
      g-3     :     0.000000
      g+4     :     0.000000
      g-4     :     0.000000

SPIN
  0 V s       :     0.000006  s :     0.000006
      pz      :     0.000000  p :     0.000000
      px      :    -0.000000
      py      :    -0.000000
      dz2     :     0.999996  d :     4.999994
      dxz     :     0.999999
      dyz     :     0.999999
      dx2y2   :     1.000000
      dxy     :     1.000000
      f0      :    -0.000000  f :    -0.000000
      f+1     :     0.000000
      f-1     :     0.000000
      f+2     :     0.000000
      f-2     :     0.000000
      f+3     :    -0.000000
      f-3     :    -0.000000
      g0      :     0.000000  g :     0.000000
      g+1     :     0.000000
      g-1     :     0.000000
      g+2     :     0.000000
      g-2     :     0.000000
      g+3     :     0.000000
      g-3     :     0.000000
      g+4     :     0.000000
      g-4     :     0.000000


                     *******************************
                     * LOEWDIN POPULATION ANALYSIS *
                     *******************************

-------------------------------------------
LOEWDIN ATOMIC CHARGES AND SPIN POPULATIONS
-------------------------------------------
   0 V :   -0.000000    5.000000

----------------------------------------------------
LOEWDIN REDUCED ORBITAL CHARGES AND SPIN POPULATIONS
----------------------------------------------------
CHARGE
  0 V s       :     6.000006  s :     6.000006
      pz      :     4.000000  p :    12.000000
      px      :     4.000000
      py      :     4.000000
      dz2     :     0.999996  d :     4.999994
      dxz     :     0.999999
      dyz     :     0.999999
      dx2y2   :     1.000000
      dxy     :     1.000000
      f0      :     0.000000  f :     0.000000
      f+1     :     0.000000
      f-1     :     0.000000
      f+2     :     0.000000
      f-2     :     0.000000
      f+3     :     0.000000
      f-3     :     0.000000
      g0      :     0.000000  g :     0.000000
      g+1     :     0.000000
      g-1     :     0.000000
      g+2     :     0.000000
      g-2     :     0.000000
      g+3     :     0.000000
      g-3     :     0.000000
      g+4     :     0.000000
      g-4     :     0.000000

SPIN
  0 V s       :     0.000006  s :     0.000006
      pz      :     0.000000  p :     0.000000
      px      :    -0.000000
      py      :    -0.000000
      dz2     :     0.999996  d :     4.999994
      dxz     :     0.999999
      dyz     :     0.999999
      dx2y2   :     1.000000
      dxy     :     1.000000
      f0      :    -0.000000  f :    -0.000000
      f+1     :     0.000000
      f-1     :     0.000000
      f+2     :     0.000000
      f-2     :     0.000000
      f+3     :    -0.000000
      f-3     :    -0.000000
      g0      :     0.000000  g :     0.000000
      g+1     :     0.000000
      g-1     :     0.000000
      g+2     :     0.000000
      g-2     :     0.000000
      g+3     :     0.000000
      g-3     :     0.000000
      g+4     :     0.000000
      g-4     :     0.000000


                      *****************************
                      * MAYER POPULATION ANALYSIS *
                      *****************************

  NA   - Mulliken gross atomic population
  ZA   - Total nuclear charge
  QA   - Mulliken gross atomic charge
  VA   - Mayer's total valence
  BVA  - Mayer's bonded valence
  FA   - Mayer's free valence

  ATOM       NA         ZA         QA         VA         BVA        FA
  0 V     23.0000    23.0000    -0.0000     5.0002     0.0000     5.0002

  Mayer bond orders larger than 0.100000


-------
TIMINGS
-------

Total SCF time: 0 days 0 hours 3 min 5 sec 

Total time                  ....     185.937 sec
Sum of individual times     ....     184.220 sec  ( 99.1%)

Fock matrix formation       ....     177.346 sec  ( 95.4%)
  XC integration            ....     164.453 sec  ( 92.7% of F)
    Basis function eval.    ....       0.029 sec  (  0.0% of XC)
    Density eval.           ....       0.032 sec  (  0.0% of XC)
    XC-Functional eval.     ....       0.056 sec  (  0.0% of XC)
    XC-Potential eval.      ....       0.048 sec  (  0.0% of XC)
Diagonalization             ....       2.498 sec  (  1.3%)
Density matrix formation    ....       0.014 sec  (  0.0%)
Population analysis         ....       0.066 sec  (  0.0%)
Initial guess               ....       0.931 sec  (  0.5%)
Orbital Transformation      ....       0.000 sec  (  0.0%)
Orbital Orthonormalization  ....       0.000 sec  (  0.0%)
DIIS solution               ....       0.500 sec  (  0.3%)
Grid generation             ....       2.864 sec  (  1.5%)

-------------------------   --------------------
FINAL SINGLE POINT ENERGY      -943.680980005658
-------------------------   --------------------


----------------------------------------------------------------------------
                           ORCA NUMERICAL GRADIENT
                              (28-process run)
----------------------------------------------------------------------------

I state                        ... 1
J state                        ... 0
Number of atoms                ... 1
Derivative's order of accuracy ... 2
Central differences            ... used
Number of displacements        ... 6
Numerical increment            ... 5.000e-03 bohr
Translation invariance         ... used

The output will be reduced. Please look at the following files:
SCF program output             ... >V.in.lastscf
Integral program output        ... >V.in.lastint
Gradient program output        ... >V.in.lastgrad


     Note:   There are more processes than displacements to do
     ===>:   Reducing number of processes to   0


------------------------------
CARTESIAN GRADIENT (NUMERICAL)
-------------------------------
   1   V   :    0.000000000    0.000000000    0.000000000

Norm of the cartesian gradient     ...    0.000000000
RMS gradient                       ...    0.000000000
MAX gradient                       ...    0.000000000
*** glibc detected *** /mnt/storage/software/apps/orca-4.2.0/orca_4_2_0_linux_x86-64_openmpi314/orca: free(): invalid next size (fast): 0x000000000d43be60 ***
======= Backtrace: =========
[0xb0928aa]
[0xb09567c]
[0x76d903]
[0x76fb95]
[0x915b4f]
[0x918f24]
[0x487649]
[0xb05c99e]
[0x4870d9]
======= Memory map: ========
00400000-0bf42000 r-xp 00000000 00:2b 4876154                            /mnt/storage/software/apps/orca-4.2.0/orca_4_2_0_linux_x86-64_openmpi314/orca
0c141000-0c203000 rw-p 0bb41000 00:2b 4876154                            /mnt/storage/software/apps/orca-4.2.0/orca_4_2_0_linux_x86-64_openmpi314/orca
0c203000-0c77a000 rw-p 00000000 00:00 0 
0d1f8000-0d467000 rw-p 00000000 00:00 0                                  [heap]
2b47dd467000-2b47ddc68000 rw-p 00000000 00:00 0 
2b47de467000-2b47e0b2a000 rw-p 00000000 00:00 0 
2b47e4000000-2b47e40b3000 rw-p 00000000 00:00 0 
2b47e40b3000-2b47e8000000 ---p 00000000 00:00 0 
7ffc5d59f000-7ffc5d6a0000 rw-p 00000000 00:00 0                          [stack]
7ffc5d787000-7ffc5d789000 r-xp 00000000 00:00 0                          [vdso]
ffffffffff600000-ffffffffff601000 r-xp 00000000 00:00 0                  [vsyscall]
