
                                 *****************
                                 * O   R   C   A *
                                 *****************

           --- An Ab Initio, DFT and Semiempirical electronic structure package ---

                  #######################################################
                  #                        -***-                        #
                  #          Department of theory and spectroscopy      #
                  #               Directorship: Frank Neese             #
                  #        Max Planck Institute fuer Kohlenforschung    #
                  #                Kaiser Wilhelm Platz 1               #
                  #                 D-45470 Muelheim/Ruhr               #
                  #                      Germany                        #
                  #                                                     #
                  #                  All rights reserved                #
                  #                        -***-                        #
                  #######################################################


                         Program Version 4.2.0 -  RELEASE  -


 With contributions from (in alphabetic order):
   Daniel Aravena         : Magnetic Suceptibility
   Michael Atanasov       : Ab Initio Ligand Field Theory (pilot matlab implementation)
   Alexander A. Auer      : GIAO ZORA, VPT2
   Ute Becker             : Parallelization
   Giovanni Bistoni       : ED, misc. LED, open-shell LED, HFLED
   Martin Brehm           : Molecular dynamics
   Dmytro Bykov           : SCF Hessian
   Vijay G. Chilkuri      : MRCI spin determinant printing, contributions to CSF-ICE
   Dipayan Datta          : RHF DLPNO-CCSD density
   Achintya Kumar Dutta   : EOM-CC, STEOM-CC
   Dmitry Ganyushin       : Spin-Orbit,Spin-Spin,Magnetic field MRCI
   Miquel Garcia          : C-PCM Hessian, Gaussian charge scheme
   Yang Guo               : DLPNO-NEVPT2, CIM, IAO-localization
   Andreas Hansen         : Spin unrestricted coupled pair/coupled cluster methods
   Benjamin Helmich-Paris : CASSCF linear response (MC-RPA)
   Lee Huntington         : MR-EOM, pCC
   Robert Izsak           : Overlap fitted RIJCOSX, COSX-SCS-MP3, EOM
   Christian Kollmar      : KDIIS, OOCD, Brueckner-CCSD(T), CCSD density
   Simone Kossmann        : Meta GGA functionals, TD-DFT gradient, OOMP2, MP2 Hessian
   Martin Krupicka        : AUTO-CI
   Lucas Lang             : DCDCAS
   Dagmar Lenk            : GEPOL surface, SMD
   Dimitrios Liakos       : Extrapolation schemes; Compound Job, initial MDCI parallelization
   Dimitrios Manganas     : Further ROCIS development; embedding schemes
   Dimitrios Pantazis     : SARC Basis sets
   Taras Petrenko         : DFT Hessian,TD-DFT gradient, ASA, ECA, R-Raman, ABS, FL, XAS/XES, NRVS
   Peter Pinski           : DLPNO-MP2, DLPNO-MP2 Gradient
   Christoph Reimann      : Effective Core Potentials
   Marius Retegan         : Local ZFS, SOC
   Christoph Riplinger    : Optimizer, TS searches, QM/MM, DLPNO-CCSD(T), (RO)-DLPNO pert. Triples
   Tobias Risthaus        : Range-separated hybrids, TD-DFT gradient, RPA, STAB
   Michael Roemelt        : Original ROCIS implementation
   Masaaki Saitow         : Open-shell DLPNO-CCSD energy and density
   Barbara Sandhoefer     : DKH picture change effects
   Avijit Sen             : IP-ROCIS
   Kantharuban Sivalingam : CASSCF convergence, NEVPT2, FIC-MRCI
   Bernardo de Souza      : ESD, SOC TD-DFT
   Georgi Stoychev        : AutoAux, RI-MP2 NMR
   Willem Van den Heuvel  : Paramagnetic NMR
   Boris Wezisla          : Elementary symmetry handling
   Frank Wennmohs         : Technical directorship


 We gratefully acknowledge several colleagues who have allowed us to
 interface, adapt or use parts of their codes:
   Stefan Grimme, W. Hujo, H. Kruse,             : VdW corrections, initial TS optimization,
                  C. Bannwarth                     DFT functionals, gCP, sTDA/sTD-DF
   Ed Valeev, F. Pavosevic, A. Kumar             : LibInt (2-el integral package), F12 methods
   Garnet Chan, S. Sharma, J. Yang, R. Olivares  : DMRG
   Ulf Ekstrom                                   : XCFun DFT Library
   Mihaly Kallay                                 : mrcc  (arbitrary order and MRCC methods)
   Andreas Klamt, Michael Diedenhofen            : otool_cosmo (COSMO solvation model)
   Jiri Pittner, Ondrej Demel                    : Mk-CCSD
   Frank Weinhold                                : gennbo (NPA and NBO analysis)
   Christopher J. Cramer and Donald G. Truhlar   : smd solvation model
   Lars Goerigk                                  : TD-DFT with DH, B97 family of functionals
   V. Asgeirsson, H. Jonsson                     : NEB implementation
   FAccTs GmbH                                   : IRC, NEB, NEB-TS, Multilevel, MM, QM/MM, CI optimization
   S Lehtola, MJT Oliveira, MAL Marques          : LibXC Library


 Your calculation uses the libint2 library for the computation of 2-el integrals
 For citations please refer to: http://libint.valeyev.net

 Your ORCA version has been built with support for libXC version: 4.2.3
 For citations please refer to: https://tddft.org/programs/libxc/

 This ORCA versions uses:
   CBLAS   interface :  Fast vector & matrix operations
   LAPACKE interface :  Fast linear algebra routines
   SCALAPACK package :  Parallel linear algebra routines


Your calculation utilizes the DFT-NL dispersion correction.
Cite in your paper:
Vydrov, O. A.; Van Voorhis, T. J. Chem. Phys. 2010, 133, 244103
Hujo, W.; Grimme, S. J. Chem. Theory Comput. 2011, 7, 3866 
   

----- Orbital basis set information -----
Your calculation utilizes the basis: def2-TZVPPD
   F. Weigend and R. Ahlrichs, Phys. Chem. Chem. Phys. 7, 3297 (2005).
   D. Rappoport and F. Furche, J. Chem. Phys. 133 134105 (2010).

----- AuxJK basis set information -----
Your calculation utilizes the auxiliary basis: def2/JK
   H-Ba, Hf-Rn: F. Weigend, J. Comput. Chem. 29, 167 (2008).

================================================================================
                                        WARNINGS
                       Please study these warnings very carefully!
================================================================================

INFO   : Found keyword 'NumGrad' for Energy calculation
  ===> : Setting RunTyp to EnGrad

WARNING: Numerical Gradient with sloppy Convergence Criteria    
         Your results may be not reliable!                      
         Please choose at least TightSCF!                       

WARNING: your system is open-shell and RHF/RKS was chosen
  ===> : WILL SWITCH to UHF/UKS


INFO   : the flag for use of LIBINT has been found!

================================================================================
                                       INPUT FILE
================================================================================
NAME = V2.in
|  1> #
|  2> # V2 wB97X-V/Def2-TZVPPD
|  3> #
|  4> ! wb97x-v def2-tzvppd def2/jk grid4 nofinalgrid numgrad
|  5> 
|  6> *xyz 0 3
|  7> V          0.00000        0.00000        0.00000
|  8> V          0.00000        0.00000        1.77000
|  9> *
| 10> 
| 11> %maxcore 5000
| 12> 
| 13> %pal
| 14> nprocs = 28
| 15> end
| 16> 
| 17> 
| 18>                          ****END OF INPUT****
================================================================================

                     *******************************
                     * Energy+Gradient Calculation *
                     *******************************

---------------------------------
CARTESIAN COORDINATES (ANGSTROEM)
---------------------------------
  V      0.000000    0.000000    0.000000
  V      0.000000    0.000000    1.770000

----------------------------
CARTESIAN COORDINATES (A.U.)
----------------------------
  NO LB      ZA    FRAG     MASS         X           Y           Z
   0 V    23.0000    0    50.940    0.000000    0.000000    0.000000
   1 V    23.0000    0    50.940    0.000000    0.000000    3.344815

--------------------------------
INTERNAL COORDINATES (ANGSTROEM)
--------------------------------
 V      0   0   0     0.000000000000     0.00000000     0.00000000
 V      1   0   0     1.770000000000     0.00000000     0.00000000

---------------------------
INTERNAL COORDINATES (A.U.)
---------------------------
 V      0   0   0     0.000000000000     0.00000000     0.00000000
 V      1   0   0     3.344815257041     0.00000000     0.00000000

---------------------
BASIS SET INFORMATION
---------------------
There are 1 groups of distinct atoms

 Group   1 Type V   : 17s13p7d2f1g contracted to 6s6p4d2f1g pattern {842111/631111/4111/11/1}

Atom   0V    basis set group =>   1
Atom   1V    basis set group =>   1
----------------------------------
AUXILIARY/JK BASIS SET INFORMATION
----------------------------------
There are 1 groups of distinct atoms

 Group   1 Type V   : 19s14p12d10f7g3h1i contracted to 16s13p11d9f5g3h1i pattern {4111111111111111/2111111111111/21111111111/211111111/31111/111/1}

Atom   0V    basis set group =>   1
Atom   1V    basis set group =>   1


           ************************************************************
           *        Program running with 28 parallel MPI-processes    *
           *              working on a common directory               *
           ************************************************************
------------------------------------------------------------------------------
                           ORCA GTO INTEGRAL CALCULATION
------------------------------------------------------------------------------

                         BASIS SET STATISTICS AND STARTUP INFO

 # of primitive gaussian shells          ...   80
 # of primitive gaussian functions       ...  228
 # of contracted shells                  ...   38
 # of contracted basis functions         ...  134
 Highest angular momentum                ...    4
 Maximum contraction depth               ...    8
 Integral package used                   ... LIBINT
 Integral threshhold            Thresh   ...  1.000e-10
 Primitive cut-off              TCut     ...  1.000e-11


------------------------------ INTEGRAL EVALUATION ----------------------------


 * One electron integrals 
 Pre-screening matrix                    ... done
 Shell pair data                         ... done (   0.000 sec)



           ************************************************************
           *        Program running with 28 parallel MPI-processes    *
           *              working on a common directory               *
           ************************************************************
-------------------------------------------------------------------------------
                                 ORCA SCF
-------------------------------------------------------------------------------

------------
SCF SETTINGS
------------
Hamiltonian:
 Density Functional     Method          .... DFT(GTOs)
 Exchange Functional    Exchange        .... WB97X-V
 Correlation Functional Correlation     .... WB97X-V
 Gradients option       PostSCFGGA      .... off
 Hybrid DFT is turned on
   Fraction HF Exchange ScalHFX         ....  0.167000
   Scaling of DF-GGA-X  ScalDFX         ....  0.000000
   Scaling of DF-GGA-C  ScalDFC         ....  1.000000
   Scaling of DF-LDA-C  ScalLDAC        ....  1.000000
   Perturbative correction              ....  0.000000
   Density functional embedding theory  .... OFF
 Long-range corrected/Screened/Range-Separated Hybrid DFT is turned on
   Amount of maximum screened exact exchange              ....  0.833000
   Range separation parameter mu (erf(mu*r12)/r12)        ....  0.300000
   NL short-range parameter             ....  6.000000
   NL long-range parameter              ....  0.010000


General Settings:
 Integral files         IntName         .... V2
 Hartree-Fock type      HFTyp           .... UHF
 Total Charge           Charge          ....    0
 Multiplicity           Mult            ....    3
 Number of Electrons    NEL             ....   46
 Basis Dimension        Dim             ....  134
 Nuclear Repulsion      ENuc            ....    158.1552221416 Eh

Convergence Acceleration:
 DIIS                   CNVDIIS         .... on
   Start iteration      DIISMaxIt       ....    12
   Startup error        DIISStart       ....  0.200000
   # of expansion vecs  DIISMaxEq       ....     5
   Bias factor          DIISBfac        ....   1.050
   Max. coefficient     DIISMaxC        ....  10.000
 Newton-Raphson         CNVNR           .... off
 SOSCF                  CNVSOSCF        .... off
 Level Shifting         CNVShift        .... on
   Level shift para.    LevelShift      ....    0.2500
   Turn off err/grad.   ShiftErr        ....    0.0010
 Zerner damping         CNVZerner       .... off
 Static damping         CNVDamp         .... on
   Fraction old density DampFac         ....    0.7000
   Max. Damping (<1)    DampMax         ....    0.9800
   Min. Damping (>=0)   DampMin         ....    0.0000
   Turn off err/grad.   DampErr         ....    0.1000
 Fernandez-Rico         CNVRico         .... off

SCF Procedure:
 Maximum # iterations   MaxIter         ....   125
 SCF integral mode      SCFMode         .... Direct
   Integral package                     .... LIBINT
 Reset frequency        DirectResetFreq ....    20
 Integral Threshold     Thresh          ....  1.000e-10 Eh
 Primitive CutOff       TCut            ....  1.000e-11 Eh

Convergence Tolerance:
 Convergence Check Mode ConvCheckMode   .... Total+1el-Energy
 Convergence forced     ConvForced      .... 0
 Energy Change          TolE            ....  1.000e-06 Eh
 1-El. energy change                    ....  1.000e-03 Eh
 DIIS Error             TolErr          ....  1.000e-06


Diagonalization of the overlap matrix:
Smallest eigenvalue                        ... 7.006e-05
Time for diagonalization                   ...    0.003 sec
Threshold for overlap eigenvalues          ... 1.000e-08
Number of eigenvalues below threshold      ... 0
Time for construction of square roots      ...    0.110 sec
Total time needed                          ...    0.113 sec

-------------------
DFT GRID GENERATION
-------------------

General Integration Accuracy     IntAcc      ...  4.670
Radial Grid Type                 RadialGrid  ... Gauss-Chebyshev
Angular Grid (max. acc.)         AngularGrid ... Lebedev-302
Angular grid pruning method      GridPruning ... 3 (G Style)
Weight generation scheme         WeightScheme... Becke
Basis function cutoff            BFCut       ...    1.0000e-10
Integration weight cutoff        WCut        ...    1.0000e-14
Grids for H and He will be reduced by one unit

# of grid points (after initial pruning)     ...  19328 (   0.0 sec)
# of grid points (after weights+screening)   ...  19286 (   0.0 sec)
nearest neighbour list constructed           ...    0.0 sec
Grid point re-assignment to atoms done       ...    0.0 sec
Grid point division into batches done        ...    0.2 sec
Reduced shell lists constructed in    0.2 sec

Total number of grid points                  ...    19286
Total number of batches                      ...      302
Average number of points per batch           ...       63
Average number of grid points per atom       ...     9643
Average number of shells per batch           ...     7.67 (20.18%)
Average number of basis functions per batch  ...    21.83 (16.29%)
Average number of large shells per batch     ...     6.25 (81.52%)
Average number of large basis fcns per batch ...    17.92 (82.06%)
Maximum spatial batch extension              ...  24.19, 24.19, 15.73 au
Average spatial batch extension              ...   0.70,  0.70,  0.51 au

Time for grid setup =    2.805 sec

------------------------------
INITIAL GUESS: MODEL POTENTIAL
------------------------------
Loading Hartree-Fock densities                     ... done
Calculating cut-offs                               ... done
Setting up the integral package                    ... done
Initializing the effective Hamiltonian             ... done
Starting the Coulomb interaction                   ... done (   0.0 sec)
Reading the grid                                   ... done
Mapping shells                                     ... done
Starting the XC term evaluation                    ... done (   0.0 sec)
  promolecular density results
     # of electrons  =     45.999999476
     EX              =    -66.905228498
     EC              =     -2.598904662
     EX+EC           =    -69.504133161
Transforming the Hamiltonian                       ... done (   0.1 sec)
Diagonalizing the Hamiltonian                      ... done (   0.0 sec)
Back transforming the eigenvectors                 ... done (   0.0 sec)
Now organizing SCF variables                       ... done
                      ------------------
                      INITIAL GUESS DONE (   3.8 sec)
                      ------------------
--------------
SCF ITERATIONS
--------------
ITER       Energy         Delta-E        Max-DP      RMS-DP      [F,P]     Damp
               ***  Starting incremental Fock matrix formation  ***
  0  -1887.5920255056   0.000000000000 0.02672961  0.00100840  0.1252349 0.7000
  1  -1887.6392397363  -0.047214230699 0.01693408  0.00062208  0.0796256 0.7000
                               ***Turning on DIIS***
  2  -1887.6633346492  -0.024094912911 0.03362863  0.00116638  0.0507075 0.0000
  3  -1887.7064819255  -0.043147276300 0.01050523  0.00037970  0.0310142 0.0000
  4  -1887.7109653883  -0.004483462880 0.00279778  0.00009956  0.0053561 0.0000
  5  -1887.7112108499  -0.000245461596 0.00155253  0.00004646  0.0022243 0.0000
  6  -1887.7113003607  -0.000089510731 0.00156991  0.00004602  0.0013072 0.0000
  7  -1887.7113581209  -0.000057760237 0.00153042  0.00004704  0.0008498 0.0000
  8  -1887.7113868820  -0.000028761057 0.00029232  0.00001009  0.0002161 0.0000
  9  -1887.7113888430  -0.000001960989 0.00012270  0.00000478  0.0000545 0.0000
 10  -1887.7113892002  -0.000000357285 0.00005326  0.00000158  0.0000313 0.0000
                 **** Energy Check signals convergence ****

               *****************************************************
               *                     SUCCESS                       *
               *           SCF CONVERGED AFTER  11 CYCLES          *
               *****************************************************


Setting up the DFT-NL grid :

General Integration Accuracy     IntAcc      ...  4.340
Radial Grid Type                 RadialGrid  ... Gauss-Chebyshev
Angular Grid (max. acc.)         AngularGrid ... Lebedev-110
Angular grid pruning method      GridPruning ... 3 (G Style)
Weight generation scheme         WeightScheme... Becke
Basis function cutoff            BFCut       ...    1.0000e-10
Integration weight cutoff        WCut        ...    1.0000e-14
Grids for H and He will be reduced by one unit

# of grid points (after initial pruning)     ...   5944 (   0.0 sec)
# of grid points (after weights+screening)   ...   5914 (   0.0 sec)
nearest neighbour list constructed           ...    0.0 sec
Grid point re-assignment to atoms done       ...    0.0 sec
Grid point division into batches done        ...    0.0 sec
Reduced shell lists constructed in    0.0 sec

Total number of grid points                  ...     5914
Total number of batches                      ...       94
Average number of points per batch           ...       62
Average number of grid points per atom       ...     2957
Average number of shells per batch           ...    11.40 (30.00%)
Average number of basis functions per batch  ...    35.00 (26.12%)
Average number of large shells per batch     ...    10.60 (92.98%)
Average number of large basis fcns per batch ...    30.60 (87.43%)
Maximum spatial batch extension              ...  23.80, 28.73, 16.84 au
Average spatial batch extension              ...   0.81,  1.01,  0.72 au

Final grid set up in    1.3 sec

-------------------------------------------------------------------------------
                         DFT-NL dispersion correction                          
-------------------------------------------------------------------------------

SC Energy -1887.711389252 
NL    Energy 0.189378715 
SC+NL Energy -1887.522010537 
NL done in    1.3 sec
-------------------------------------------------------------------------------

----------------
TOTAL SCF ENERGY
----------------

Total Energy       :        -1887.52201054 Eh          -51362.08510 eV

Components:
Nuclear Repulsion  :          158.15522214 Eh            4303.62239 eV
Electronic Energy  :        -2045.67723268 Eh          -55665.70749 eV
One Electron Energy:        -2908.86335644 Eh          -79154.19605 eV
Two Electron Energy:          863.18612376 Eh           23488.48856 eV

Virial components:
Potential Energy   :        -3771.86109781 Eh         -102637.55846 eV
Kinetic Energy     :         1884.33908727 Eh           51275.47336 eV
Virial Ratio       :            2.00168915


DFT components:
N(Alpha)           :       24.000002635412 electrons
N(Beta)            :       22.000001346698 electrons
N(Total)           :       46.000003982109 electrons
E(X)               :      -67.033149296161 Eh       
E(C)               :       -2.613051530700 Eh       
NL Energy, E(C,NL) :        0.189378715230 Eh       
E(XC)              :      -69.456822111632 Eh       
DFET-embed. en.    :        0.000000000000 Eh       

---------------
SCF CONVERGENCE
---------------

  Last Energy change         ...   -5.2128e-08  Tolerance :   1.0000e-06
  Last MAX-Density change    ...    2.4889e-05  Tolerance :   1.0000e-05
  Last RMS-Density change    ...    5.6880e-07  Tolerance :   1.0000e-06
  Last DIIS Error            ...    7.6641e-05  Tolerance :   1.0000e-06

             **** THE GBW FILE WAS UPDATED (V2.gbw) ****
             **** DENSITY FILE WAS UPDATED (V2.scfp) ****
             **** ENERGY FILE WAS UPDATED (V2.en.tmp) ****
----------------------
UHF SPIN CONTAMINATION
----------------------

Warning: in a DFT calculation there is little theoretical justification to 
         calculate <S**2> as in Hartree-Fock theory. We will do it anyways
         but you should keep in mind that the values have only limited relevance

Expectation value of <S**2>     :     2.004508
Ideal value S*(S+1) for S=1.0   :     2.000000
Deviation                       :     0.004508

             **** THE GBW FILE WAS UPDATED (V2.gbw) ****
             **** DENSITY FILE WAS UPDATED (V2.scfp) ****
----------------
ORBITAL ENERGIES
----------------
                 SPIN UP ORBITALS
  NO   OCC          E(Eh)            E(eV) 
   0   1.0000    -196.761357     -5354.1487 
   1   1.0000    -196.761329     -5354.1480 
   2   1.0000     -22.258335      -605.6801 
   3   1.0000     -22.258263      -605.6781 
   4   1.0000     -18.761676      -510.5312 
   5   1.0000     -18.761676      -510.5312 
   6   1.0000     -18.761561      -510.5280 
   7   1.0000     -18.761561      -510.5280 
   8   1.0000     -18.745529      -510.0918 
   9   1.0000     -18.745411      -510.0886 
  10   1.0000      -2.730650       -74.3048 
  11   1.0000      -2.674154       -72.7674 
  12   1.0000      -1.802269       -49.0422 
  13   1.0000      -1.759144       -47.8687 
  14   1.0000      -1.759144       -47.8687 
  15   1.0000      -1.721501       -46.8444 
  16   1.0000      -1.721501       -46.8444 
  17   1.0000      -1.618340       -44.0373 
  18   1.0000      -0.314965        -8.5706 
  19   1.0000      -0.314965        -8.5706 
  20   1.0000      -0.296113        -8.0576 
  21   1.0000      -0.261886        -7.1263 
  22   1.0000      -0.261884        -7.1262 
  23   1.0000      -0.233941        -6.3659 
  24   0.0000      -0.013992        -0.3808 
  25   0.0000       0.010239         0.2786 
  26   0.0000       0.010239         0.2786 
  27   0.0000       0.039714         1.0807 
  28   0.0000       0.039716         1.0807 
  29   0.0000       0.054925         1.4946 
  30   0.0000       0.054925         1.4946 
  31   0.0000       0.056232         1.5301 
  32   0.0000       0.065122         1.7721 
  33   0.0000       0.113264         3.0821 
  34   0.0000       0.113264         3.0821 
  35   0.0000       0.115253         3.1362 
  36   0.0000       0.115253         3.1362 
  37   0.0000       0.115919         3.1543 
  38   0.0000       0.153383         4.1738 
  39   0.0000       0.171603         4.6696 
  40   0.0000       0.182841         4.9754 
  41   0.0000       0.182842         4.9754 
  42   0.0000       0.189249         5.1497 
  43   0.0000       0.229135         6.2351 
  44   0.0000       0.229135         6.2351 
  45   0.0000       0.232575         6.3287 
  46   0.0000       0.232575         6.3287 
  47   0.0000       0.240691         6.5495 
  48   0.0000       0.240691         6.5495 
  49   0.0000       0.266030         7.2390 
  50   0.0000       0.306322         8.3355 
  51   0.0000       0.306322         8.3355 
  52   0.0000       0.308826         8.4036 
  53   0.0000       0.457172        12.4403 
  54   0.0000       0.457172        12.4403 
  55   0.0000       0.466068        12.6824 
  56   0.0000       0.528742        14.3878 
  57   0.0000       0.559885        15.2352 
  58   0.0000       0.559885        15.2352 
  59   0.0000       0.696622        18.9561 
  60   0.0000       0.696623        18.9561 
  61   0.0000       0.736006        20.0277 
  62   0.0000       0.786269        21.3955 
  63   0.0000       0.786269        21.3955 
  64   0.0000       0.800287        21.7769 
  65   0.0000       0.800287        21.7769 
  66   0.0000       0.864513        23.5246 
  67   0.0000       0.883953        24.0536 
  68   0.0000       0.903179        24.5767 
  69   0.0000       0.903179        24.5767 
  70   0.0000       1.140650        31.0387 
  71   0.0000       1.140654        31.0388 
  72   0.0000       1.161013        31.5928 
  73   0.0000       1.161013        31.5928 
  74   0.0000       1.344305        36.5804 
  75   0.0000       1.344305        36.5804 
  76   0.0000       1.385905        37.7124 
  77   0.0000       1.385905        37.7124 
  78   0.0000       1.511392        41.1271 
  79   0.0000       1.521718        41.4080 
  80   0.0000       1.642212        44.6868 
  81   0.0000       1.642214        44.6869 
  82   0.0000       1.768900        48.1342 
  83   0.0000       1.840959        50.0950 
  84   0.0000       1.840959        50.0950 
  85   0.0000       1.849400        50.3247 
  86   0.0000       1.849400        50.3247 
  87   0.0000       2.038604        55.4732 
  88   0.0000       2.038604        55.4732 
  89   0.0000       2.136298        58.1316 
  90   0.0000       2.505454        68.1769 
  91   0.0000       2.505454        68.1769 
  92   0.0000       2.518980        68.5449 
  93   0.0000       2.518980        68.5449 
  94   0.0000       2.528954        68.8163 
  95   0.0000       2.598307        70.7035 
  96   0.0000       2.598309        70.7036 
  97   0.0000       2.647154        72.0327 
  98   0.0000       2.877037        78.2882 
  99   0.0000       2.900448        78.9252 
 100   0.0000       2.900448        78.9252 
 101   0.0000       3.774222       102.7018 
 102   0.0000       3.953677       107.5850 
 103   0.0000       3.953689       107.5854 
 104   0.0000       4.029150       109.6388 
 105   0.0000       4.029150       109.6388 
 106   0.0000       4.108080       111.7865 
 107   0.0000       4.108080       111.7865 
 108   0.0000       4.111092       111.8685 
 109   0.0000       4.226403       115.0063 
 110   0.0000       4.226414       115.0066 
 111   0.0000       4.263166       116.0066 
 112   0.0000       4.263177       116.0069 
 113   0.0000       4.405359       119.8759 
 114   0.0000       4.405359       119.8759 
 115   0.0000       4.689822       127.6165 
 116   0.0000       4.689822       127.6165 
 117   0.0000       4.697972       127.8383 
 118   0.0000       4.697989       127.8388 
 119   0.0000       4.747631       129.1896 
 120   0.0000       4.752426       129.3201 
 121   0.0000       4.752426       129.3201 
 122   0.0000       4.754679       129.3814 
 123   0.0000       4.754688       129.3816 
 124   0.0000       4.916195       133.7765 
 125   0.0000       4.916195       133.7765 
 126   0.0000       5.049516       137.4043 
 127   0.0000       5.049525       137.4046 
 128   0.0000       5.115441       139.1982 
 129   0.0000       5.115441       139.1982 
 130   0.0000       5.545788       150.9086 
 131   0.0000       5.545788       150.9086 
 132   0.0000       5.621881       152.9792 
 133   0.0000       5.708282       155.3303 

                 SPIN DOWN ORBITALS
  NO   OCC          E(Eh)            E(eV) 
   0   1.0000    -196.761295     -5354.1470 
   1   1.0000    -196.761267     -5354.1463 
   2   1.0000     -22.248912      -605.4237 
   3   1.0000     -22.248838      -605.4217 
   4   1.0000     -18.751082      -510.2429 
   5   1.0000     -18.751082      -510.2429 
   6   1.0000     -18.751042      -510.2418 
   7   1.0000     -18.751042      -510.2418 
   8   1.0000     -18.743332      -510.0320 
   9   1.0000     -18.743214      -510.0288 
  10   1.0000      -2.701021       -73.4985 
  11   1.0000      -2.643229       -71.9259 
  12   1.0000      -1.793357       -48.7997 
  13   1.0000      -1.710262       -46.5386 
  14   1.0000      -1.710262       -46.5386 
  15   1.0000      -1.677142       -45.6374 
  16   1.0000      -1.677142       -45.6374 
  17   1.0000      -1.609008       -43.7833 
  18   1.0000      -0.297072        -8.0837 
  19   1.0000      -0.297072        -8.0837 
  20   1.0000      -0.276613        -7.5270 
  21   1.0000      -0.221604        -6.0302 
  22   0.0000      -0.014912        -0.4058 
  23   0.0000       0.014413         0.3922 
  24   0.0000       0.014413         0.3922 
  25   0.0000       0.039800         1.0830 
  26   0.0000       0.039801         1.0830 
  27   0.0000       0.056302         1.5321 
  28   0.0000       0.056302         1.5321 
  29   0.0000       0.058123         1.5816 
  30   0.0000       0.065331         1.7777 
  31   0.0000       0.119567         3.2536 
  32   0.0000       0.119568         3.2536 
  33   0.0000       0.119744         3.2584 
  34   0.0000       0.119744         3.2584 
  35   0.0000       0.119895         3.2625 
  36   0.0000       0.119895         3.2625 
  37   0.0000       0.126724         3.4483 
  38   0.0000       0.158209         4.3051 
  39   0.0000       0.175046         4.7633 
  40   0.0000       0.190691         5.1890 
  41   0.0000       0.198660         5.4058 
  42   0.0000       0.198661         5.4058 
  43   0.0000       0.234091         6.3699 
  44   0.0000       0.234091         6.3699 
  45   0.0000       0.236424         6.4334 
  46   0.0000       0.236424         6.4334 
  47   0.0000       0.247558         6.7364 
  48   0.0000       0.247559         6.7364 
  49   0.0000       0.271856         7.3976 
  50   0.0000       0.307117         8.3571 
  51   0.0000       0.307117         8.3571 
  52   0.0000       0.310190         8.4407 
  53   0.0000       0.465678        12.6717 
  54   0.0000       0.465678        12.6717 
  55   0.0000       0.468993        12.7620 
  56   0.0000       0.533117        14.5069 
  57   0.0000       0.568650        15.4738 
  58   0.0000       0.568650        15.4738 
  59   0.0000       0.718475        19.5507 
  60   0.0000       0.718476        19.5507 
  61   0.0000       0.742727        20.2106 
  62   0.0000       0.793703        21.5977 
  63   0.0000       0.793703        21.5977 
  64   0.0000       0.813752        22.1433 
  65   0.0000       0.813752        22.1433 
  66   0.0000       0.869464        23.6593 
  67   0.0000       0.887637        24.1538 
  68   0.0000       0.908450        24.7202 
  69   0.0000       0.908450        24.7202 
  70   0.0000       1.155409        31.4403 
  71   0.0000       1.155415        31.4404 
  72   0.0000       1.193884        32.4872 
  73   0.0000       1.193884        32.4872 
  74   0.0000       1.366534        37.1853 
  75   0.0000       1.366534        37.1853 
  76   0.0000       1.395920        37.9849 
  77   0.0000       1.395920        37.9849 
  78   0.0000       1.523910        41.4677 
  79   0.0000       1.533339        41.7243 
  80   0.0000       1.655019        45.0354 
  81   0.0000       1.655025        45.0355 
  82   0.0000       1.775916        48.3251 
  83   0.0000       1.861331        50.6494 
  84   0.0000       1.861331        50.6494 
  85   0.0000       1.873884        50.9910 
  86   0.0000       1.873884        50.9910 
  87   0.0000       2.045720        55.6669 
  88   0.0000       2.045720        55.6669 
  89   0.0000       2.142414        58.2980 
  90   0.0000       2.515632        68.4538 
  91   0.0000       2.515632        68.4538 
  92   0.0000       2.541291        69.1521 
  93   0.0000       2.550843        69.4120 
  94   0.0000       2.550849        69.4121 
  95   0.0000       2.631449        71.6054 
  96   0.0000       2.631455        71.6055 
  97   0.0000       2.671653        72.6994 
  98   0.0000       2.897262        78.8385 
  99   0.0000       2.918389        79.4134 
 100   0.0000       2.918389        79.4134 
 101   0.0000       3.784691       102.9867 
 102   0.0000       3.970460       108.0417 
 103   0.0000       3.970476       108.0422 
 104   0.0000       4.045092       110.0725 
 105   0.0000       4.045092       110.0725 
 106   0.0000       4.125193       112.2522 
 107   0.0000       4.129692       112.3746 
 108   0.0000       4.129692       112.3746 
 109   0.0000       4.262871       115.9986 
 110   0.0000       4.262894       115.9992 
 111   0.0000       4.299128       116.9852 
 112   0.0000       4.299151       116.9858 
 113   0.0000       4.428095       120.4946 
 114   0.0000       4.428095       120.4946 
 115   0.0000       4.717682       128.3746 
 116   0.0000       4.717696       128.3750 
 117   0.0000       4.734870       128.8424 
 118   0.0000       4.734870       128.8424 
 119   0.0000       4.763489       129.6211 
 120   0.0000       4.777035       129.9897 
 121   0.0000       4.777039       129.9898 
 122   0.0000       4.794878       130.4753 
 123   0.0000       4.794878       130.4753 
 124   0.0000       4.931856       134.2026 
 125   0.0000       4.931856       134.2026 
 126   0.0000       5.067358       137.8898 
 127   0.0000       5.067366       137.8900 
 128   0.0000       5.131621       139.6385 
 129   0.0000       5.131621       139.6385 
 130   0.0000       5.556849       151.2095 
 131   0.0000       5.556849       151.2095 
 132   0.0000       5.634894       153.3332 
 133   0.0000       5.718418       155.6061 

                    ********************************
                    * MULLIKEN POPULATION ANALYSIS *
                    ********************************

--------------------------------------------
MULLIKEN ATOMIC CHARGES AND SPIN POPULATIONS
--------------------------------------------
   0 V :   -0.000101    1.000092
   1 V :    0.000101    0.999908
Sum of atomic charges         :    0.0000000
Sum of atomic spin populations:    2.0000000

-----------------------------------------------------
MULLIKEN REDUCED ORBITAL CHARGES AND SPIN POPULATIONS
-----------------------------------------------------
CHARGE
  0 V s       :     6.975585  s :     6.975585
      pz      :     4.039138  p :    12.112446
      px      :     4.036654
      py      :     4.036654
      dz2     :     0.973784  d :     3.877986
      dxz     :     0.954822
      dyz     :     0.954822
      dx2y2   :     0.497279
      dxy     :     0.497279
      f0      :     0.010597  f :     0.032217
      f+1     :     0.008118
      f-1     :     0.008118
      f+2     :     0.002692
      f-2     :     0.002692
      f+3     :     0.000000
      f-3     :     0.000000
      g0      :     0.000914  g :     0.001868
      g+1     :     0.000431
      g-1     :     0.000431
      g+2     :     0.000046
      g-2     :     0.000046
      g+3     :     0.000000
      g-3     :     0.000000
      g+4     :     0.000000
      g-4     :     0.000000
  1 V s       :     6.975595  s :     6.975595
      pz      :     4.039145  p :    12.112451
      px      :     4.036653
      py      :     4.036653
      dz2     :     0.973731  d :     3.877767
      dxz     :     0.954774
      dyz     :     0.954774
      dx2y2   :     0.497244
      dxy     :     0.497245
      f0      :     0.010597  f :     0.032218
      f+1     :     0.008119
      f-1     :     0.008119
      f+2     :     0.002692
      f-2     :     0.002692
      f+3     :     0.000000
      f-3     :     0.000000
      g0      :     0.000914  g :     0.001868
      g+1     :     0.000431
      g-1     :     0.000431
      g+2     :     0.000046
      g-2     :     0.000046
      g+3     :     0.000000
      g-3     :     0.000000
      g+4     :     0.000000
      g-4     :     0.000000

SPIN
  0 V s       :    -0.005158  s :    -0.005158
      pz      :    -0.000354  p :     0.011004
      px      :     0.005679
      py      :     0.005679
      dz2     :     0.005475  d :     0.988709
      dxz     :    -0.005662
      dyz     :    -0.005662
      dx2y2   :     0.497279
      dxy     :     0.497279
      f0      :     0.000184  f :     0.005726
      f+1     :     0.000079
      f-1     :     0.000079
      f+2     :     0.002692
      f-2     :     0.002692
      f+3     :    -0.000000
      f-3     :    -0.000000
      g0      :    -0.000089  g :    -0.000189
      g+1     :    -0.000096
      g-1     :    -0.000096
      g+2     :     0.000046
      g-2     :     0.000046
      g+3     :    -0.000000
      g-3     :    -0.000000
      g+4     :    -0.000000
      g-4     :     0.000000
  1 V s       :    -0.005266  s :    -0.005266
      pz      :    -0.000362  p :     0.010995
      px      :     0.005679
      py      :     0.005679
      dz2     :     0.005474  d :     0.988641
      dxz     :    -0.005661
      dyz     :    -0.005661
      dx2y2   :     0.497244
      dxy     :     0.497245
      f0      :     0.000184  f :     0.005726
      f+1     :     0.000079
      f-1     :     0.000079
      f+2     :     0.002692
      f-2     :     0.002692
      f+3     :    -0.000000
      f-3     :    -0.000000
      g0      :    -0.000089  g :    -0.000189
      g+1     :    -0.000096
      g-1     :    -0.000096
      g+2     :     0.000046
      g-2     :     0.000046
      g+3     :    -0.000000
      g-3     :    -0.000000
      g+4     :    -0.000000
      g-4     :    -0.000000


                     *******************************
                     * LOEWDIN POPULATION ANALYSIS *
                     *******************************

-------------------------------------------
LOEWDIN ATOMIC CHARGES AND SPIN POPULATIONS
-------------------------------------------
   0 V :   -0.000108    1.000033
   1 V :    0.000108    0.999967

----------------------------------------------------
LOEWDIN REDUCED ORBITAL CHARGES AND SPIN POPULATIONS
----------------------------------------------------
CHARGE
  0 V s       :     6.748636  s :     6.748636
      pz      :     4.097990  p :    12.130850
      px      :     4.016430
      py      :     4.016430
      dz2     :     1.074187  d :     3.983134
      dxz     :     0.958567
      dyz     :     0.958567
      dx2y2   :     0.495906
      dxy     :     0.495906
      f0      :     0.073232  f :     0.128248
      f+1     :     0.023530
      f-1     :     0.023530
      f+2     :     0.003978
      f-2     :     0.003978
      f+3     :     0.000000
      f-3     :     0.000000
      g0      :     0.005985  g :     0.009240
      g+1     :     0.001494
      g-1     :     0.001494
      g+2     :     0.000133
      g-2     :     0.000133
      g+3     :     0.000000
      g-3     :     0.000000
      g+4     :     0.000000
      g-4     :     0.000000
  1 V s       :     6.748624  s :     6.748624
      pz      :     4.097991  p :    12.130852
      px      :     4.016431
      py      :     4.016431
      dz2     :     1.074137  d :     3.982926
      dxz     :     0.958523
      dyz     :     0.958523
      dx2y2   :     0.495872
      dxy     :     0.495872
      f0      :     0.073232  f :     0.128250
      f+1     :     0.023531
      f-1     :     0.023531
      f+2     :     0.003978
      f-2     :     0.003978
      f+3     :     0.000000
      f-3     :     0.000000
      g0      :     0.005985  g :     0.009240
      g+1     :     0.001494
      g-1     :     0.001494
      g+2     :     0.000133
      g-2     :     0.000133
      g+3     :     0.000000
      g-3     :     0.000000
      g+4     :     0.000000
      g-4     :     0.000000

SPIN
  0 V s       :    -0.006001  s :    -0.006001
      pz      :    -0.000321  p :     0.010156
      px      :     0.005239
      py      :     0.005239
      dz2     :     0.005759  d :     0.987256
      dxz     :    -0.005158
      dyz     :    -0.005158
      dx2y2   :     0.495906
      dxy     :     0.495906
      f0      :     0.000640  f :     0.008615
      f+1     :     0.000010
      f-1     :     0.000010
      f+2     :     0.003978
      f-2     :     0.003978
      f+3     :    -0.000000
      f-3     :    -0.000000
      g0      :    -0.000077  g :     0.000007
      g+1     :    -0.000091
      g-1     :    -0.000091
      g+2     :     0.000133
      g-2     :     0.000133
      g+3     :    -0.000000
      g-3     :    -0.000000
      g+4     :    -0.000000
      g-4     :     0.000000
  1 V s       :    -0.006002  s :    -0.006002
      pz      :    -0.000321  p :     0.010157
      px      :     0.005239
      py      :     0.005239
      dz2     :     0.005759  d :     0.987189
      dxz     :    -0.005157
      dyz     :    -0.005157
      dx2y2   :     0.495872
      dxy     :     0.495872
      f0      :     0.000640  f :     0.008616
      f+1     :     0.000010
      f-1     :     0.000010
      f+2     :     0.003978
      f-2     :     0.003978
      f+3     :    -0.000000
      f-3     :    -0.000000
      g0      :    -0.000077  g :     0.000007
      g+1     :    -0.000091
      g-1     :    -0.000091
      g+2     :     0.000133
      g-2     :     0.000133
      g+3     :    -0.000000
      g-3     :    -0.000000
      g+4     :    -0.000000
      g-4     :    -0.000000


                      *****************************
                      * MAYER POPULATION ANALYSIS *
                      *****************************

  NA   - Mulliken gross atomic population
  ZA   - Total nuclear charge
  QA   - Mulliken gross atomic charge
  VA   - Mayer's total valence
  BVA  - Mayer's bonded valence
  FA   - Mayer's free valence

  ATOM       NA         ZA         QA         VA         BVA        FA
  0 V     23.0001    23.0000    -0.0001     5.6626     5.1600     0.5026
  1 V     22.9999    23.0000     0.0001     5.6626     5.1600     0.5025

  Mayer bond orders larger than 0.100000
B(  0-V ,  1-V ) :   5.1600 

-------
TIMINGS
-------

Total SCF time: 0 days 0 hours 2 min 18 sec 

Total time                  ....     138.956 sec
Sum of individual times     ....     135.608 sec  ( 97.6%)

Fock matrix formation       ....     127.632 sec  ( 91.9%)
  XC integration            ....     120.449 sec  ( 94.4% of F)
    Basis function eval.    ....       0.027 sec  (  0.0% of XC)
    Density eval.           ....       0.033 sec  (  0.0% of XC)
    XC-Functional eval.     ....       0.022 sec  (  0.0% of XC)
    XC-Potential eval.      ....       0.069 sec  (  0.1% of XC)
Diagonalization             ....       2.498 sec  (  1.8%)
Density matrix formation    ....       0.011 sec  (  0.0%)
Population analysis         ....       0.301 sec  (  0.2%)
Initial guess               ....       0.964 sec  (  0.7%)
Orbital Transformation      ....       0.000 sec  (  0.0%)
Orbital Orthonormalization  ....       0.000 sec  (  0.0%)
DIIS solution               ....       0.115 sec  (  0.1%)
Grid generation             ....       4.089 sec  (  2.9%)

-------------------------   --------------------
FINAL SINGLE POINT ENERGY     -1887.522010537136
-------------------------   --------------------


----------------------------------------------------------------------------
                           ORCA NUMERICAL GRADIENT
                              (28-process run)
----------------------------------------------------------------------------

I state                        ... 1
J state                        ... 0
Number of atoms                ... 2
Derivative's order of accuracy ... 2
Central differences            ... used
Number of displacements        ... 12
Numerical increment            ... 5.000e-03 bohr
Translation invariance         ... used

The output will be reduced. Please look at the following files:
SCF program output             ... >V2.lastscf
Integral program output        ... >V2.lastint
Gradient program output        ... >V2.lastgrad


     Note:   There are more processes than displacements to do
     ===>:   Reducing number of processes to   3

             <<<Displacing   2/coordinate 1 (+)>>>
             <<<Displacing   2/coordinate 3 (+)>>>
             <<<Displacing   2/coordinate 2 (+)>>>
             <<<Displacing   2/coordinate 2 (-)>>>
             <<<Displacing   2/coordinate 1 (-)>>>
             <<<Displacing   2/coordinate 3 (-)>>>

------------------------------
CARTESIAN GRADIENT (NUMERICAL)
-------------------------------
   1   V   :   -0.000000002    0.000000008   -0.085660302
   2   V   :    0.000000002   -0.000000008    0.085660302

Norm of the cartesian gradient     ...    0.121141960
RMS gradient                       ...    0.049455998
MAX gradient                       ...    0.085660302

-------
TIMINGS
-------

Total numerical gradient time      ...      125.953 sec


                            ***************************************
                            *     ORCA property calculations      *
                            ***************************************

                                    ---------------------
                                    Active property flags
                                    ---------------------
   (+) Dipole Moment


------------------------------------------------------------------------------
                       ORCA ELECTRIC PROPERTIES CALCULATION
------------------------------------------------------------------------------

Dipole Moment Calculation                       ... on
Quadrupole Moment Calculation                   ... off
Polarizability Calculation                      ... off
GBWName                                         ... V2.gbw
Electron density file                           ... V2.scfp
The origin for moment calculation is the CENTER OF MASS  = ( 0.000000,  0.000000  1.672408)

-------------
DIPOLE MOMENT
-------------
                                X             Y             Z
Electronic contribution:      0.00000      -0.00000       0.00046
Nuclear contribution   :      0.00000       0.00000       0.00000
                        -----------------------------------------
Total Dipole Moment    :      0.00000      -0.00000       0.00046
                        -----------------------------------------
Magnitude (a.u.)       :      0.00046
Magnitude (Debye)      :      0.00117



--------------------
Rotational spectrum 
--------------------
 
Rotational constants in cm-1:     0.000000     0.211262     0.211262 
Rotational constants in MHz :     0.000000  6333.475957  6333.475957 

 Dipole components along the rotational axes: 
x,y,z [a.u.] :     0.000459    -0.000000     0.000000 
x,y,z [Debye]:     0.001166    -0.000000     0.000000 

 

Timings for individual modules:

Sum of individual times         ...      271.895 sec (=   4.532 min)
GTO integral calculation        ...        6.218 sec (=   0.104 min)   2.3 %
SCF iterations                  ...      139.724 sec (=   2.329 min)  51.4 %
SCF Gradient evaluation         ...      125.953 sec (=   2.099 min)  46.3 %
                             ****ORCA TERMINATED NORMALLY****
TOTAL RUN TIME: 0 days 0 hours 4 minutes 32 seconds 815 msec
