
                                 *****************
                                 * O   R   C   A *
                                 *****************

           --- An Ab Initio, DFT and Semiempirical electronic structure package ---

                  #######################################################
                  #                        -***-                        #
                  #          Department of theory and spectroscopy      #
                  #               Directorship: Frank Neese             #
                  #        Max Planck Institute fuer Kohlenforschung    #
                  #                Kaiser Wilhelm Platz 1               #
                  #                 D-45470 Muelheim/Ruhr               #
                  #                      Germany                        #
                  #                                                     #
                  #                  All rights reserved                #
                  #                        -***-                        #
                  #######################################################


                         Program Version 4.2.0 -  RELEASE  -


 With contributions from (in alphabetic order):
   Daniel Aravena         : Magnetic Suceptibility
   Michael Atanasov       : Ab Initio Ligand Field Theory (pilot matlab implementation)
   Alexander A. Auer      : GIAO ZORA, VPT2
   Ute Becker             : Parallelization
   Giovanni Bistoni       : ED, misc. LED, open-shell LED, HFLED
   Martin Brehm           : Molecular dynamics
   Dmytro Bykov           : SCF Hessian
   Vijay G. Chilkuri      : MRCI spin determinant printing, contributions to CSF-ICE
   Dipayan Datta          : RHF DLPNO-CCSD density
   Achintya Kumar Dutta   : EOM-CC, STEOM-CC
   Dmitry Ganyushin       : Spin-Orbit,Spin-Spin,Magnetic field MRCI
   Miquel Garcia          : C-PCM Hessian, Gaussian charge scheme
   Yang Guo               : DLPNO-NEVPT2, CIM, IAO-localization
   Andreas Hansen         : Spin unrestricted coupled pair/coupled cluster methods
   Benjamin Helmich-Paris : CASSCF linear response (MC-RPA)
   Lee Huntington         : MR-EOM, pCC
   Robert Izsak           : Overlap fitted RIJCOSX, COSX-SCS-MP3, EOM
   Christian Kollmar      : KDIIS, OOCD, Brueckner-CCSD(T), CCSD density
   Simone Kossmann        : Meta GGA functionals, TD-DFT gradient, OOMP2, MP2 Hessian
   Martin Krupicka        : AUTO-CI
   Lucas Lang             : DCDCAS
   Dagmar Lenk            : GEPOL surface, SMD
   Dimitrios Liakos       : Extrapolation schemes; Compound Job, initial MDCI parallelization
   Dimitrios Manganas     : Further ROCIS development; embedding schemes
   Dimitrios Pantazis     : SARC Basis sets
   Taras Petrenko         : DFT Hessian,TD-DFT gradient, ASA, ECA, R-Raman, ABS, FL, XAS/XES, NRVS
   Peter Pinski           : DLPNO-MP2, DLPNO-MP2 Gradient
   Christoph Reimann      : Effective Core Potentials
   Marius Retegan         : Local ZFS, SOC
   Christoph Riplinger    : Optimizer, TS searches, QM/MM, DLPNO-CCSD(T), (RO)-DLPNO pert. Triples
   Tobias Risthaus        : Range-separated hybrids, TD-DFT gradient, RPA, STAB
   Michael Roemelt        : Original ROCIS implementation
   Masaaki Saitow         : Open-shell DLPNO-CCSD energy and density
   Barbara Sandhoefer     : DKH picture change effects
   Avijit Sen             : IP-ROCIS
   Kantharuban Sivalingam : CASSCF convergence, NEVPT2, FIC-MRCI
   Bernardo de Souza      : ESD, SOC TD-DFT
   Georgi Stoychev        : AutoAux, RI-MP2 NMR
   Willem Van den Heuvel  : Paramagnetic NMR
   Boris Wezisla          : Elementary symmetry handling
   Frank Wennmohs         : Technical directorship


 We gratefully acknowledge several colleagues who have allowed us to
 interface, adapt or use parts of their codes:
   Stefan Grimme, W. Hujo, H. Kruse,             : VdW corrections, initial TS optimization,
                  C. Bannwarth                     DFT functionals, gCP, sTDA/sTD-DF
   Ed Valeev, F. Pavosevic, A. Kumar             : LibInt (2-el integral package), F12 methods
   Garnet Chan, S. Sharma, J. Yang, R. Olivares  : DMRG
   Ulf Ekstrom                                   : XCFun DFT Library
   Mihaly Kallay                                 : mrcc  (arbitrary order and MRCC methods)
   Andreas Klamt, Michael Diedenhofen            : otool_cosmo (COSMO solvation model)
   Jiri Pittner, Ondrej Demel                    : Mk-CCSD
   Frank Weinhold                                : gennbo (NPA and NBO analysis)
   Christopher J. Cramer and Donald G. Truhlar   : smd solvation model
   Lars Goerigk                                  : TD-DFT with DH, B97 family of functionals
   V. Asgeirsson, H. Jonsson                     : NEB implementation
   FAccTs GmbH                                   : IRC, NEB, NEB-TS, Multilevel, MM, QM/MM, CI optimization
   S Lehtola, MJT Oliveira, MAL Marques          : LibXC Library


 Your calculation uses the libint2 library for the computation of 2-el integrals
 For citations please refer to: http://libint.valeyev.net

 Your ORCA version has been built with support for libXC version: 4.2.3
 For citations please refer to: https://tddft.org/programs/libxc/

 This ORCA versions uses:
   CBLAS   interface :  Fast vector & matrix operations
   LAPACKE interface :  Fast linear algebra routines
   SCALAPACK package :  Parallel linear algebra routines


Your calculation utilizes the DFT-NL dispersion correction.
Cite in your paper:
Vydrov, O. A.; Van Voorhis, T. J. Chem. Phys. 2010, 133, 244103
Hujo, W.; Grimme, S. J. Chem. Theory Comput. 2011, 7, 3866 
   

----- Orbital basis set information -----
Your calculation utilizes the basis: def2-TZVPPD
   F. Weigend and R. Ahlrichs, Phys. Chem. Chem. Phys. 7, 3297 (2005).
   D. Rappoport and F. Furche, J. Chem. Phys. 133 134105 (2010).

----- AuxJK basis set information -----
Your calculation utilizes the auxiliary basis: def2/JK
   H-Ba, Hf-Rn: F. Weigend, J. Comput. Chem. 29, 167 (2008).

================================================================================
                                        WARNINGS
                       Please study these warnings very carefully!
================================================================================

INFO   : Found keyword 'NumGrad' for Energy calculation
  ===> : Setting RunTyp to EnGrad

WARNING: Numerical Gradient with sloppy Convergence Criteria    
         Your results may be not reliable!                      
         Please choose at least TightSCF!                       

WARNING: your system is open-shell and RHF/RKS was chosen
  ===> : WILL SWITCH to UHF/UKS


INFO   : the flag for use of LIBINT has been found!

================================================================================
                                       INPUT FILE
================================================================================
NAME = VS.in
|  1> #
|  2> # VS wB97X-V/Def2-TZVPPD
|  3> #
|  4> ! wb97x-v def2-tzvppd def2/jk grid4 nofinalgrid numgrad
|  5> 
|  6> *xyz 0 4
|  7> V          0.00000        0.00000        0.00000
|  8> S          0.00000        0.00000        2.04800
|  9> *
| 10> 
| 11> %maxcore 5000
| 12> 
| 13> %pal
| 14> nprocs = 28
| 15> end
| 16> 
| 17> 
| 18>                          ****END OF INPUT****
================================================================================

                     *******************************
                     * Energy+Gradient Calculation *
                     *******************************

---------------------------------
CARTESIAN COORDINATES (ANGSTROEM)
---------------------------------
  V      0.000000    0.000000    0.000000
  S      0.000000    0.000000    2.048000

----------------------------
CARTESIAN COORDINATES (A.U.)
----------------------------
  NO LB      ZA    FRAG     MASS         X           Y           Z
   0 V    23.0000    0    50.940    0.000000    0.000000    0.000000
   1 S    16.0000    0    32.060    0.000000    0.000000    3.870159

--------------------------------
INTERNAL COORDINATES (ANGSTROEM)
--------------------------------
 V      0   0   0     0.000000000000     0.00000000     0.00000000
 S      1   0   0     2.048000000000     0.00000000     0.00000000

---------------------------
INTERNAL COORDINATES (A.U.)
---------------------------
 V      0   0   0     0.000000000000     0.00000000     0.00000000
 S      1   0   0     3.870159122271     0.00000000     0.00000000

---------------------
BASIS SET INFORMATION
---------------------
There are 2 groups of distinct atoms

 Group   1 Type V   : 17s13p7d2f1g contracted to 6s6p4d2f1g pattern {842111/631111/4111/11/1}
 Group   2 Type S   : 15s10p4d1f contracted to 6s6p4d1f pattern {732111/511111/1111/1}

Atom   0V    basis set group =>   1
Atom   1S    basis set group =>   2
----------------------------------
AUXILIARY/JK BASIS SET INFORMATION
----------------------------------
There are 2 groups of distinct atoms

 Group   1 Type V   : 19s14p12d10f7g3h1i contracted to 16s13p11d9f5g3h1i pattern {4111111111111111/2111111111111/21111111111/211111111/31111/111/1}
 Group   2 Type S   : 16s12p10d4f1g contracted to 13s11p9d4f1g pattern {4111111111111/21111111111/211111111/1111/1}

Atom   0V    basis set group =>   1
Atom   1S    basis set group =>   2


           ************************************************************
           *        Program running with 28 parallel MPI-processes    *
           *              working on a common directory               *
           ************************************************************
------------------------------------------------------------------------------
                           ORCA GTO INTEGRAL CALCULATION
------------------------------------------------------------------------------

                         BASIS SET STATISTICS AND STARTUP INFO

 # of primitive gaussian shells          ...   70
 # of primitive gaussian functions       ...  186
 # of contracted shells                  ...   36
 # of contracted basis functions         ...  118
 Highest angular momentum                ...    4
 Maximum contraction depth               ...    8
 Integral package used                   ... LIBINT
 Integral threshhold            Thresh   ...  1.000e-10
 Primitive cut-off              TCut     ...  1.000e-11


------------------------------ INTEGRAL EVALUATION ----------------------------


 * One electron integrals 
 Pre-screening matrix                    ... done
 Shell pair data                         ... done (   0.000 sec)



           ************************************************************
           *        Program running with 28 parallel MPI-processes    *
           *              working on a common directory               *
           ************************************************************
-------------------------------------------------------------------------------
                                 ORCA SCF
-------------------------------------------------------------------------------

------------
SCF SETTINGS
------------
Hamiltonian:
 Density Functional     Method          .... DFT(GTOs)
 Exchange Functional    Exchange        .... WB97X-V
 Correlation Functional Correlation     .... WB97X-V
 Gradients option       PostSCFGGA      .... off
 Hybrid DFT is turned on
   Fraction HF Exchange ScalHFX         ....  0.167000
   Scaling of DF-GGA-X  ScalDFX         ....  0.000000
   Scaling of DF-GGA-C  ScalDFC         ....  1.000000
   Scaling of DF-LDA-C  ScalLDAC        ....  1.000000
   Perturbative correction              ....  0.000000
   Density functional embedding theory  .... OFF
 Long-range corrected/Screened/Range-Separated Hybrid DFT is turned on
   Amount of maximum screened exact exchange              ....  0.833000
   Range separation parameter mu (erf(mu*r12)/r12)        ....  0.300000
   NL short-range parameter             ....  6.000000
   NL long-range parameter              ....  0.010000


General Settings:
 Integral files         IntName         .... VS
 Hartree-Fock type      HFTyp           .... UHF
 Total Charge           Charge          ....    0
 Multiplicity           Mult            ....    4
 Number of Electrons    NEL             ....   39
 Basis Dimension        Dim             ....  118
 Nuclear Repulsion      ENuc            ....     95.0865296164 Eh

Convergence Acceleration:
 DIIS                   CNVDIIS         .... on
   Start iteration      DIISMaxIt       ....    12
   Startup error        DIISStart       ....  0.200000
   # of expansion vecs  DIISMaxEq       ....     5
   Bias factor          DIISBfac        ....   1.050
   Max. coefficient     DIISMaxC        ....  10.000
 Newton-Raphson         CNVNR           .... off
 SOSCF                  CNVSOSCF        .... off
 Level Shifting         CNVShift        .... on
   Level shift para.    LevelShift      ....    0.2500
   Turn off err/grad.   ShiftErr        ....    0.0010
 Zerner damping         CNVZerner       .... off
 Static damping         CNVDamp         .... on
   Fraction old density DampFac         ....    0.7000
   Max. Damping (<1)    DampMax         ....    0.9800
   Min. Damping (>=0)   DampMin         ....    0.0000
   Turn off err/grad.   DampErr         ....    0.1000
 Fernandez-Rico         CNVRico         .... off

SCF Procedure:
 Maximum # iterations   MaxIter         ....   125
 SCF integral mode      SCFMode         .... Direct
   Integral package                     .... LIBINT
 Reset frequency        DirectResetFreq ....    20
 Integral Threshold     Thresh          ....  1.000e-10 Eh
 Primitive CutOff       TCut            ....  1.000e-11 Eh

Convergence Tolerance:
 Convergence Check Mode ConvCheckMode   .... Total+1el-Energy
 Convergence forced     ConvForced      .... 0
 Energy Change          TolE            ....  1.000e-06 Eh
 1-El. energy change                    ....  1.000e-03 Eh
 DIIS Error             TolErr          ....  1.000e-06


Diagonalization of the overlap matrix:
Smallest eigenvalue                        ... 6.697e-04
Time for diagonalization                   ...    0.004 sec
Threshold for overlap eigenvalues          ... 1.000e-08
Number of eigenvalues below threshold      ... 0
Time for construction of square roots      ...    0.094 sec
Total time needed                          ...    0.098 sec

-------------------
DFT GRID GENERATION
-------------------

General Integration Accuracy     IntAcc      ...  4.670
Radial Grid Type                 RadialGrid  ... Gauss-Chebyshev
Angular Grid (max. acc.)         AngularGrid ... Lebedev-302
Angular grid pruning method      GridPruning ... 3 (G Style)
Weight generation scheme         WeightScheme... Becke
Basis function cutoff            BFCut       ...    1.0000e-10
Integration weight cutoff        WCut        ...    1.0000e-14
Grids for H and He will be reduced by one unit

# of grid points (after initial pruning)     ...  16510 (   0.0 sec)
# of grid points (after weights+screening)   ...  16481 (   0.0 sec)
nearest neighbour list constructed           ...    0.0 sec
Grid point re-assignment to atoms done       ...    0.0 sec
Grid point division into batches done        ...    0.2 sec
Reduced shell lists constructed in    0.2 sec

Total number of grid points                  ...    16481
Total number of batches                      ...      259
Average number of points per batch           ...       63
Average number of grid points per atom       ...     8240
Average number of shells per batch           ...     7.00 (19.44%)
Average number of basis functions per batch  ...    20.09 (17.03%)
Average number of large shells per batch     ...     5.27 (75.32%)
Average number of large basis fcns per batch ...    14.91 (74.21%)
Maximum spatial batch extension              ...  24.49, 24.19, 17.58 au
Average spatial batch extension              ...   0.77,  0.76,  0.57 au

Time for grid setup =    1.526 sec

------------------------------
INITIAL GUESS: MODEL POTENTIAL
------------------------------
Loading Hartree-Fock densities                     ... done
Calculating cut-offs                               ... done
Setting up the integral package                    ... done
Initializing the effective Hamiltonian             ... done
Starting the Coulomb interaction                   ... done (   0.0 sec)
Reading the grid                                   ... done
Mapping shells                                     ... done
Starting the XC term evaluation                    ... done (   0.0 sec)
  promolecular density results
     # of electrons  =     39.000006689
     EX              =    -51.943982259
     EC              =     -2.119708608
     EX+EC           =    -54.063690867
Transforming the Hamiltonian                       ... done (   0.0 sec)
Diagonalizing the Hamiltonian                      ... done (   0.0 sec)
Back transforming the eigenvectors                 ... done (   0.0 sec)
Now organizing SCF variables                       ... done
                      ------------------
                      INITIAL GUESS DONE (   2.1 sec)
                      ------------------
--------------
SCF ITERATIONS
--------------
ITER       Energy         Delta-E        Max-DP      RMS-DP      [F,P]     Damp
               ***  Starting incremental Fock matrix formation  ***
  0  -1340.5900947063   0.000000000000 0.41337990  0.00567100  0.5447020 0.7000
  1  -1340.7991252710  -0.209030564692 0.27393510  0.00313290  0.2392742 0.7000
                               ***Turning on DIIS***
  2  -1341.2122649423  -0.413139671287 0.21460169  0.00228507  0.1324910 0.7000
  3  -1341.4335620176  -0.221297075280 0.58126027  0.00580923  0.0816110 0.0000
  4  -1341.9600772995  -0.526515281851 0.01679653  0.00024291  0.1671934 0.7000
  5  -1341.9778255357  -0.017748236221 0.02241604  0.00031578  0.1484731 0.7000
  6  -1341.9962199004  -0.018394364680 0.02621551  0.00037187  0.1256092 0.7000
  7  -1342.0122219707  -0.016002070326 0.02743537  0.00040146  0.1019583 0.7000
  8  -1342.0254118604  -0.013189889677 0.08573006  0.00131225  0.0759886 0.0000
  9  -1342.0512601690  -0.025848308601 0.01506461  0.00022442  0.0068885 0.0000
 10  -1342.0520147080  -0.000754539024 0.00955615  0.00015685  0.0053991 0.0000
 11  -1342.0525435890  -0.000528881038 0.00623065  0.00013151  0.0042290 0.0000
 12  -1342.0529483352  -0.000404746211 0.00556072  0.00010801  0.0030291 0.0000
 13  -1342.0531976066  -0.000249271329 0.00408126  0.00007343  0.0020694 0.0000
 14  -1342.0533175061  -0.000119899539 0.00393269  0.00007285  0.0014764 0.0000
 15  -1342.0533934474  -0.000075941287 0.00383252  0.00007049  0.0008590 0.0000
 16  -1342.0534319412  -0.000038493851 0.00117299  0.00002137  0.0002874 0.0000
 17  -1342.0534369050  -0.000004963761 0.00067673  0.00001189  0.0001694 0.0000
 18  -1342.0534385154  -0.000001610415 0.00079066  0.00000855  0.0001974 0.0000
 19  -1342.0534393656  -0.000000850159 0.00070707  0.00000842  0.0000636 0.0000
               *** Restarting incremental Fock matrix formation ***
                                   *** Resetting DIIS ***
                 **** Energy Check signals convergence ****

               *****************************************************
               *                     SUCCESS                       *
               *           SCF CONVERGED AFTER  20 CYCLES          *
               *****************************************************


Setting up the DFT-NL grid :

General Integration Accuracy     IntAcc      ...  4.340
Radial Grid Type                 RadialGrid  ... Gauss-Chebyshev
Angular Grid (max. acc.)         AngularGrid ... Lebedev-110
Angular grid pruning method      GridPruning ... 3 (G Style)
Weight generation scheme         WeightScheme... Becke
Basis function cutoff            BFCut       ...    1.0000e-10
Integration weight cutoff        WCut        ...    1.0000e-14
Grids for H and He will be reduced by one unit

# of grid points (after initial pruning)     ...   4778 (   0.0 sec)
# of grid points (after weights+screening)   ...   4753 (   0.0 sec)
nearest neighbour list constructed           ...    0.0 sec
Grid point re-assignment to atoms done       ...    0.0 sec
Grid point division into batches done        ...    0.0 sec
Reduced shell lists constructed in    0.0 sec

Total number of grid points                  ...     4753
Total number of batches                      ...       75
Average number of points per batch           ...       63
Average number of grid points per atom       ...     2376
Average number of shells per batch           ...    11.25 (31.25%)
Average number of basis functions per batch  ...    36.75 (31.14%)
Average number of large shells per batch     ...     9.00 (80.00%)
Average number of large basis fcns per batch ...    25.50 (69.39%)
Maximum spatial batch extension              ...  18.98, 28.73, 16.15 au
Average spatial batch extension              ...   0.72,  1.02,  0.65 au

Final grid set up in    2.9 sec

-------------------------------------------------------------------------------
                         DFT-NL dispersion correction                          
-------------------------------------------------------------------------------

SC Energy -1342.053439775 
NL    Energy 0.162257720 
SC+NL Energy -1341.891182055 
NL done in    2.1 sec
-------------------------------------------------------------------------------

----------------
TOTAL SCF ENERGY
----------------

Total Energy       :        -1341.89118206 Eh          -36514.71544 eV

Components:
Nuclear Repulsion  :           95.08652962 Eh            2587.43601 eV
Electronic Energy  :        -1436.97771167 Eh          -39102.15145 eV
One Electron Energy:        -2035.13074733 Eh          -55378.72303 eV
Two Electron Energy:          598.15303566 Eh           16276.57159 eV

Virial components:
Potential Energy   :        -2681.81904894 Eh          -72976.00635 eV
Kinetic Energy     :         1339.92786689 Eh           36461.29091 eV
Virial Ratio       :            2.00146524


DFT components:
N(Alpha)           :       20.999999907330 electrons
N(Beta)            :       17.999999540483 electrons
N(Total)           :       38.999999447813 electrons
E(X)               :      -52.046412126012 Eh       
E(C)               :       -2.106944073385 Eh       
NL Energy, E(C,NL) :        0.162257719712 Eh       
E(XC)              :      -53.991098479685 Eh       
DFET-embed. en.    :        0.000000000000 Eh       

---------------
SCF CONVERGENCE
---------------

  Last Energy change         ...   -4.0946e-07  Tolerance :   1.0000e-06
  Last MAX-Density change    ...    1.1922e-04  Tolerance :   1.0000e-05
  Last RMS-Density change    ...    1.2793e-06  Tolerance :   1.0000e-06
  Last DIIS Error            ...    2.3778e-05  Tolerance :   1.0000e-06

             **** THE GBW FILE WAS UPDATED (VS.gbw) ****
             **** DENSITY FILE WAS UPDATED (VS.scfp) ****
             **** ENERGY FILE WAS UPDATED (VS.en.tmp) ****
----------------------
UHF SPIN CONTAMINATION
----------------------

Warning: in a DFT calculation there is little theoretical justification to 
         calculate <S**2> as in Hartree-Fock theory. We will do it anyways
         but you should keep in mind that the values have only limited relevance

Expectation value of <S**2>     :     3.782319
Ideal value S*(S+1) for S=1.5   :     3.750000
Deviation                       :     0.032319

             **** THE GBW FILE WAS UPDATED (VS.gbw) ****
             **** DENSITY FILE WAS UPDATED (VS.scfp) ****
----------------
ORBITAL ENERGIES
----------------
                 SPIN UP ORBITALS
  NO   OCC          E(Eh)            E(eV) 
   0   1.0000    -196.867091     -5357.0259 
   1   1.0000     -88.796876     -2416.2858 
   2   1.0000     -22.388729      -609.2283 
   3   1.0000     -18.892814      -514.0996 
   4   1.0000     -18.892814      -514.0996 
   5   1.0000     -18.864539      -513.3302 
   6   1.0000      -7.976305      -217.0463 
   7   1.0000      -5.928380      -161.3194 
   8   1.0000      -5.928380      -161.3194 
   9   1.0000      -5.927959      -161.3080 
  10   1.0000      -2.844435       -77.4010 
  11   1.0000      -1.879538       -51.1448 
  12   1.0000      -1.879538       -51.1448 
  13   1.0000      -1.859916       -50.6109 
  14   1.0000      -0.745733       -20.2924 
  15   1.0000      -0.420760       -11.4495 
  16   1.0000      -0.420760       -11.4495 
  17   1.0000      -0.391042       -10.6408 
  18   1.0000      -0.311355        -8.4724 
  19   1.0000      -0.296199        -8.0600 
  20   1.0000      -0.296199        -8.0600 
  21   0.0000      -0.067975        -1.8497 
  22   0.0000      -0.067975        -1.8497 
  23   0.0000      -0.032674        -0.8891 
  24   0.0000       0.020569         0.5597 
  25   0.0000       0.020569         0.5597 
  26   0.0000       0.057176         1.5558 
  27   0.0000       0.080229         2.1832 
  28   0.0000       0.099903         2.7185 
  29   0.0000       0.099903         2.7185 
  30   0.0000       0.116405         3.1675 
  31   0.0000       0.116405         3.1675 
  32   0.0000       0.123814         3.3691 
  33   0.0000       0.168084         4.5738 
  34   0.0000       0.168084         4.5738 
  35   0.0000       0.193759         5.2724 
  36   0.0000       0.217046         5.9061 
  37   0.0000       0.217046         5.9061 
  38   0.0000       0.230363         6.2685 
  39   0.0000       0.270445         7.3592 
  40   0.0000       0.270445         7.3592 
  41   0.0000       0.316437         8.6107 
  42   0.0000       0.318349         8.6627 
  43   0.0000       0.318349         8.6627 
  44   0.0000       0.342589         9.3223 
  45   0.0000       0.443551        12.0696 
  46   0.0000       0.443551        12.0696 
  47   0.0000       0.530151        14.4261 
  48   0.0000       0.590565        16.0701 
  49   0.0000       0.590565        16.0701 
  50   0.0000       0.610937        16.6244 
  51   0.0000       0.610938        16.6245 
  52   0.0000       0.624561        16.9952 
  53   0.0000       0.633330        17.2338 
  54   0.0000       0.633330        17.2338 
  55   0.0000       0.696229        18.9453 
  56   0.0000       0.696229        18.9454 
  57   0.0000       0.747643        20.3444 
  58   0.0000       0.789735        21.4898 
  59   0.0000       0.789735        21.4898 
  60   0.0000       0.852428        23.1957 
  61   0.0000       1.144127        31.1333 
  62   0.0000       1.171466        31.8772 
  63   0.0000       1.171466        31.8772 
  64   0.0000       1.173204        31.9245 
  65   0.0000       1.173205        31.9245 
  66   0.0000       1.361582        37.0505 
  67   0.0000       1.361582        37.0505 
  68   0.0000       1.616083        43.9758 
  69   0.0000       1.751306        47.6554 
  70   0.0000       1.751306        47.6554 
  71   0.0000       1.760331        47.9010 
  72   0.0000       1.760351        47.9016 
  73   0.0000       1.786812        48.6216 
  74   0.0000       1.786812        48.6216 
  75   0.0000       1.803524        49.0764 
  76   0.0000       1.825844        49.6837 
  77   0.0000       1.825844        49.6837 
  78   0.0000       1.865238        50.7557 
  79   0.0000       1.914266        52.0898 
  80   0.0000       1.914267        52.0899 
  81   0.0000       1.936104        52.6841 
  82   0.0000       2.086109        56.7659 
  83   0.0000       2.086109        56.7659 
  84   0.0000       2.176504        59.2257 
  85   0.0000       2.268466        61.7281 
  86   0.0000       2.268466        61.7281 
  87   0.0000       2.400752        65.3278 
  88   0.0000       2.447838        66.6091 
  89   0.0000       2.447844        66.6092 
  90   0.0000       2.559024        69.6346 
  91   0.0000       2.559024        69.6346 
  92   0.0000       3.326995        90.5321 
  93   0.0000       4.130836       112.4057 
  94   0.0000       4.130855       112.4063 
  95   0.0000       4.138892       112.6250 
  96   0.0000       4.138892       112.6250 
  97   0.0000       4.183907       113.8499 
  98   0.0000       4.183911       113.8500 
  99   0.0000       4.320345       117.5626 
 100   0.0000       4.320345       117.5626 
 101   0.0000       4.324871       117.6857 
 102   0.0000       4.576005       124.5194 
 103   0.0000       4.576005       124.5194 
 104   0.0000       4.617306       125.6433 
 105   0.0000       4.617320       125.6437 
 106   0.0000       4.822094       131.2158 
 107   0.0000       4.822094       131.2158 
 108   0.0000       4.976473       135.4167 
 109   0.0000       6.924537       188.4262 
 110   0.0000       6.924634       188.4289 
 111   0.0000       6.969485       189.6493 
 112   0.0000       6.969485       189.6493 
 113   0.0000       7.085187       192.7977 
 114   0.0000       9.134150       248.5529 
 115   0.0000       9.134150       248.5529 
 116   0.0000       9.376152       255.1381 
 117   0.0000      18.827194       512.3140 

                 SPIN DOWN ORBITALS
  NO   OCC          E(Eh)            E(eV) 
   0   1.0000    -196.865904     -5356.9936 
   1   1.0000     -88.796099     -2416.2647 
   2   1.0000     -22.360273      -608.4540 
   3   1.0000     -18.873875      -513.5842 
   4   1.0000     -18.873875      -513.5842 
   5   1.0000     -18.831846      -512.4406 
   6   1.0000      -7.975634      -217.0280 
   7   1.0000      -5.929396      -161.3471 
   8   1.0000      -5.925990      -161.2544 
   9   1.0000      -5.925990      -161.2544 
  10   1.0000      -2.762445       -75.1699 
  11   1.0000      -1.811030       -49.2806 
  12   1.0000      -1.811030       -49.2806 
  13   1.0000      -1.726380       -46.9772 
  14   1.0000      -0.736805       -20.0495 
  15   1.0000      -0.363143        -9.8816 
  16   1.0000      -0.333335        -9.0705 
  17   1.0000      -0.333335        -9.0705 
  18   0.0000      -0.040227        -1.0946 
  19   0.0000      -0.025994        -0.7073 
  20   0.0000      -0.025993        -0.7073 
  21   0.0000       0.012542         0.3413 
  22   0.0000       0.012542         0.3413 
  23   0.0000       0.016266         0.4426 
  24   0.0000       0.055535         1.5112 
  25   0.0000       0.055535         1.5112 
  26   0.0000       0.067624         1.8401 
  27   0.0000       0.091973         2.5027 
  28   0.0000       0.107719         2.9312 
  29   0.0000       0.107719         2.9312 
  30   0.0000       0.132832         3.6145 
  31   0.0000       0.132832         3.6145 
  32   0.0000       0.143691         3.9100 
  33   0.0000       0.179801         4.8926 
  34   0.0000       0.179811         4.8929 
  35   0.0000       0.209248         5.6939 
  36   0.0000       0.233362         6.3501 
  37   0.0000       0.233422         6.3517 
  38   0.0000       0.233422         6.3517 
  39   0.0000       0.275127         7.4866 
  40   0.0000       0.275131         7.4867 
  41   0.0000       0.325033         8.8446 
  42   0.0000       0.325033         8.8446 
  43   0.0000       0.325045         8.8449 
  44   0.0000       0.352271         9.5858 
  45   0.0000       0.459842        12.5129 
  46   0.0000       0.459842        12.5129 
  47   0.0000       0.546456        14.8698 
  48   0.0000       0.598379        16.2827 
  49   0.0000       0.598379        16.2827 
  50   0.0000       0.620671        16.8893 
  51   0.0000       0.620677        16.8895 
  52   0.0000       0.634962        17.2782 
  53   0.0000       0.649802        17.6820 
  54   0.0000       0.649802        17.6820 
  55   0.0000       0.714960        19.4550 
  56   0.0000       0.714980        19.4556 
  57   0.0000       0.752790        20.4845 
  58   0.0000       0.815955        22.2033 
  59   0.0000       0.815955        22.2033 
  60   0.0000       0.872678        23.7468 
  61   0.0000       1.151311        31.3288 
  62   0.0000       1.192524        32.4502 
  63   0.0000       1.192524        32.4502 
  64   0.0000       1.207965        32.8704 
  65   0.0000       1.207972        32.8706 
  66   0.0000       1.387587        37.7582 
  67   0.0000       1.387587        37.7582 
  68   0.0000       1.631822        44.4041 
  69   0.0000       1.766575        48.0709 
  70   0.0000       1.766594        48.0715 
  71   0.0000       1.784054        48.5466 
  72   0.0000       1.784054        48.5466 
  73   0.0000       1.789553        48.6962 
  74   0.0000       1.789553        48.6962 
  75   0.0000       1.827850        49.7383 
  76   0.0000       1.836683        49.9787 
  77   0.0000       1.836683        49.9787 
  78   0.0000       1.901814        51.7510 
  79   0.0000       1.922151        52.3044 
  80   0.0000       1.922153        52.3044 
  81   0.0000       1.972610        53.6774 
  82   0.0000       2.093890        56.9776 
  83   0.0000       2.093890        56.9776 
  84   0.0000       2.181970        59.3744 
  85   0.0000       2.290115        62.3172 
  86   0.0000       2.290115        62.3172 
  87   0.0000       2.432628        66.1952 
  88   0.0000       2.484185        67.5981 
  89   0.0000       2.484189        67.5982 
  90   0.0000       2.619533        71.2811 
  91   0.0000       2.619533        71.2811 
  92   0.0000       3.367296        91.6288 
  93   0.0000       4.163005       113.2811 
  94   0.0000       4.163034       113.2819 
  95   0.0000       4.192874       114.0939 
  96   0.0000       4.192874       114.0939 
  97   0.0000       4.237026       115.2954 
  98   0.0000       4.237031       115.2955 
  99   0.0000       4.375189       119.0550 
 100   0.0000       4.375189       119.0550 
 101   0.0000       4.376552       119.0920 
 102   0.0000       4.609588       125.4333 
 103   0.0000       4.609588       125.4333 
 104   0.0000       4.700147       127.8975 
 105   0.0000       4.700156       127.8978 
 106   0.0000       4.898419       133.2928 
 107   0.0000       4.898419       133.2928 
 108   0.0000       5.049849       137.4134 
 109   0.0000       6.926877       188.4899 
 110   0.0000       6.926974       188.4926 
 111   0.0000       6.969689       189.6549 
 112   0.0000       6.969689       189.6549 
 113   0.0000       7.086157       192.8241 
 114   0.0000       9.137739       248.6505 
 115   0.0000       9.137739       248.6505 
 116   0.0000       9.374935       255.1049 
 117   0.0000      18.828432       512.3477 

                    ********************************
                    * MULLIKEN POPULATION ANALYSIS *
                    ********************************

--------------------------------------------
MULLIKEN ATOMIC CHARGES AND SPIN POPULATIONS
--------------------------------------------
   0 V :    0.534791    2.765595
   1 S :   -0.534791    0.234405
Sum of atomic charges         :   -0.0000000
Sum of atomic spin populations:    3.0000000

-----------------------------------------------------
MULLIKEN REDUCED ORBITAL CHARGES AND SPIN POPULATIONS
-----------------------------------------------------
CHARGE
  0 V s       :     6.798397  s :     6.798397
      pz      :     4.050970  p :    12.358829
      px      :     4.153929
      py      :     4.153929
      dz2     :     0.921656  d :     3.293684
      dxz     :     1.186014
      dyz     :     1.186014
      dx2y2   :     0.000000
      dxy     :     0.000000
      f0      :     0.003162  f :     0.014279
      f+1     :     0.005558
      f-1     :     0.005558
      f+2     :     0.000000
      f-2     :     0.000000
      f+3     :     0.000000
      f-3     :     0.000000
      g0      :    -0.000060  g :     0.000020
      g+1     :     0.000040
      g-1     :     0.000040
      g+2     :     0.000000
      g-2     :     0.000000
      g+3     :     0.000000
      g-3     :     0.000000
      g+4     :     0.000000
      g-4     :     0.000000
  1 S s       :     5.907247  s :     5.907247
      pz      :     3.300305  p :    10.562132
      px      :     3.630914
      py      :     3.630914
      dz2     :     0.015477  d :     0.058104
      dxz     :     0.021314
      dyz     :     0.021314
      dx2y2   :     0.000000
      dxy     :     0.000000
      f0      :     0.002845  f :     0.007307
      f+1     :     0.002231
      f-1     :     0.002231
      f+2     :     0.000000
      f-2     :     0.000000
      f+3     :     0.000000
      f-3     :     0.000000

SPIN
  0 V s       :     0.508954  s :     0.508954
      pz      :     0.002042  p :     0.146355
      px      :     0.072157
      py      :     0.072157
      dz2     :     0.585363  d :     2.110921
      dxz     :     0.762779
      dyz     :     0.762779
      dx2y2   :     0.000000
      dxy     :     0.000000
      f0      :     0.000205  f :    -0.000764
      f+1     :    -0.000485
      f-1     :    -0.000485
      f+2     :     0.000000
      f-2     :     0.000000
      f+3     :    -0.000000
      f-3     :    -0.000000
      g0      :     0.000001  g :     0.000129
      g+1     :     0.000064
      g-1     :     0.000064
      g+2     :     0.000000
      g-2     :     0.000000
      g+3     :     0.000000
      g-3     :     0.000000
      g+4     :    -0.000000
      g-4     :     0.000000
  1 S s       :     0.006310  s :     0.006310
      pz      :    -0.106656  p :     0.233314
      px      :     0.169985
      py      :     0.169985
      dz2     :     0.002866  d :    -0.006788
      dxz     :    -0.004827
      dyz     :    -0.004827
      dx2y2   :     0.000000
      dxy     :     0.000000
      f0      :     0.000915  f :     0.001569
      f+1     :     0.000327
      f-1     :     0.000327
      f+2     :     0.000000
      f-2     :     0.000000
      f+3     :     0.000000
      f-3     :     0.000000


                     *******************************
                     * LOEWDIN POPULATION ANALYSIS *
                     *******************************

-------------------------------------------
LOEWDIN ATOMIC CHARGES AND SPIN POPULATIONS
-------------------------------------------
   0 V :    0.198198    2.629712
   1 S :   -0.198198    0.370288

----------------------------------------------------
LOEWDIN REDUCED ORBITAL CHARGES AND SPIN POPULATIONS
----------------------------------------------------
CHARGE
  0 V s       :     6.503022  s :     6.503022
      pz      :     4.236915  p :    12.644527
      px      :     4.203806
      py      :     4.203806
      dz2     :     1.087844  d :     3.597416
      dxz     :     1.254786
      dyz     :     1.254786
      dx2y2   :     0.000000
      dxy     :     0.000000
      f0      :     0.021795  f :     0.055590
      f+1     :     0.016898
      f-1     :     0.016898
      f+2     :     0.000000
      f-2     :     0.000000
      f+3     :     0.000000
      f-3     :     0.000000
      g0      :     0.000549  g :     0.001247
      g+1     :     0.000349
      g-1     :     0.000349
      g+2     :     0.000000
      g-2     :     0.000000
      g+3     :     0.000000
      g-3     :     0.000000
      g+4     :     0.000000
      g-4     :     0.000000
  1 S s       :     5.547701  s :     5.547701
      pz      :     3.498099  p :    10.479071
      px      :     3.490486
      py      :     3.490486
      dz2     :     0.094041  d :     0.152096
      dxz     :     0.029028
      dyz     :     0.029028
      dx2y2   :     0.000000
      dxy     :     0.000000
      f0      :     0.010034  f :     0.019329
      f+1     :     0.004648
      f-1     :     0.004648
      f+2     :     0.000000
      f-2     :     0.000000
      f+3     :     0.000000
      f-3     :     0.000000

SPIN
  0 V s       :     0.362010  s :     0.362010
      pz      :     0.009288  p :     0.186217
      px      :     0.088464
      py      :     0.088464
      dz2     :     0.577334  d :     2.079245
      dxz     :     0.750955
      dyz     :     0.750955
      dx2y2   :     0.000000
      dxy     :     0.000000
      f0      :    -0.000757  f :     0.002052
      f+1     :     0.001405
      f-1     :     0.001405
      f+2     :     0.000000
      f-2     :     0.000000
      f+3     :    -0.000000
      f-3     :    -0.000000
      g0      :    -0.000043  g :     0.000187
      g+1     :     0.000115
      g-1     :     0.000115
      g+2     :     0.000000
      g-2     :     0.000000
      g+3     :     0.000000
      g-3     :     0.000000
      g+4     :    -0.000000
      g-4     :     0.000000
  1 S s       :     0.042463  s :     0.042463
      pz      :    -0.011690  p :     0.294795
      px      :     0.153243
      py      :     0.153243
      dz2     :     0.019407  d :     0.025562
      dxz     :     0.003077
      dyz     :     0.003077
      dx2y2   :     0.000000
      dxy     :     0.000000
      f0      :     0.001987  f :     0.007467
      f+1     :     0.002740
      f-1     :     0.002740
      f+2     :     0.000000
      f-2     :     0.000000
      f+3     :     0.000000
      f-3     :     0.000000


                      *****************************
                      * MAYER POPULATION ANALYSIS *
                      *****************************

  NA   - Mulliken gross atomic population
  ZA   - Total nuclear charge
  QA   - Mulliken gross atomic charge
  VA   - Mayer's total valence
  BVA  - Mayer's bonded valence
  FA   - Mayer's free valence

  ATOM       NA         ZA         QA         VA         BVA        FA
  0 V     22.4652    23.0000     0.5348     4.5431     2.1543     2.3887
  1 S     16.5348    16.0000    -0.5348     2.2419     2.1543     0.0876

  Mayer bond orders larger than 0.100000
B(  0-V ,  1-S ) :   2.1543 

-------
TIMINGS
-------

Total SCF time: 0 days 0 hours 3 min 39 sec 

Total time                  ....     219.094 sec
Sum of individual times     ....     213.534 sec  ( 97.5%)

Fock matrix formation       ....     203.667 sec  ( 93.0%)
  XC integration            ....     189.796 sec  ( 93.2% of F)
    Basis function eval.    ....       0.050 sec  (  0.0% of XC)
    Density eval.           ....       0.062 sec  (  0.0% of XC)
    XC-Functional eval.     ....       0.047 sec  (  0.0% of XC)
    XC-Potential eval.      ....       0.111 sec  (  0.1% of XC)
Diagonalization             ....       3.862 sec  (  1.8%)
Density matrix formation    ....       0.142 sec  (  0.1%)
Population analysis         ....       0.596 sec  (  0.3%)
Initial guess               ....       0.568 sec  (  0.3%)
Orbital Transformation      ....       0.000 sec  (  0.0%)
Orbital Orthonormalization  ....       0.000 sec  (  0.0%)
DIIS solution               ....       0.281 sec  (  0.1%)
Grid generation             ....       4.419 sec  (  2.0%)

-------------------------   --------------------
FINAL SINGLE POINT ENERGY     -1341.891182055323
-------------------------   --------------------


----------------------------------------------------------------------------
                           ORCA NUMERICAL GRADIENT
                              (28-process run)
----------------------------------------------------------------------------

I state                        ... 1
J state                        ... 0
Number of atoms                ... 2
Derivative's order of accuracy ... 2
Central differences            ... used
Number of displacements        ... 12
Numerical increment            ... 5.000e-03 bohr
Translation invariance         ... used

The output will be reduced. Please look at the following files:
SCF program output             ... >VS.lastscf
Integral program output        ... >VS.lastint
Gradient program output        ... >VS.lastgrad


     Note:   There are more processes than displacements to do
     ===>:   Reducing number of processes to   3

             <<<Displacing   2/coordinate 2 (+)>>>
             <<<Displacing   2/coordinate 3 (+)>>>
             <<<Displacing   2/coordinate 1 (+)>>>
             <<<Displacing   2/coordinate 1 (-)>>>
             <<<Displacing   2/coordinate 2 (-)>>>
             <<<Displacing   2/coordinate 3 (-)>>>

------------------------------
CARTESIAN GRADIENT (NUMERICAL)
-------------------------------
   1   V   :   -0.000000000    0.000000001    0.009259053
   2   S   :    0.000000000   -0.000000001   -0.009259053

Norm of the cartesian gradient     ...    0.013094278
RMS gradient                       ...    0.005345717
MAX gradient                       ...    0.009259053

-------
TIMINGS
-------

Total numerical gradient time      ...       36.865 sec


                            ***************************************
                            *     ORCA property calculations      *
                            ***************************************

                                    ---------------------
                                    Active property flags
                                    ---------------------
   (+) Dipole Moment


------------------------------------------------------------------------------
                       ORCA ELECTRIC PROPERTIES CALCULATION
------------------------------------------------------------------------------

Dipole Moment Calculation                       ... on
Quadrupole Moment Calculation                   ... off
Polarizability Calculation                      ... off
GBWName                                         ... VS.gbw
Electron density file                           ... VS.scfp
The origin for moment calculation is the CENTER OF MASS  = ( 0.000000,  0.000000  1.494907)

-------------
DIPOLE MOMENT
-------------
                                X             Y             Z
Electronic contribution:      0.00000       0.00000      -6.08393
Nuclear contribution   :      0.00000       0.00000       3.62116
                        -----------------------------------------
Total Dipole Moment    :      0.00000       0.00000      -2.46276
                        -----------------------------------------
Magnitude (a.u.)       :      2.46276
Magnitude (Debye)      :      6.25984



--------------------
Rotational spectrum 
--------------------
 
Rotational constants in cm-1:     0.000000     0.204264     0.204264 
Rotational constants in MHz :     0.000000  6123.691915  6123.691915 

 Dipole components along the rotational axes: 
x,y,z [a.u.] :    -2.462762     0.000000     0.000000 
x,y,z [Debye]:    -6.259845     0.000000     0.000000 

 

Timings for individual modules:

Sum of individual times         ...      260.645 sec (=   4.344 min)
GTO integral calculation        ...        3.950 sec (=   0.066 min)   1.5 %
SCF iterations                  ...      219.831 sec (=   3.664 min)  84.3 %
SCF Gradient evaluation         ...       36.865 sec (=   0.614 min)  14.1 %
                             ****ORCA TERMINATED NORMALLY****
TOTAL RUN TIME: 0 days 0 hours 5 minutes 4 seconds 574 msec
