
                                 *****************
                                 * O   R   C   A *
                                 *****************

           --- An Ab Initio, DFT and Semiempirical electronic structure package ---

                  #######################################################
                  #                        -***-                        #
                  #          Department of theory and spectroscopy      #
                  #               Directorship: Frank Neese             #
                  #        Max Planck Institute fuer Kohlenforschung    #
                  #                Kaiser Wilhelm Platz 1               #
                  #                 D-45470 Muelheim/Ruhr               #
                  #                      Germany                        #
                  #                                                     #
                  #                  All rights reserved                #
                  #                        -***-                        #
                  #######################################################


                         Program Version 4.2.0 -  RELEASE  -


 With contributions from (in alphabetic order):
   Daniel Aravena         : Magnetic Suceptibility
   Michael Atanasov       : Ab Initio Ligand Field Theory (pilot matlab implementation)
   Alexander A. Auer      : GIAO ZORA, VPT2
   Ute Becker             : Parallelization
   Giovanni Bistoni       : ED, misc. LED, open-shell LED, HFLED
   Martin Brehm           : Molecular dynamics
   Dmytro Bykov           : SCF Hessian
   Vijay G. Chilkuri      : MRCI spin determinant printing, contributions to CSF-ICE
   Dipayan Datta          : RHF DLPNO-CCSD density
   Achintya Kumar Dutta   : EOM-CC, STEOM-CC
   Dmitry Ganyushin       : Spin-Orbit,Spin-Spin,Magnetic field MRCI
   Miquel Garcia          : C-PCM Hessian, Gaussian charge scheme
   Yang Guo               : DLPNO-NEVPT2, CIM, IAO-localization
   Andreas Hansen         : Spin unrestricted coupled pair/coupled cluster methods
   Benjamin Helmich-Paris : CASSCF linear response (MC-RPA)
   Lee Huntington         : MR-EOM, pCC
   Robert Izsak           : Overlap fitted RIJCOSX, COSX-SCS-MP3, EOM
   Christian Kollmar      : KDIIS, OOCD, Brueckner-CCSD(T), CCSD density
   Simone Kossmann        : Meta GGA functionals, TD-DFT gradient, OOMP2, MP2 Hessian
   Martin Krupicka        : AUTO-CI
   Lucas Lang             : DCDCAS
   Dagmar Lenk            : GEPOL surface, SMD
   Dimitrios Liakos       : Extrapolation schemes; Compound Job, initial MDCI parallelization
   Dimitrios Manganas     : Further ROCIS development; embedding schemes
   Dimitrios Pantazis     : SARC Basis sets
   Taras Petrenko         : DFT Hessian,TD-DFT gradient, ASA, ECA, R-Raman, ABS, FL, XAS/XES, NRVS
   Peter Pinski           : DLPNO-MP2, DLPNO-MP2 Gradient
   Christoph Reimann      : Effective Core Potentials
   Marius Retegan         : Local ZFS, SOC
   Christoph Riplinger    : Optimizer, TS searches, QM/MM, DLPNO-CCSD(T), (RO)-DLPNO pert. Triples
   Tobias Risthaus        : Range-separated hybrids, TD-DFT gradient, RPA, STAB
   Michael Roemelt        : Original ROCIS implementation
   Masaaki Saitow         : Open-shell DLPNO-CCSD energy and density
   Barbara Sandhoefer     : DKH picture change effects
   Avijit Sen             : IP-ROCIS
   Kantharuban Sivalingam : CASSCF convergence, NEVPT2, FIC-MRCI
   Bernardo de Souza      : ESD, SOC TD-DFT
   Georgi Stoychev        : AutoAux, RI-MP2 NMR
   Willem Van den Heuvel  : Paramagnetic NMR
   Boris Wezisla          : Elementary symmetry handling
   Frank Wennmohs         : Technical directorship


 We gratefully acknowledge several colleagues who have allowed us to
 interface, adapt or use parts of their codes:
   Stefan Grimme, W. Hujo, H. Kruse,             : VdW corrections, initial TS optimization,
                  C. Bannwarth                     DFT functionals, gCP, sTDA/sTD-DF
   Ed Valeev, F. Pavosevic, A. Kumar             : LibInt (2-el integral package), F12 methods
   Garnet Chan, S. Sharma, J. Yang, R. Olivares  : DMRG
   Ulf Ekstrom                                   : XCFun DFT Library
   Mihaly Kallay                                 : mrcc  (arbitrary order and MRCC methods)
   Andreas Klamt, Michael Diedenhofen            : otool_cosmo (COSMO solvation model)
   Jiri Pittner, Ondrej Demel                    : Mk-CCSD
   Frank Weinhold                                : gennbo (NPA and NBO analysis)
   Christopher J. Cramer and Donald G. Truhlar   : smd solvation model
   Lars Goerigk                                  : TD-DFT with DH, B97 family of functionals
   V. Asgeirsson, H. Jonsson                     : NEB implementation
   FAccTs GmbH                                   : IRC, NEB, NEB-TS, Multilevel, MM, QM/MM, CI optimization
   S Lehtola, MJT Oliveira, MAL Marques          : LibXC Library


 Your calculation uses the libint2 library for the computation of 2-el integrals
 For citations please refer to: http://libint.valeyev.net

 Your ORCA version has been built with support for libXC version: 4.2.3
 For citations please refer to: https://tddft.org/programs/libxc/

 This ORCA versions uses:
   CBLAS   interface :  Fast vector & matrix operations
   LAPACKE interface :  Fast linear algebra routines
   SCALAPACK package :  Parallel linear algebra routines


Your calculation utilizes the atom-pairwise dispersion correction
with the zero-damping scheme (D30)
Cite in your paper:
S.Grimme, J.Antony, S.Ehrlich and H.Krieg, J.Chem.Phys., 132, (2010), 154104 
   

XCFun DFT library Copyright 2009-2010 Ulf Ekstrom and contributors.
See http://admol.org/xcfun for more information. This is free soft-
ware; see the source code for copying conditions. There is ABSOLUTELY
NO WARRANTY; not even for MERCHANTABILITY or FITNESS FOR A PARTICULAR
PURPOSE. For details see the documentation. Scientific users of this 
library should cite U. Ekstrom, L. Visscher, R. Bast, A. J. Thorvald-
sen and K. Ruud; J.Chem.Theor.Comp. 2010, DOI: 10.1021/ct100117s
XCFun Version 0.99 
----- Orbital basis set information -----
Your calculation utilizes the basis: def2-TZVPPD
   F. Weigend and R. Ahlrichs, Phys. Chem. Chem. Phys. 7, 3297 (2005).
   D. Rappoport and F. Furche, J. Chem. Phys. 133 134105 (2010).

----- AuxJK basis set information -----
Your calculation utilizes the auxiliary basis: def2/JK
   H-Ba, Hf-Rn: F. Weigend, J. Comput. Chem. 29, 167 (2008).

================================================================================
                                        WARNINGS
                       Please study these warnings very carefully!
================================================================================


WARNING: your system is open-shell and RHF/RKS was chosen
  ===> : WILL SWITCH to UHF/UKS


WARNING: Minnesota functionals are quite sensitive to the integration grid.
         see SE Wheeler, KN Houk, JCTC 2010, 6, 395,
             N Mardirossian, M Head-Gordon, JCTC 2016, 12, 4303.
         Grid6 seems to be a minimum grid for reliable results with these functionals!
  ===> : Please increase the integration grid!


INFO   : the flag for use of LIBINT has been found!

================================================================================
                                       INPUT FILE
================================================================================
NAME = b2.in
|  1> #
|  2> # b2 M06-D3/Def2-TZVPPD
|  3> #
|  4> ! m06 d3zero def2-tzvppd def2/jk grid4 nofinalgrid
|  5> 
|  6> *xyz 0 3
|  7> B          0.00000        0.00000        0.80705
|  8> B          0.00000        0.00000       -0.80705
|  9> *
| 10> 
| 11> %maxcore 5000
| 12> 
| 13> %pal
| 14> nprocs = 28
| 15> end
| 16> 
| 17> 
| 18>                          ****END OF INPUT****
================================================================================

                       ****************************
                       * Single Point Calculation *
                       ****************************

---------------------------------
CARTESIAN COORDINATES (ANGSTROEM)
---------------------------------
  B      0.000000    0.000000    0.807050
  B      0.000000    0.000000   -0.807050

----------------------------
CARTESIAN COORDINATES (A.U.)
----------------------------
  NO LB      ZA    FRAG     MASS         X           Y           Z
   0 B     5.0000    0    10.810    0.000000    0.000000    1.525103
   1 B     5.0000    0    10.810    0.000000    0.000000   -1.525103

--------------------------------
INTERNAL COORDINATES (ANGSTROEM)
--------------------------------
 B      0   0   0     0.000000000000     0.00000000     0.00000000
 B      1   0   0     1.614100000000     0.00000000     0.00000000

---------------------------
INTERNAL COORDINATES (A.U.)
---------------------------
 B      0   0   0     0.000000000000     0.00000000     0.00000000
 B      1   0   0     3.050206952762     0.00000000     0.00000000

---------------------
BASIS SET INFORMATION
---------------------
There are 1 groups of distinct atoms

 Group   1 Type B   : 12s6p3d1f contracted to 6s3p3d1f pattern {621111/411/111/1}

Atom   0B    basis set group =>   1
Atom   1B    basis set group =>   1
----------------------------------
AUXILIARY/JK BASIS SET INFORMATION
----------------------------------
There are 1 groups of distinct atoms

 Group   1 Type B   : 14s10p6d2f1g contracted to 10s8p5d1f1g pattern {5111111111/31111111/21111/2/1}

Atom   0B    basis set group =>   1
Atom   1B    basis set group =>   1


           ************************************************************
           *        Program running with 28 parallel MPI-processes    *
           *              working on a common directory               *
           ************************************************************
------------------------------------------------------------------------------
                           ORCA GTO INTEGRAL CALCULATION
------------------------------------------------------------------------------

                         BASIS SET STATISTICS AND STARTUP INFO

 # of primitive gaussian shells          ...   44
 # of primitive gaussian functions       ...  104
 # of contracted shells                  ...   26
 # of contracted basis functions         ...   74
 Highest angular momentum                ...    3
 Maximum contraction depth               ...    6
 Integral package used                   ... LIBINT
 Integral threshhold            Thresh   ...  1.000e-10
 Primitive cut-off              TCut     ...  1.000e-11


------------------------------ INTEGRAL EVALUATION ----------------------------


 * One electron integrals 
 Pre-screening matrix                    ... done
 Shell pair data                         ... done (   0.000 sec)



           ************************************************************
           *        Program running with 28 parallel MPI-processes    *
           *              working on a common directory               *
           ************************************************************
-------------------------------------------------------------------------------
                                 ORCA SCF
-------------------------------------------------------------------------------

------------
SCF SETTINGS
------------
Hamiltonian:
 Density Functional     Method          .... DFT(GTOs)
 Exchange Functional    Exchange        .... M06
 Correlation Functional Correlation     .... M06
 Gradients option       PostSCFGGA      .... off
 Hybrid DFT is turned on
   Fraction HF Exchange ScalHFX         ....  0.270000
   Scaling of DF-GGA-X  ScalDFX         ....  0.730000
   Scaling of DF-GGA-C  ScalDFC         ....  1.000000
   Scaling of DF-LDA-C  ScalLDAC        ....  1.000000
   Perturbative correction              ....  0.000000
   Density functional embedding theory  .... OFF


General Settings:
 Integral files         IntName         .... b2
 Hartree-Fock type      HFTyp           .... UHF
 Total Charge           Charge          ....    0
 Multiplicity           Mult            ....    3
 Number of Electrons    NEL             ....   10
 Basis Dimension        Dim             ....   74
 Nuclear Repulsion      ENuc            ....      8.1961651741 Eh

Convergence Acceleration:
 DIIS                   CNVDIIS         .... on
   Start iteration      DIISMaxIt       ....    12
   Startup error        DIISStart       ....  0.200000
   # of expansion vecs  DIISMaxEq       ....     5
   Bias factor          DIISBfac        ....   1.050
   Max. coefficient     DIISMaxC        ....  10.000
 Newton-Raphson         CNVNR           .... off
 SOSCF                  CNVSOSCF        .... off
 Level Shifting         CNVShift        .... on
   Level shift para.    LevelShift      ....    0.2500
   Turn off err/grad.   ShiftErr        ....    0.0010
 Zerner damping         CNVZerner       .... off
 Static damping         CNVDamp         .... on
   Fraction old density DampFac         ....    0.7000
   Max. Damping (<1)    DampMax         ....    0.9800
   Min. Damping (>=0)   DampMin         ....    0.0000
   Turn off err/grad.   DampErr         ....    0.1000
 Fernandez-Rico         CNVRico         .... off

SCF Procedure:
 Maximum # iterations   MaxIter         ....   125
 SCF integral mode      SCFMode         .... Direct
   Integral package                     .... LIBINT
 Reset frequency        DirectResetFreq ....    20
 Integral Threshold     Thresh          ....  1.000e-10 Eh
 Primitive CutOff       TCut            ....  1.000e-11 Eh

Convergence Tolerance:
 Convergence Check Mode ConvCheckMode   .... Total+1el-Energy
 Convergence forced     ConvForced      .... 0
 Energy Change          TolE            ....  1.000e-06 Eh
 1-El. energy change                    ....  1.000e-03 Eh
 DIIS Error             TolErr          ....  1.000e-06


Diagonalization of the overlap matrix:
Smallest eigenvalue                        ... 1.449e-05
Time for diagonalization                   ...    0.002 sec
Threshold for overlap eigenvalues          ... 1.000e-08
Number of eigenvalues below threshold      ... 0
Time for construction of square roots      ...    0.026 sec
Total time needed                          ...    0.028 sec

-------------------
DFT GRID GENERATION
-------------------

General Integration Accuracy     IntAcc      ...  4.670
Radial Grid Type                 RadialGrid  ... Gauss-Chebyshev
Angular Grid (max. acc.)         AngularGrid ... Lebedev-302
Angular grid pruning method      GridPruning ... 3 (G Style)
Weight generation scheme         WeightScheme... Becke
Basis function cutoff            BFCut       ...    1.0000e-10
Integration weight cutoff        WCut        ...    1.0000e-14
Grids for H and He will be reduced by one unit

# of grid points (after initial pruning)     ...  12256 (   0.0 sec)
# of grid points (after weights+screening)   ...  12226 (   0.0 sec)
nearest neighbour list constructed           ...    0.0 sec
Grid point re-assignment to atoms done       ...    0.0 sec
Grid point division into batches done        ...    0.1 sec
Reduced shell lists constructed in    0.1 sec

Total number of grid points                  ...    12226
Total number of batches                      ...      192
Average number of points per batch           ...       63
Average number of grid points per atom       ...     6113
Average number of shells per batch           ...     6.50 (25.00%)
Average number of basis functions per batch  ...    16.25 (21.96%)
Average number of large shells per batch     ...     5.25 (80.77%)
Average number of large basis fcns per batch ...    14.25 (87.69%)
Maximum spatial batch extension              ...  28.80, 28.80, 15.72 au
Average spatial batch extension              ...   0.81,  0.73,  0.49 au

Time for grid setup =    0.088 sec

------------------------------
INITIAL GUESS: MODEL POTENTIAL
------------------------------
Loading Hartree-Fock densities                     ... done
Calculating cut-offs                               ... done
Setting up the integral package                    ... done
Initializing the effective Hamiltonian             ... done
Starting the Coulomb interaction                   ... done (   0.0 sec)
Reading the grid                                   ... done
Mapping shells                                     ... done
Starting the XC term evaluation                    ... done (   0.0 sec)
  promolecular density results
     # of electrons  =      9.999996822
     EX              =     -7.401845084
     EC              =     -0.256699779
     EX+EC           =     -7.658544863
Transforming the Hamiltonian                       ... done (   0.0 sec)
Diagonalizing the Hamiltonian                      ... done (   0.0 sec)
Back transforming the eigenvectors                 ... done (   0.0 sec)
Now organizing SCF variables                       ... done
                      ------------------
                      INITIAL GUESS DONE (   0.2 sec)
                      ------------------
--------------
SCF ITERATIONS
--------------
ITER       Energy         Delta-E        Max-DP      RMS-DP      [F,P]     Damp
               ***  Starting incremental Fock matrix formation  ***
  0    -49.3652259540   0.000000000000 0.03816961  0.00142115  0.0698108 0.7000
  1    -49.3703656634  -0.005139709384 0.02778063  0.00116319  0.0497382 0.7000
                               ***Turning on DIIS***
  2    -49.3736605082  -0.003294844753 0.07382083  0.00273706  0.0309903 0.0000
  3    -49.3790761604  -0.005415652235 0.02268893  0.00065650  0.0159580 0.0000
  4    -49.3798039747  -0.000727814278 0.01285338  0.00025803  0.0032849 0.0000
  5    -49.3798773363  -0.000073361630 0.00662301  0.00017754  0.0007463 0.0000
  6    -49.3798938987  -0.000016562403 0.00503156  0.00017199  0.0004769 0.0000
  7    -49.3798960850  -0.000002186294 0.00346621  0.00007830  0.0001533 0.0000
                 **** Energy Check signals convergence ****

               *****************************************************
               *                     SUCCESS                       *
               *           SCF CONVERGED AFTER   8 CYCLES          *
               *****************************************************


----------------
TOTAL SCF ENERGY
----------------

Total Energy       :          -49.37989645 Eh           -1343.69529 eV

Components:
Nuclear Repulsion  :            8.19616517 Eh             223.02899 eV
Electronic Energy  :          -57.57606162 Eh           -1566.72429 eV
One Electron Energy:          -81.16114091 Eh           -2208.50692 eV
Two Electron Energy:           23.58507929 Eh             641.78263 eV

Virial components:
Potential Energy   :          -98.56286094 Eh           -2682.03180 eV
Kinetic Energy     :           49.18296449 Eh            1338.33650 eV
Virial Ratio       :            2.00400407


DFT components:
N(Alpha)           :        5.999998341630 electrons
N(Beta)            :        3.999998337944 electrons
N(Total)           :        9.999996679574 electrons
E(XC)              :       -5.800245894858 Eh       
DFET-embed. en.    :        0.000000000000 Eh       

---------------
SCF CONVERGENCE
---------------

  Last Energy change         ...   -3.6467e-07  Tolerance :   1.0000e-06
  Last MAX-Density change    ...    1.1537e-03  Tolerance :   1.0000e-05
  Last RMS-Density change    ...    3.4604e-05  Tolerance :   1.0000e-06
  Last DIIS Error            ...    3.8130e-05  Tolerance :   1.0000e-06

             **** THE GBW FILE WAS UPDATED (b2.gbw) ****
             **** DENSITY FILE WAS UPDATED (b2.scfp) ****
             **** ENERGY FILE WAS UPDATED (b2.en.tmp) ****
----------------------
UHF SPIN CONTAMINATION
----------------------

Warning: in a DFT calculation there is little theoretical justification to 
         calculate <S**2> as in Hartree-Fock theory. We will do it anyways
         but you should keep in mind that the values have only limited relevance

Expectation value of <S**2>     :     2.003437
Ideal value S*(S+1) for S=1.0   :     2.000000
Deviation                       :     0.003437

             **** THE GBW FILE WAS UPDATED (b2.gbw) ****
             **** DENSITY FILE WAS UPDATED (b2.scfp) ****
----------------
ORBITAL ENERGIES
----------------
                 SPIN UP ORBITALS
  NO   OCC          E(Eh)            E(eV) 
   0   1.0000      -6.889354      -187.4689 
   1   1.0000      -6.888752      -187.4525 
   2   1.0000      -0.561586       -15.2815 
   3   1.0000      -0.309300        -8.4165 
   4   1.0000      -0.251984        -6.8568 
   5   1.0000      -0.251984        -6.8568 
   6   0.0000      -0.163527        -4.4498 
   7   0.0000      -0.024323        -0.6618 
   8   0.0000      -0.024323        -0.6618 
   9   0.0000      -0.024250        -0.6599 
  10   0.0000      -0.009097        -0.2475 
  11   0.0000       0.060878         1.6566 
  12   0.0000       0.081353         2.2137 
  13   0.0000       0.081353         2.2137 
  14   0.0000       0.082905         2.2560 
  15   0.0000       0.082906         2.2560 
  16   0.0000       0.086549         2.3551 
  17   0.0000       0.087677         2.3858 
  18   0.0000       0.087677         2.3858 
  19   0.0000       0.133694         3.6380 
  20   0.0000       0.133694         3.6380 
  21   0.0000       0.163505         4.4492 
  22   0.0000       0.163505         4.4492 
  23   0.0000       0.194295         5.2870 
  24   0.0000       0.195242         5.3128 
  25   0.0000       0.261474         7.1151 
  26   0.0000       0.287166         7.8142 
  27   0.0000       0.291354         7.9281 
  28   0.0000       0.291354         7.9281 
  29   0.0000       0.422668        11.5014 
  30   0.0000       0.422669        11.5014 
  31   0.0000       0.437263        11.8985 
  32   0.0000       0.493654        13.4330 
  33   0.0000       0.493654        13.4330 
  34   0.0000       0.582622        15.8540 
  35   0.0000       0.583364        15.8741 
  36   0.0000       0.583370        15.8743 
  37   0.0000       0.658798        17.9268 
  38   0.0000       0.658799        17.9268 
  39   0.0000       0.747441        20.3389 
  40   0.0000       0.853601        23.2277 
  41   0.0000       0.853601        23.2277 
  42   0.0000       0.863344        23.4928 
  43   0.0000       0.958691        26.0873 
  44   0.0000       1.082681        29.4612 
  45   0.0000       1.082681        29.4612 
  46   0.0000       1.133932        30.8559 
  47   0.0000       1.240654        33.7599 
  48   0.0000       1.501598        40.8606 
  49   0.0000       1.501627        40.8614 
  50   0.0000       1.546189        42.0739 
  51   0.0000       1.546189        42.0739 
  52   0.0000       1.565324        42.5946 
  53   0.0000       1.565324        42.5946 
  54   0.0000       1.689964        45.9863 
  55   0.0000       1.787920        48.6518 
  56   0.0000       1.787920        48.6518 
  57   0.0000       1.810823        49.2750 
  58   0.0000       1.810880        49.2765 
  59   0.0000       1.849945        50.3396 
  60   0.0000       1.849945        50.3396 
  61   0.0000       1.857654        50.5493 
  62   0.0000       1.857693        50.5504 
  63   0.0000       2.108956        57.3876 
  64   0.0000       2.108956        57.3876 
  65   0.0000       2.136144        58.1274 
  66   0.0000       2.154520        58.6275 
  67   0.0000       2.154533        58.6278 
  68   0.0000       2.661519        72.4236 
  69   0.0000       2.720166        74.0195 
  70   0.0000       2.720166        74.0195 
  71   0.0000       2.751567        74.8739 
  72   0.0000      13.461130       366.2960 
  73   0.0000      13.903403       378.3308 

                 SPIN DOWN ORBITALS
  NO   OCC          E(Eh)            E(eV) 
   0   1.0000      -6.879523      -187.2013 
   1   1.0000      -6.879243      -187.1937 
   2   1.0000      -0.496154       -13.5010 
   3   1.0000      -0.272770        -7.4224 
   4   0.0000      -0.135382        -3.6839 
   5   0.0000      -0.125775        -3.4225 
   6   0.0000      -0.125775        -3.4225 
   7   0.0000      -0.001315        -0.0358 
   8   0.0000      -0.000713        -0.0194 
   9   0.0000       0.017127         0.4660 
  10   0.0000       0.017127         0.4660 
  11   0.0000       0.071948         1.9578 
  12   0.0000       0.101429         2.7600 
  13   0.0000       0.105422         2.8687 
  14   0.0000       0.105422         2.8687 
  15   0.0000       0.106963         2.9106 
  16   0.0000       0.106964         2.9106 
  17   0.0000       0.114874         3.1259 
  18   0.0000       0.114880         3.1260 
  19   0.0000       0.162726         4.4280 
  20   0.0000       0.162729         4.4281 
  21   0.0000       0.198436         5.3997 
  22   0.0000       0.201505         5.4832 
  23   0.0000       0.201505         5.4832 
  24   0.0000       0.210671         5.7327 
  25   0.0000       0.282369         7.6837 
  26   0.0000       0.305087         8.3018 
  27   0.0000       0.331964         9.0332 
  28   0.0000       0.331964         9.0332 
  29   0.0000       0.439818        11.9681 
  30   0.0000       0.439835        11.9685 
  31   0.0000       0.471439        12.8285 
  32   0.0000       0.499650        13.5962 
  33   0.0000       0.499651        13.5962 
  34   0.0000       0.582683        15.8556 
  35   0.0000       0.582688        15.8557 
  36   0.0000       0.605600        16.4792 
  37   0.0000       0.659438        17.9442 
  38   0.0000       0.659438        17.9442 
  39   0.0000       0.729009        19.8373 
  40   0.0000       0.872942        23.7540 
  41   0.0000       0.893208        24.3054 
  42   0.0000       0.893208        24.3054 
  43   0.0000       0.966300        26.2944 
  44   0.0000       1.104159        30.0457 
  45   0.0000       1.104159        30.0457 
  46   0.0000       1.184032        32.2191 
  47   0.0000       1.211214        32.9588 
  48   0.0000       1.549542        42.1652 
  49   0.0000       1.549542        42.1652 
  50   0.0000       1.568636        42.6848 
  51   0.0000       1.569346        42.7041 
  52   0.0000       1.607237        43.7352 
  53   0.0000       1.607237        43.7352 
  54   0.0000       1.741325        47.3839 
  55   0.0000       1.820242        49.5313 
  56   0.0000       1.820242        49.5313 
  57   0.0000       1.860382        50.6236 
  58   0.0000       1.860596        50.6294 
  59   0.0000       1.886754        51.3412 
  60   0.0000       1.886754        51.3412 
  61   0.0000       1.918725        52.2112 
  62   0.0000       1.918914        52.2163 
  63   0.0000       2.147164        58.4273 
  64   0.0000       2.148788        58.4715 
  65   0.0000       2.148788        58.4715 
  66   0.0000       2.203420        59.9581 
  67   0.0000       2.203435        59.9585 
  68   0.0000       2.712835        73.8200 
  69   0.0000       2.718926        73.9857 
  70   0.0000       2.801281        76.2267 
  71   0.0000       2.801281        76.2267 
  72   0.0000      13.448499       365.9523 
  73   0.0000      13.888018       377.9122 

                    ********************************
                    * MULLIKEN POPULATION ANALYSIS *
                    ********************************

--------------------------------------------
MULLIKEN ATOMIC CHARGES AND SPIN POPULATIONS
--------------------------------------------
   0 B :   -0.000005    0.999998
   1 B :    0.000005    1.000002
Sum of atomic charges         :    0.0000000
Sum of atomic spin populations:    2.0000000

-----------------------------------------------------
MULLIKEN REDUCED ORBITAL CHARGES AND SPIN POPULATIONS
-----------------------------------------------------
CHARGE
  0 B s       :     3.573174  s :     3.573174
      pz      :     0.420408  p :     1.397469
      px      :     0.488530
      py      :     0.488530
      dz2     :     0.006231  d :     0.027053
      dxz     :     0.010411
      dyz     :     0.010411
      dx2y2   :     0.000000
      dxy     :    -0.000000
      f0      :     0.000192  f :     0.002309
      f+1     :     0.001059
      f-1     :     0.001059
      f+2     :    -0.000000
      f-2     :     0.000000
      f+3     :     0.000000
      f-3     :     0.000000
  1 B s       :     3.573165  s :     3.573165
      pz      :     0.420406  p :     1.397468
      px      :     0.488531
      py      :     0.488531
      dz2     :     0.006231  d :     0.027053
      dxz     :     0.010411
      dyz     :     0.010411
      dx2y2   :     0.000000
      dxy     :     0.000000
      f0      :     0.000192  f :     0.002309
      f+1     :     0.001059
      f-1     :     0.001059
      f+2     :     0.000000
      f-2     :     0.000000
      f+3     :     0.000000
      f-3     :     0.000000

SPIN
  0 B s       :     0.092159  s :     0.092159
      pz      :    -0.089936  p :     0.887124
      px      :     0.488530
      py      :     0.488530
      dz2     :    -0.002459  d :     0.018363
      dxz     :     0.010411
      dyz     :     0.010411
      dx2y2   :     0.000000
      dxy     :    -0.000000
      f0      :     0.000235  f :     0.002352
      f+1     :     0.001059
      f-1     :     0.001059
      f+2     :     0.000000
      f-2     :     0.000000
      f+3     :     0.000000
      f-3     :     0.000000
  1 B s       :     0.092162  s :     0.092162
      pz      :    -0.089936  p :     0.887125
      px      :     0.488531
      py      :     0.488531
      dz2     :    -0.002459  d :     0.018363
      dxz     :     0.010411
      dyz     :     0.010411
      dx2y2   :     0.000000
      dxy     :     0.000000
      f0      :     0.000235  f :     0.002352
      f+1     :     0.001059
      f-1     :     0.001059
      f+2     :    -0.000000
      f-2     :    -0.000000
      f+3     :     0.000000
      f-3     :     0.000000


                     *******************************
                     * LOEWDIN POPULATION ANALYSIS *
                     *******************************

-------------------------------------------
LOEWDIN ATOMIC CHARGES AND SPIN POPULATIONS
-------------------------------------------
   0 B :    0.000000    1.000000
   1 B :   -0.000000    1.000000

----------------------------------------------------
LOEWDIN REDUCED ORBITAL CHARGES AND SPIN POPULATIONS
----------------------------------------------------
CHARGE
  0 B s       :     3.146261  s :     3.146261
      pz      :     0.720942  p :     1.653671
      px      :     0.466365
      py      :     0.466365
      dz2     :     0.122916  d :     0.181484
      dxz     :     0.029284
      dyz     :     0.029284
      dx2y2   :     0.000000
      dxy     :     0.000000
      f0      :     0.009881  f :     0.018583
      f+1     :     0.004351
      f-1     :     0.004351
      f+2     :     0.000000
      f-2     :     0.000000
      f+3     :     0.000000
      f-3     :     0.000000
  1 B s       :     3.146261  s :     3.146261
      pz      :     0.720942  p :     1.653672
      px      :     0.466365
      py      :     0.466365
      dz2     :     0.122916  d :     0.181484
      dxz     :     0.029284
      dyz     :     0.029284
      dx2y2   :     0.000000
      dxy     :     0.000000
      f0      :     0.009881  f :     0.018583
      f+1     :     0.004351
      f-1     :     0.004351
      f+2     :     0.000000
      f-2     :     0.000000
      f+3     :     0.000000
      f-3     :     0.000000

SPIN
  0 B s       :     0.004248  s :     0.004248
      pz      :    -0.009860  p :     0.922869
      px      :     0.466365
      py      :     0.466365
      dz2     :     0.004990  d :     0.063559
      dxz     :     0.029284
      dyz     :     0.029284
      dx2y2   :     0.000000
      dxy     :    -0.000000
      f0      :     0.000622  f :     0.009324
      f+1     :     0.004351
      f-1     :     0.004351
      f+2     :     0.000000
      f-2     :    -0.000000
      f+3     :     0.000000
      f-3     :     0.000000
  1 B s       :     0.004248  s :     0.004248
      pz      :    -0.009861  p :     0.922869
      px      :     0.466365
      py      :     0.466365
      dz2     :     0.004990  d :     0.063559
      dxz     :     0.029284
      dyz     :     0.029284
      dx2y2   :     0.000000
      dxy     :     0.000000
      f0      :     0.000622  f :     0.009324
      f+1     :     0.004351
      f-1     :     0.004351
      f+2     :    -0.000000
      f-2     :    -0.000000
      f+3     :     0.000000
      f-3     :     0.000000


                      *****************************
                      * MAYER POPULATION ANALYSIS *
                      *****************************

  NA   - Mulliken gross atomic population
  ZA   - Total nuclear charge
  QA   - Mulliken gross atomic charge
  VA   - Mayer's total valence
  BVA  - Mayer's bonded valence
  FA   - Mayer's free valence

  ATOM       NA         ZA         QA         VA         BVA        FA
  0 B      5.0000     5.0000    -0.0000     2.7323     2.2327     0.4996
  1 B      5.0000     5.0000     0.0000     2.7323     2.2327     0.4996

  Mayer bond orders larger than 0.100000
B(  0-B ,  1-B ) :   2.2327 

-------
TIMINGS
-------

Total SCF time: 0 days 0 hours 0 min 6 sec 

Total time                  ....       6.016 sec
Sum of individual times     ....       5.487 sec  ( 91.2%)

Fock matrix formation       ....       5.063 sec  ( 84.2%)
  XC integration            ....       3.422 sec  ( 67.6% of F)
    Basis function eval.    ....       0.007 sec  (  0.2% of XC)
    Density eval.           ....       0.018 sec  (  0.5% of XC)
    XC-Functional eval.     ....       0.032 sec  (  0.9% of XC)
    XC-Potential eval.      ....       0.038 sec  (  1.1% of XC)
Diagonalization             ....       0.086 sec  (  1.4%)
Density matrix formation    ....       0.004 sec  (  0.1%)
Population analysis         ....       0.079 sec  (  1.3%)
Initial guess               ....       0.102 sec  (  1.7%)
Orbital Transformation      ....       0.000 sec  (  0.0%)
Orbital Orthonormalization  ....       0.000 sec  (  0.0%)
DIIS solution               ....       0.064 sec  (  1.1%)
Grid generation             ....       0.088 sec  (  1.5%)


-------------------------------------------------------------------------------
                          DFT DISPERSION CORRECTION                            
                                                                               
                              DFTD3 V3.1  Rev 1                                
                              USING zero damping                               
-------------------------------------------------------------------------------
The M06 functional is recognized
Active option DFTDOPT                   ...         3   

molecular C6(AA) [au] = 301.304782 


            DFT-D V3
 parameters
 s6 scaling factor         :     1.0000 
 rs6 scaling factor        :     1.3250 
 s8 scaling factor         :     0.0000 
 rs8 scaling factor        :     1.0000 
 Damping factor alpha6     :    14.0000 
 Damping factor alpha8     :    16.0000 
 ad hoc parameters k1-k3   :    16.0000     1.3333    -4.0000 

 Edisp/kcal,au: -0.000012246699  -0.000000019516 
 E6   /kcal   :  -0.000012247 
 E8   /kcal   :  -0.000000000 
 % E8         :   0.000000000 

-------------------------   ----------------
Dispersion correction           -0.000000020
-------------------------   ----------------


-------------------------   --------------------
FINAL SINGLE POINT ENERGY       -49.379896469196
-------------------------   --------------------


                            ***************************************
                            *     ORCA property calculations      *
                            ***************************************

                                    ---------------------
                                    Active property flags
                                    ---------------------
   (+) Dipole Moment


------------------------------------------------------------------------------
                       ORCA ELECTRIC PROPERTIES CALCULATION
------------------------------------------------------------------------------

Dipole Moment Calculation                       ... on
Quadrupole Moment Calculation                   ... off
Polarizability Calculation                      ... off
GBWName                                         ... b2.gbw
Electron density file                           ... b2.scfp
The origin for moment calculation is the CENTER OF MASS  = ( 0.000000,  0.000000  0.000000)

-------------
DIPOLE MOMENT
-------------
                                X             Y             Z
Electronic contribution:      0.00000       0.00000       0.00000
Nuclear contribution   :      0.00000       0.00000       0.00000
                        -----------------------------------------
Total Dipole Moment    :      0.00000       0.00000       0.00000
                        -----------------------------------------
Magnitude (a.u.)       :      0.00000
Magnitude (Debye)      :      0.00000



--------------------
Rotational spectrum 
--------------------
 
Rotational constants in cm-1:     0.000000     1.197127     1.197127 
Rotational constants in MHz :     0.000000 35888.972992 35888.972992 

 Dipole components along the rotational axes: 
x,y,z [a.u.] :     0.000001     0.000000     0.000000 
x,y,z [Debye]:     0.000003     0.000000     0.000000 

 

Timings for individual modules:

Sum of individual times         ...        7.440 sec (=   0.124 min)
GTO integral calculation        ...        0.856 sec (=   0.014 min)  11.5 %
SCF iterations                  ...        6.584 sec (=   0.110 min)  88.5 %
                             ****ORCA TERMINATED NORMALLY****
TOTAL RUN TIME: 0 days 0 hours 0 minutes 8 seconds 115 msec
