
                                 *****************
                                 * O   R   C   A *
                                 *****************

           --- An Ab Initio, DFT and Semiempirical electronic structure package ---

                  #######################################################
                  #                        -***-                        #
                  #          Department of theory and spectroscopy      #
                  #               Directorship: Frank Neese             #
                  #        Max Planck Institute fuer Kohlenforschung    #
                  #                Kaiser Wilhelm Platz 1               #
                  #                 D-45470 Muelheim/Ruhr               #
                  #                      Germany                        #
                  #                                                     #
                  #                  All rights reserved                #
                  #                        -***-                        #
                  #######################################################


                         Program Version 4.2.0 -  RELEASE  -


 With contributions from (in alphabetic order):
   Daniel Aravena         : Magnetic Suceptibility
   Michael Atanasov       : Ab Initio Ligand Field Theory (pilot matlab implementation)
   Alexander A. Auer      : GIAO ZORA, VPT2
   Ute Becker             : Parallelization
   Giovanni Bistoni       : ED, misc. LED, open-shell LED, HFLED
   Martin Brehm           : Molecular dynamics
   Dmytro Bykov           : SCF Hessian
   Vijay G. Chilkuri      : MRCI spin determinant printing, contributions to CSF-ICE
   Dipayan Datta          : RHF DLPNO-CCSD density
   Achintya Kumar Dutta   : EOM-CC, STEOM-CC
   Dmitry Ganyushin       : Spin-Orbit,Spin-Spin,Magnetic field MRCI
   Miquel Garcia          : C-PCM Hessian, Gaussian charge scheme
   Yang Guo               : DLPNO-NEVPT2, CIM, IAO-localization
   Andreas Hansen         : Spin unrestricted coupled pair/coupled cluster methods
   Benjamin Helmich-Paris : CASSCF linear response (MC-RPA)
   Lee Huntington         : MR-EOM, pCC
   Robert Izsak           : Overlap fitted RIJCOSX, COSX-SCS-MP3, EOM
   Christian Kollmar      : KDIIS, OOCD, Brueckner-CCSD(T), CCSD density
   Simone Kossmann        : Meta GGA functionals, TD-DFT gradient, OOMP2, MP2 Hessian
   Martin Krupicka        : AUTO-CI
   Lucas Lang             : DCDCAS
   Dagmar Lenk            : GEPOL surface, SMD
   Dimitrios Liakos       : Extrapolation schemes; Compound Job, initial MDCI parallelization
   Dimitrios Manganas     : Further ROCIS development; embedding schemes
   Dimitrios Pantazis     : SARC Basis sets
   Taras Petrenko         : DFT Hessian,TD-DFT gradient, ASA, ECA, R-Raman, ABS, FL, XAS/XES, NRVS
   Peter Pinski           : DLPNO-MP2, DLPNO-MP2 Gradient
   Christoph Reimann      : Effective Core Potentials
   Marius Retegan         : Local ZFS, SOC
   Christoph Riplinger    : Optimizer, TS searches, QM/MM, DLPNO-CCSD(T), (RO)-DLPNO pert. Triples
   Tobias Risthaus        : Range-separated hybrids, TD-DFT gradient, RPA, STAB
   Michael Roemelt        : Original ROCIS implementation
   Masaaki Saitow         : Open-shell DLPNO-CCSD energy and density
   Barbara Sandhoefer     : DKH picture change effects
   Avijit Sen             : IP-ROCIS
   Kantharuban Sivalingam : CASSCF convergence, NEVPT2, FIC-MRCI
   Bernardo de Souza      : ESD, SOC TD-DFT
   Georgi Stoychev        : AutoAux, RI-MP2 NMR
   Willem Van den Heuvel  : Paramagnetic NMR
   Boris Wezisla          : Elementary symmetry handling
   Frank Wennmohs         : Technical directorship


 We gratefully acknowledge several colleagues who have allowed us to
 interface, adapt or use parts of their codes:
   Stefan Grimme, W. Hujo, H. Kruse,             : VdW corrections, initial TS optimization,
                  C. Bannwarth                     DFT functionals, gCP, sTDA/sTD-DF
   Ed Valeev, F. Pavosevic, A. Kumar             : LibInt (2-el integral package), F12 methods
   Garnet Chan, S. Sharma, J. Yang, R. Olivares  : DMRG
   Ulf Ekstrom                                   : XCFun DFT Library
   Mihaly Kallay                                 : mrcc  (arbitrary order and MRCC methods)
   Andreas Klamt, Michael Diedenhofen            : otool_cosmo (COSMO solvation model)
   Jiri Pittner, Ondrej Demel                    : Mk-CCSD
   Frank Weinhold                                : gennbo (NPA and NBO analysis)
   Christopher J. Cramer and Donald G. Truhlar   : smd solvation model
   Lars Goerigk                                  : TD-DFT with DH, B97 family of functionals
   V. Asgeirsson, H. Jonsson                     : NEB implementation
   FAccTs GmbH                                   : IRC, NEB, NEB-TS, Multilevel, MM, QM/MM, CI optimization
   S Lehtola, MJT Oliveira, MAL Marques          : LibXC Library


 Your calculation uses the libint2 library for the computation of 2-el integrals
 For citations please refer to: http://libint.valeyev.net

 Your ORCA version has been built with support for libXC version: 4.2.3
 For citations please refer to: https://tddft.org/programs/libxc/

 This ORCA versions uses:
   CBLAS   interface :  Fast vector & matrix operations
   LAPACKE interface :  Fast linear algebra routines
   SCALAPACK package :  Parallel linear algebra routines


Your calculation utilizes the atom-pairwise dispersion correction
with the zero-damping scheme (D30)
Cite in your paper:
S.Grimme, J.Antony, S.Ehrlich and H.Krieg, J.Chem.Phys., 132, (2010), 154104 
   

XCFun DFT library Copyright 2009-2010 Ulf Ekstrom and contributors.
See http://admol.org/xcfun for more information. This is free soft-
ware; see the source code for copying conditions. There is ABSOLUTELY
NO WARRANTY; not even for MERCHANTABILITY or FITNESS FOR A PARTICULAR
PURPOSE. For details see the documentation. Scientific users of this 
library should cite U. Ekstrom, L. Visscher, R. Bast, A. J. Thorvald-
sen and K. Ruud; J.Chem.Theor.Comp. 2010, DOI: 10.1021/ct100117s
XCFun Version 0.99 
----- Orbital basis set information -----
Your calculation utilizes the basis: def2-TZVPPD
   F. Weigend and R. Ahlrichs, Phys. Chem. Chem. Phys. 7, 3297 (2005).
   D. Rappoport and F. Furche, J. Chem. Phys. 133 134105 (2010).

----- AuxJK basis set information -----
Your calculation utilizes the auxiliary basis: def2/JK
   H-Ba, Hf-Rn: F. Weigend, J. Comput. Chem. 29, 167 (2008).

================================================================================
                                        WARNINGS
                       Please study these warnings very carefully!
================================================================================


WARNING: your system is open-shell and RHF/RKS was chosen
  ===> : WILL SWITCH to UHF/UKS


WARNING: Minnesota functionals are quite sensitive to the integration grid.
         see SE Wheeler, KN Houk, JCTC 2010, 6, 395,
             N Mardirossian, M Head-Gordon, JCTC 2016, 12, 4303.
         Grid6 seems to be a minimum grid for reliable results with these functionals!
  ===> : Please increase the integration grid!


INFO   : the flag for use of LIBINT has been found!

================================================================================
                                       INPUT FILE
================================================================================
NAME = CH2.in
|  1> #
|  2> # CH2 M06-D3/Def2-TZVPPD
|  3> #
|  4> ! m06 d3zero def2-tzvppd def2/jk grid4 nofinalgrid
|  5> 
|  6> *xyz 0 3
|  7> C          0.00000        0.00000        0.00000
|  8> H          0.00000        0.00000        1.07672
|  9> H          0.77665        0.00000       -0.74575
| 10> *
| 11> 
| 12> %maxcore 5000
| 13> 
| 14> %pal
| 15> nprocs = 28
| 16> end
| 17> 
| 18> 
| 19>                          ****END OF INPUT****
================================================================================

                       ****************************
                       * Single Point Calculation *
                       ****************************

---------------------------------
CARTESIAN COORDINATES (ANGSTROEM)
---------------------------------
  C      0.000000    0.000000    0.000000
  H      0.000000    0.000000    1.076720
  H      0.776650    0.000000   -0.745750

----------------------------
CARTESIAN COORDINATES (A.U.)
----------------------------
  NO LB      ZA    FRAG     MASS         X           Y           Z
   0 C     6.0000    0    12.011    0.000000    0.000000    0.000000
   1 H     1.0000    0     1.008    0.000000    0.000000    2.034706
   2 H     1.0000    0     1.008    1.467656    0.000000   -1.409263

--------------------------------
INTERNAL COORDINATES (ANGSTROEM)
--------------------------------
 C      0   0   0     0.000000000000     0.00000000     0.00000000
 H      1   0   0     1.076720000000     0.00000000     0.00000000
 H      1   2   0     1.076721080410   133.83723297     0.00000000

---------------------------
INTERNAL COORDINATES (A.U.)
---------------------------
 C      0   0   0     0.000000000000     0.00000000     0.00000000
 H      1   0   0     2.034705922916     0.00000000     0.00000000
 H      1   2   0     2.034707964595   133.83723297     0.00000000

---------------------
BASIS SET INFORMATION
---------------------
There are 2 groups of distinct atoms

 Group   1 Type C   : 12s6p3d1f contracted to 6s3p3d1f pattern {621111/411/111/1}
 Group   2 Type H   : 5s3p1d contracted to 3s3p1d pattern {311/111/1}

Atom   0C    basis set group =>   1
Atom   1H    basis set group =>   2
Atom   2H    basis set group =>   2
----------------------------------
AUXILIARY/JK BASIS SET INFORMATION
----------------------------------
There are 2 groups of distinct atoms

 Group   1 Type C   : 14s10p6d2f1g contracted to 10s8p5d1f1g pattern {5111111111/31111111/21111/2/1}
 Group   2 Type H   : 4s2p2d contracted to 2s2p2d pattern {31/11/11}

Atom   0C    basis set group =>   1
Atom   1H    basis set group =>   2
Atom   2H    basis set group =>   2


           ************************************************************
           *        Program running with 28 parallel MPI-processes    *
           *              working on a common directory               *
           ************************************************************
------------------------------------------------------------------------------
                           ORCA GTO INTEGRAL CALCULATION
------------------------------------------------------------------------------

                         BASIS SET STATISTICS AND STARTUP INFO

 # of primitive gaussian shells          ...   40
 # of primitive gaussian functions       ...   90
 # of contracted shells                  ...   27
 # of contracted basis functions         ...   71
 Highest angular momentum                ...    3
 Maximum contraction depth               ...    6
 Integral package used                   ... LIBINT
 Integral threshhold            Thresh   ...  1.000e-10
 Primitive cut-off              TCut     ...  1.000e-11


------------------------------ INTEGRAL EVALUATION ----------------------------


 * One electron integrals 
 Pre-screening matrix                    ... done
 Shell pair data                         ... done (   0.000 sec)



           ************************************************************
           *        Program running with 28 parallel MPI-processes    *
           *              working on a common directory               *
           ************************************************************
-------------------------------------------------------------------------------
                                 ORCA SCF
-------------------------------------------------------------------------------

------------
SCF SETTINGS
------------
Hamiltonian:
 Density Functional     Method          .... DFT(GTOs)
 Exchange Functional    Exchange        .... M06
 Correlation Functional Correlation     .... M06
 Gradients option       PostSCFGGA      .... off
 Hybrid DFT is turned on
   Fraction HF Exchange ScalHFX         ....  0.270000
   Scaling of DF-GGA-X  ScalDFX         ....  0.730000
   Scaling of DF-GGA-C  ScalDFC         ....  1.000000
   Scaling of DF-LDA-C  ScalLDAC        ....  1.000000
   Perturbative correction              ....  0.000000
   Density functional embedding theory  .... OFF


General Settings:
 Integral files         IntName         .... CH2
 Hartree-Fock type      HFTyp           .... UHF
 Total Charge           Charge          ....    0
 Multiplicity           Mult            ....    3
 Number of Electrons    NEL             ....    8
 Basis Dimension        Dim             ....   71
 Nuclear Repulsion      ENuc            ....      6.1647739848 Eh

Convergence Acceleration:
 DIIS                   CNVDIIS         .... on
   Start iteration      DIISMaxIt       ....    12
   Startup error        DIISStart       ....  0.200000
   # of expansion vecs  DIISMaxEq       ....     5
   Bias factor          DIISBfac        ....   1.050
   Max. coefficient     DIISMaxC        ....  10.000
 Newton-Raphson         CNVNR           .... off
 SOSCF                  CNVSOSCF        .... off
 Level Shifting         CNVShift        .... on
   Level shift para.    LevelShift      ....    0.2500
   Turn off err/grad.   ShiftErr        ....    0.0010
 Zerner damping         CNVZerner       .... off
 Static damping         CNVDamp         .... on
   Fraction old density DampFac         ....    0.7000
   Max. Damping (<1)    DampMax         ....    0.9800
   Min. Damping (>=0)   DampMin         ....    0.0000
   Turn off err/grad.   DampErr         ....    0.1000
 Fernandez-Rico         CNVRico         .... off

SCF Procedure:
 Maximum # iterations   MaxIter         ....   125
 SCF integral mode      SCFMode         .... Direct
   Integral package                     .... LIBINT
 Reset frequency        DirectResetFreq ....    20
 Integral Threshold     Thresh          ....  1.000e-10 Eh
 Primitive CutOff       TCut            ....  1.000e-11 Eh

Convergence Tolerance:
 Convergence Check Mode ConvCheckMode   .... Total+1el-Energy
 Convergence forced     ConvForced      .... 0
 Energy Change          TolE            ....  1.000e-06 Eh
 1-El. energy change                    ....  1.000e-03 Eh
 DIIS Error             TolErr          ....  1.000e-06


Diagonalization of the overlap matrix:
Smallest eigenvalue                        ... 1.017e-04
Time for diagonalization                   ...    0.002 sec
Threshold for overlap eigenvalues          ... 1.000e-08
Number of eigenvalues below threshold      ... 0
Time for construction of square roots      ...    0.070 sec
Total time needed                          ...    0.072 sec

-------------------
DFT GRID GENERATION
-------------------

General Integration Accuracy     IntAcc      ...  4.670
Radial Grid Type                 RadialGrid  ... Gauss-Chebyshev
Angular Grid (max. acc.)         AngularGrid ... Lebedev-302
Angular grid pruning method      GridPruning ... 3 (G Style)
Weight generation scheme         WeightScheme... Becke
Basis function cutoff            BFCut       ...    1.0000e-10
Integration weight cutoff        WCut        ...    1.0000e-14
Grids for H and He will be reduced by one unit

# of grid points (after initial pruning)     ...  13000 (   0.0 sec)
# of grid points (after weights+screening)   ...  12891 (   0.0 sec)
nearest neighbour list constructed           ...    0.0 sec
Grid point re-assignment to atoms done       ...    0.0 sec
Grid point division into batches done        ...    0.1 sec
Reduced shell lists constructed in    0.1 sec

Total number of grid points                  ...    12891
Total number of batches                      ...      202
Average number of points per batch           ...       63
Average number of grid points per atom       ...     4297
Average number of shells per batch           ...    13.22 (48.97%)
Average number of basis functions per batch  ...    33.00 (46.48%)
Average number of large shells per batch     ...    10.11 (76.47%)
Average number of large basis fcns per batch ...    25.22 (76.43%)
Maximum spatial batch extension              ...  14.04, 26.79, 13.02 au
Average spatial batch extension              ...   0.45,  0.62,  0.36 au

Time for grid setup =    0.372 sec

------------------------------
INITIAL GUESS: MODEL POTENTIAL
------------------------------
Loading Hartree-Fock densities                     ... done
Calculating cut-offs                               ... done
Setting up the integral package                    ... done
Initializing the effective Hamiltonian             ... done
Starting the Coulomb interaction                   ... done (   0.0 sec)
Reading the grid                                   ... done
Mapping shells                                     ... done
Starting the XC term evaluation                    ... done (   0.0 sec)
  promolecular density results
     # of electrons  =      7.999016147
     EX              =     -5.596618530
     EC              =     -0.224180977
     EX+EC           =     -5.820799507
Transforming the Hamiltonian                       ... done (   0.0 sec)
Diagonalizing the Hamiltonian                      ... done (   0.0 sec)
Back transforming the eigenvectors                 ... done (   0.0 sec)
Now organizing SCF variables                       ... done
                      ------------------
                      INITIAL GUESS DONE (   0.5 sec)
                      ------------------
--------------
SCF ITERATIONS
--------------
ITER       Energy         Delta-E        Max-DP      RMS-DP      [F,P]     Damp
               ***  Starting incremental Fock matrix formation  ***
  0    -39.1197730457   0.000000000000 0.01790053  0.00066613  0.0727166 0.7000
  1    -39.1245534826  -0.004780436925 0.01279503  0.00055561  0.0480163 0.7000
                               ***Turning on DIIS***
  2    -39.1274301075  -0.002876624900 0.02785005  0.00127188  0.0289488 0.0000
  3    -39.1332334364  -0.005803328884 0.01075530  0.00044546  0.0172196 0.0000
  4    -39.1339176605  -0.000684224021 0.00490824  0.00016178  0.0029464 0.0000
  5    -39.1339961361  -0.000078475649 0.00213955  0.00007000  0.0011999 0.0000
  6    -39.1340142466  -0.000018110455 0.00203261  0.00005419  0.0005601 0.0000
  7    -39.1340180874  -0.000003840855 0.00059389  0.00001753  0.0001895 0.0000
                 **** Energy Check signals convergence ****

               *****************************************************
               *                     SUCCESS                       *
               *           SCF CONVERGED AFTER   8 CYCLES          *
               *****************************************************


----------------
TOTAL SCF ENERGY
----------------

Total Energy       :          -39.13401828 Eh           -1064.89078 eV

Components:
Nuclear Repulsion  :            6.16477398 Eh             167.75203 eV
Electronic Energy  :          -45.29879226 Eh           -1232.64280 eV
One Electron Energy:          -64.02311391 Eh           -1742.15750 eV
Two Electron Energy:           18.72432165 Eh             509.51470 eV

Virial components:
Potential Energy   :          -78.09236925 Eh           -2125.00140 eV
Kinetic Energy     :           38.95835097 Eh            1060.11062 eV
Virial Ratio       :            2.00450911


DFT components:
N(Alpha)           :        5.000000328531 electrons
N(Beta)            :        2.999998482818 electrons
N(Total)           :        7.999998811349 electrons
E(XC)              :       -4.480998288324 Eh       
DFET-embed. en.    :        0.000000000000 Eh       

---------------
SCF CONVERGENCE
---------------

  Last Energy change         ...   -1.9181e-07  Tolerance :   1.0000e-06
  Last MAX-Density change    ...    8.4010e-05  Tolerance :   1.0000e-05
  Last RMS-Density change    ...    3.1612e-06  Tolerance :   1.0000e-06
  Last DIIS Error            ...    5.4988e-05  Tolerance :   1.0000e-06

             **** THE GBW FILE WAS UPDATED (CH2.gbw) ****
             **** DENSITY FILE WAS UPDATED (CH2.scfp) ****
             **** ENERGY FILE WAS UPDATED (CH2.en.tmp) ****
----------------------
UHF SPIN CONTAMINATION
----------------------

Warning: in a DFT calculation there is little theoretical justification to 
         calculate <S**2> as in Hartree-Fock theory. We will do it anyways
         but you should keep in mind that the values have only limited relevance

Expectation value of <S**2>     :     2.006709
Ideal value S*(S+1) for S=1.0   :     2.000000
Deviation                       :     0.006709

             **** THE GBW FILE WAS UPDATED (CH2.gbw) ****
             **** DENSITY FILE WAS UPDATED (CH2.scfp) ****
----------------
ORBITAL ENERGIES
----------------
                 SPIN UP ORBITALS
  NO   OCC          E(Eh)            E(eV) 
   0   1.0000     -10.271287      -279.4959 
   1   1.0000      -0.691083       -18.8053 
   2   1.0000      -0.470899       -12.8138 
   3   1.0000      -0.285071        -7.7572 
   4   1.0000      -0.252104        -6.8601 
   5   0.0000      -0.019674        -0.5354 
   6   0.0000       0.045543         1.2393 
   7   0.0000       0.069640         1.8950 
   8   0.0000       0.110399         3.0041 
   9   0.0000       0.134860         3.6697 
  10   0.0000       0.144594         3.9346 
  11   0.0000       0.158741         4.3196 
  12   0.0000       0.181111         4.9283 
  13   0.0000       0.182528         4.9668 
  14   0.0000       0.205184         5.5833 
  15   0.0000       0.243424         6.6239 
  16   0.0000       0.268591         7.3087 
  17   0.0000       0.276785         7.5317 
  18   0.0000       0.277488         7.5508 
  19   0.0000       0.348532         9.4840 
  20   0.0000       0.359233         9.7752 
  21   0.0000       0.413306        11.2466 
  22   0.0000       0.438054        11.9201 
  23   0.0000       0.642542        17.4844 
  24   0.0000       0.681967        18.5573 
  25   0.0000       0.707701        19.2575 
  26   0.0000       0.780415        21.2362 
  27   0.0000       0.785616        21.3777 
  28   0.0000       0.803862        21.8742 
  29   0.0000       0.915756        24.9190 
  30   0.0000       0.975498        26.5446 
  31   0.0000       1.114415        30.3248 
  32   0.0000       1.225246        33.3406 
  33   0.0000       1.228200        33.4210 
  34   0.0000       1.380309        37.5601 
  35   0.0000       1.427625        38.8476 
  36   0.0000       1.534277        41.7498 
  37   0.0000       1.606982        43.7282 
  38   0.0000       1.642424        44.6926 
  39   0.0000       1.728909        47.0460 
  40   0.0000       2.508037        68.2472 
  41   0.0000       2.561142        69.6922 
  42   0.0000       2.568832        69.9015 
  43   0.0000       2.614528        71.1449 
  44   0.0000       2.630459        71.5784 
  45   0.0000       2.717704        73.9525 
  46   0.0000       2.810319        76.4727 
  47   0.0000       2.882590        78.4393 
  48   0.0000       2.929922        79.7272 
  49   0.0000       2.989276        81.3423 
  50   0.0000       3.013209        81.9936 
  51   0.0000       3.058868        83.2360 
  52   0.0000       3.308338        90.0244 
  53   0.0000       3.446239        93.7769 
  54   0.0000       3.508991        95.4845 
  55   0.0000       3.585314        97.5614 
  56   0.0000       3.669843        99.8615 
  57   0.0000       3.704804       100.8128 
  58   0.0000       3.904104       106.2361 
  59   0.0000       3.949620       107.4746 
  60   0.0000       3.985313       108.4459 
  61   0.0000       4.009950       109.1163 
  62   0.0000       4.474990       121.7707 
  63   0.0000       4.762485       129.5938 
  64   0.0000       4.771756       129.8461 
  65   0.0000       4.797337       130.5422 
  66   0.0000       4.936007       134.3156 
  67   0.0000       5.127138       139.5165 
  68   0.0000       5.505238       149.8051 
  69   0.0000       5.526639       150.3875 
  70   0.0000      22.690002       617.4263 

                 SPIN DOWN ORBITALS
  NO   OCC          E(Eh)            E(eV) 
   0   1.0000     -10.244605      -278.7699 
   1   1.0000      -0.603258       -16.4155 
   2   1.0000      -0.442569       -12.0429 
   3   0.0000      -0.060253        -1.6396 
   4   0.0000      -0.033332        -0.9070 
   5   0.0000       0.008618         0.2345 
   6   0.0000       0.058299         1.5864 
   7   0.0000       0.104206         2.8356 
   8   0.0000       0.149560         4.0697 
   9   0.0000       0.154341         4.1998 
  10   0.0000       0.173541         4.7223 
  11   0.0000       0.185452         5.0464 
  12   0.0000       0.238880         6.5003 
  13   0.0000       0.242554         6.6002 
  14   0.0000       0.254564         6.9270 
  15   0.0000       0.283291         7.7087 
  16   0.0000       0.323916         8.8142 
  17   0.0000       0.326595         8.8871 
  18   0.0000       0.328212         8.9311 
  19   0.0000       0.398855        10.8534 
  20   0.0000       0.439322        11.9546 
  21   0.0000       0.450802        12.2669 
  22   0.0000       0.534873        14.5546 
  23   0.0000       0.719192        19.5702 
  24   0.0000       0.745756        20.2930 
  25   0.0000       0.767918        20.8961 
  26   0.0000       0.804283        21.8857 
  27   0.0000       0.808355        21.9965 
  28   0.0000       0.819778        22.3073 
  29   0.0000       0.926909        25.2225 
  30   0.0000       0.974994        26.5309 
  31   0.0000       1.095684        29.8151 
  32   0.0000       1.207993        32.8712 
  33   0.0000       1.210786        32.9472 
  34   0.0000       1.384465        37.6732 
  35   0.0000       1.411251        38.4021 
  36   0.0000       1.582981        43.0751 
  37   0.0000       1.641723        44.6736 
  38   0.0000       1.703723        46.3607 
  39   0.0000       1.750589        47.6360 
  40   0.0000       2.598851        70.7183 
  41   0.0000       2.601630        70.7939 
  42   0.0000       2.625236        71.4363 
  43   0.0000       2.654007        72.2192 
  44   0.0000       2.815126        76.6035 
  45   0.0000       3.041965        82.7761 
  46   0.0000       3.077502        83.7431 
  47   0.0000       3.104668        84.4823 
  48   0.0000       3.119377        84.8826 
  49   0.0000       3.120238        84.9060 
  50   0.0000       3.136665        85.3530 
  51   0.0000       3.137773        85.3831 
  52   0.0000       3.452172        93.9384 
  53   0.0000       3.539082        96.3033 
  54   0.0000       3.575154        97.2849 
  55   0.0000       3.659976        99.5930 
  56   0.0000       3.752862       102.1206 
  57   0.0000       3.757342       102.2425 
  58   0.0000       3.897200       106.0482 
  59   0.0000       3.973112       108.1139 
  60   0.0000       3.982524       108.3700 
  61   0.0000       4.086705       111.2049 
  62   0.0000       4.807645       130.8227 
  63   0.0000       4.867659       132.4557 
  64   0.0000       5.064923       137.8236 
  65   0.0000       5.098994       138.7507 
  66   0.0000       5.349033       145.5546 
  67   0.0000       5.623407       153.0207 
  68   0.0000       5.771291       157.0448 
  69   0.0000       6.450762       175.5342 
  70   0.0000      22.751614       619.1029 

                    ********************************
                    * MULLIKEN POPULATION ANALYSIS *
                    ********************************

--------------------------------------------
MULLIKEN ATOMIC CHARGES AND SPIN POPULATIONS
--------------------------------------------
   0 C :   -0.541644    1.924310
   1 H :    0.271446    0.039744
   2 H :    0.270198    0.035946
Sum of atomic charges         :   -0.0000000
Sum of atomic spin populations:    2.0000000

-----------------------------------------------------
MULLIKEN REDUCED ORBITAL CHARGES AND SPIN POPULATIONS
-----------------------------------------------------
CHARGE
  0 C s       :     3.500680  s :     3.500680
      pz      :     1.128284  p :     3.012700
      px      :     0.937369
      py      :     0.947048
      dz2     :     0.013687  d :     0.027587
      dxz     :     0.010707
      dyz     :     0.000005
      dx2y2   :     0.003152
      dxy     :     0.000036
      f0      :     0.000314  f :     0.000676
      f+1     :     0.000101
      f-1     :     0.000015
      f+2     :     0.000202
      f-2     :     0.000003
      f+3     :     0.000037
      f-3     :     0.000004
  1 H s       :     0.661943  s :     0.661943
      pz      :     0.016813  p :     0.065535
      px      :     0.022913
      py      :     0.025809
      dz2     :    -0.000259  d :     0.001076
      dxz     :     0.000598
      dyz     :     0.000735
      dx2y2   :     0.000001
      dxy     :     0.000000
  2 H s       :     0.663481  s :     0.663481
      pz      :     0.012737  p :     0.065273
      px      :     0.026924
      py      :     0.025611
      dz2     :     0.000428  d :     0.001049
      dxz     :    -0.000218
      dyz     :     0.000364
      dx2y2   :     0.000106
      dxy     :     0.000369

SPIN
  0 C s       :     0.143777  s :     0.143777
      pz      :     0.141130  p :     1.787908
      px      :     0.699731
      py      :     0.947048
      dz2     :    -0.003196  d :    -0.006264
      dxz     :    -0.002462
      dyz     :     0.000005
      dx2y2   :    -0.000647
      dxy     :     0.000036
      f0      :    -0.000566  f :    -0.001111
      f+1     :    -0.000211
      f-1     :     0.000015
      f+2     :    -0.000307
      f-2     :     0.000003
      f+3     :    -0.000049
      f-3     :     0.000004
  1 H s       :    -0.014853  s :    -0.014853
      pz      :     0.008252  p :     0.052660
      px      :     0.018599
      py      :     0.025809
      dz2     :     0.000415  d :     0.001938
      dxz     :     0.000790
      dyz     :     0.000735
      dx2y2   :    -0.000002
      dxy     :     0.000000
  2 H s       :    -0.018253  s :    -0.018253
      pz      :    -0.001004  p :     0.052233
      px      :     0.027626
      py      :     0.025611
      dz2     :     0.000588  d :     0.001965
      dxz     :     0.000315
      dyz     :     0.000364
      dx2y2   :     0.000329
      dxy     :     0.000369


                     *******************************
                     * LOEWDIN POPULATION ANALYSIS *
                     *******************************

-------------------------------------------
LOEWDIN ATOMIC CHARGES AND SPIN POPULATIONS
-------------------------------------------
   0 C :    0.355621    1.599487
   1 H :   -0.177714    0.200496
   2 H :   -0.177907    0.200017

----------------------------------------------------
LOEWDIN REDUCED ORBITAL CHARGES AND SPIN POPULATIONS
----------------------------------------------------
CHARGE
  0 C s       :     2.945519  s :     2.945519
      pz      :     1.031028  p :     2.619371
      px      :     0.806029
      py      :     0.782314
      dz2     :     0.036214  d :     0.073023
      dxz     :     0.029968
      dyz     :     0.000095
      dx2y2   :     0.006229
      dxy     :     0.000518
      f0      :     0.002717  f :     0.006466
      f+1     :     0.000653
      f-1     :     0.000615
      f+2     :     0.001817
      f-2     :     0.000219
      f+3     :     0.000368
      f-3     :     0.000078
  1 H s       :     0.794263  s :     0.794263
      pz      :     0.170299  p :     0.350854
      px      :     0.083639
      py      :     0.096916
      dz2     :     0.012242  d :     0.032597
      dxz     :     0.009170
      dyz     :     0.011181
      dx2y2   :     0.000004
      dxy     :     0.000000
  2 H s       :     0.794597  s :     0.794597
      pz      :     0.118605  p :     0.350749
      px      :     0.135262
      py      :     0.096883
      dz2     :     0.007116  d :     0.032560
      dxz     :     0.009067
      dyz     :     0.005335
      dx2y2   :     0.005194
      dxy     :     0.005848

SPIN
  0 C s       :     0.096396  s :     0.096396
      pz      :     0.121135  p :     1.502351
      px      :     0.598903
      py      :     0.782314
      dz2     :     0.000442  d :     0.000817
      dxz     :     0.000715
      dyz     :     0.000095
      dx2y2   :    -0.000953
      dxy     :     0.000518
      f0      :    -0.000494  f :    -0.000077
      f+1     :    -0.000136
      f-1     :     0.000615
      f+2     :    -0.000300
      f-2     :     0.000219
      f+3     :    -0.000059
      f-3     :     0.000078
  1 H s       :    -0.011598  s :    -0.011598
      pz      :     0.027226  p :     0.191889
      px      :     0.067748
      py      :     0.096916
      dz2     :     0.001232  d :     0.020206
      dxz     :     0.007793
      dyz     :     0.011181
      dx2y2   :     0.000000
      dxy     :     0.000000
  2 H s       :    -0.012189  s :    -0.012189
      pz      :     0.017149  p :     0.191948
      px      :     0.077917
      py      :     0.096883
      dz2     :     0.005899  d :     0.020257
      dxz     :     0.000977
      dyz     :     0.005335
      dx2y2   :     0.002197
      dxy     :     0.005848


                      *****************************
                      * MAYER POPULATION ANALYSIS *
                      *****************************

  NA   - Mulliken gross atomic population
  ZA   - Total nuclear charge
  QA   - Mulliken gross atomic charge
  VA   - Mayer's total valence
  BVA  - Mayer's bonded valence
  FA   - Mayer's free valence

  ATOM       NA         ZA         QA         VA         BVA        FA
  0 C      6.5416     6.0000    -0.5416     3.6852     1.9525     1.7327
  1 H      0.7286     1.0000     0.2714     1.0084     1.0049     0.0034
  2 H      0.7298     1.0000     0.2702     1.0090     1.0054     0.0036

  Mayer bond orders larger than 0.100000
B(  0-C ,  1-H ) :   0.9760 B(  0-C ,  2-H ) :   0.9765 

-------
TIMINGS
-------

Total SCF time: 0 days 0 hours 1 min 10 sec 

Total time                  ....      70.853 sec
Sum of individual times     ....      69.991 sec  ( 98.8%)

Fock matrix formation       ....      67.769 sec  ( 95.6%)
  XC integration            ....      65.647 sec  ( 96.9% of F)
    Basis function eval.    ....       0.010 sec  (  0.0% of XC)
    Density eval.           ....       0.024 sec  (  0.0% of XC)
    XC-Functional eval.     ....       0.038 sec  (  0.1% of XC)
    XC-Potential eval.      ....       0.044 sec  (  0.1% of XC)
Diagonalization             ....       1.022 sec  (  1.4%)
Density matrix formation    ....       0.005 sec  (  0.0%)
Population analysis         ....       0.637 sec  (  0.9%)
Initial guess               ....       0.126 sec  (  0.2%)
Orbital Transformation      ....       0.000 sec  (  0.0%)
Orbital Orthonormalization  ....       0.000 sec  (  0.0%)
DIIS solution               ....       0.061 sec  (  0.1%)
Grid generation             ....       0.372 sec  (  0.5%)


-------------------------------------------------------------------------------
                          DFT DISPERSION CORRECTION                            
                                                                               
                              DFTD3 V3.1  Rev 1                                
                              USING zero damping                               
-------------------------------------------------------------------------------
The M06 functional is recognized
Active option DFTDOPT                   ...         3   

molecular C6(AA) [au] = 80.078635 


            DFT-D V3
 parameters
 s6 scaling factor         :     1.0000 
 rs6 scaling factor        :     1.3250 
 s8 scaling factor         :     0.0000 
 rs8 scaling factor        :     1.0000 
 Damping factor alpha6     :    14.0000 
 Damping factor alpha8     :    16.0000 
 ad hoc parameters k1-k3   :    16.0000     1.3333    -4.0000 

 Edisp/kcal,au: -0.000594972694  -0.000000948149 
 E6   /kcal   :  -0.000594973 
 E8   /kcal   :  -0.000000000 
 % E8         :   0.000000000 

-------------------------   ----------------
Dispersion correction           -0.000000948
-------------------------   ----------------


-------------------------   --------------------
FINAL SINGLE POINT ENERGY       -39.134019227376
-------------------------   --------------------


                            ***************************************
                            *     ORCA property calculations      *
                            ***************************************

                                    ---------------------
                                    Active property flags
                                    ---------------------
   (+) Dipole Moment


------------------------------------------------------------------------------
                       ORCA ELECTRIC PROPERTIES CALCULATION
------------------------------------------------------------------------------

Dipole Moment Calculation                       ... on
Quadrupole Moment Calculation                   ... off
Polarizability Calculation                      ... off
GBWName                                         ... CH2.gbw
Electron density file                           ... CH2.scfp
The origin for moment calculation is the CENTER OF MASS  = ( 0.105468,  0.000000  0.044945)

-------------
DIPOLE MOMENT
-------------
                                X             Y             Z
Electronic contribution:     -0.40755      -0.00000      -0.17288
Nuclear contribution   :      0.62391       0.00000       0.26588
                        -----------------------------------------
Total Dipole Moment    :      0.21637      -0.00000       0.09301
                        -----------------------------------------
Magnitude (a.u.)       :      0.23551
Magnitude (Debye)      :      0.59861



--------------------
Rotational spectrum 
--------------------
 
Rotational constants in cm-1:    54.806134     8.522616     7.375665 
Rotational constants in MHz : 1643046.573679 255501.612999 221116.879072 

 Dipole components along the rotational axes: 
x,y,z [a.u.] :    -0.000737     0.235507     0.000000 
x,y,z [Debye]:    -0.001873     0.598610     0.000000 

 

Timings for individual modules:

Sum of individual times         ...       74.162 sec (=   1.236 min)
GTO integral calculation        ...        2.559 sec (=   0.043 min)   3.5 %
SCF iterations                  ...       71.603 sec (=   1.193 min)  96.5 %
                             ****ORCA TERMINATED NORMALLY****
TOTAL RUN TIME: 0 days 0 hours 2 minutes 51 seconds 214 msec
