
                                 *****************
                                 * O   R   C   A *
                                 *****************

           --- An Ab Initio, DFT and Semiempirical electronic structure package ---

                  #######################################################
                  #                        -***-                        #
                  #          Department of theory and spectroscopy      #
                  #               Directorship: Frank Neese             #
                  #        Max Planck Institute fuer Kohlenforschung    #
                  #                Kaiser Wilhelm Platz 1               #
                  #                 D-45470 Muelheim/Ruhr               #
                  #                      Germany                        #
                  #                                                     #
                  #                  All rights reserved                #
                  #                        -***-                        #
                  #######################################################


                         Program Version 4.2.0 -  RELEASE  -


 With contributions from (in alphabetic order):
   Daniel Aravena         : Magnetic Suceptibility
   Michael Atanasov       : Ab Initio Ligand Field Theory (pilot matlab implementation)
   Alexander A. Auer      : GIAO ZORA, VPT2
   Ute Becker             : Parallelization
   Giovanni Bistoni       : ED, misc. LED, open-shell LED, HFLED
   Martin Brehm           : Molecular dynamics
   Dmytro Bykov           : SCF Hessian
   Vijay G. Chilkuri      : MRCI spin determinant printing, contributions to CSF-ICE
   Dipayan Datta          : RHF DLPNO-CCSD density
   Achintya Kumar Dutta   : EOM-CC, STEOM-CC
   Dmitry Ganyushin       : Spin-Orbit,Spin-Spin,Magnetic field MRCI
   Miquel Garcia          : C-PCM Hessian, Gaussian charge scheme
   Yang Guo               : DLPNO-NEVPT2, CIM, IAO-localization
   Andreas Hansen         : Spin unrestricted coupled pair/coupled cluster methods
   Benjamin Helmich-Paris : CASSCF linear response (MC-RPA)
   Lee Huntington         : MR-EOM, pCC
   Robert Izsak           : Overlap fitted RIJCOSX, COSX-SCS-MP3, EOM
   Christian Kollmar      : KDIIS, OOCD, Brueckner-CCSD(T), CCSD density
   Simone Kossmann        : Meta GGA functionals, TD-DFT gradient, OOMP2, MP2 Hessian
   Martin Krupicka        : AUTO-CI
   Lucas Lang             : DCDCAS
   Dagmar Lenk            : GEPOL surface, SMD
   Dimitrios Liakos       : Extrapolation schemes; Compound Job, initial MDCI parallelization
   Dimitrios Manganas     : Further ROCIS development; embedding schemes
   Dimitrios Pantazis     : SARC Basis sets
   Taras Petrenko         : DFT Hessian,TD-DFT gradient, ASA, ECA, R-Raman, ABS, FL, XAS/XES, NRVS
   Peter Pinski           : DLPNO-MP2, DLPNO-MP2 Gradient
   Christoph Reimann      : Effective Core Potentials
   Marius Retegan         : Local ZFS, SOC
   Christoph Riplinger    : Optimizer, TS searches, QM/MM, DLPNO-CCSD(T), (RO)-DLPNO pert. Triples
   Tobias Risthaus        : Range-separated hybrids, TD-DFT gradient, RPA, STAB
   Michael Roemelt        : Original ROCIS implementation
   Masaaki Saitow         : Open-shell DLPNO-CCSD energy and density
   Barbara Sandhoefer     : DKH picture change effects
   Avijit Sen             : IP-ROCIS
   Kantharuban Sivalingam : CASSCF convergence, NEVPT2, FIC-MRCI
   Bernardo de Souza      : ESD, SOC TD-DFT
   Georgi Stoychev        : AutoAux, RI-MP2 NMR
   Willem Van den Heuvel  : Paramagnetic NMR
   Boris Wezisla          : Elementary symmetry handling
   Frank Wennmohs         : Technical directorship


 We gratefully acknowledge several colleagues who have allowed us to
 interface, adapt or use parts of their codes:
   Stefan Grimme, W. Hujo, H. Kruse,             : VdW corrections, initial TS optimization,
                  C. Bannwarth                     DFT functionals, gCP, sTDA/sTD-DF
   Ed Valeev, F. Pavosevic, A. Kumar             : LibInt (2-el integral package), F12 methods
   Garnet Chan, S. Sharma, J. Yang, R. Olivares  : DMRG
   Ulf Ekstrom                                   : XCFun DFT Library
   Mihaly Kallay                                 : mrcc  (arbitrary order and MRCC methods)
   Andreas Klamt, Michael Diedenhofen            : otool_cosmo (COSMO solvation model)
   Jiri Pittner, Ondrej Demel                    : Mk-CCSD
   Frank Weinhold                                : gennbo (NPA and NBO analysis)
   Christopher J. Cramer and Donald G. Truhlar   : smd solvation model
   Lars Goerigk                                  : TD-DFT with DH, B97 family of functionals
   V. Asgeirsson, H. Jonsson                     : NEB implementation
   FAccTs GmbH                                   : IRC, NEB, NEB-TS, Multilevel, MM, QM/MM, CI optimization
   S Lehtola, MJT Oliveira, MAL Marques          : LibXC Library


 Your calculation uses the libint2 library for the computation of 2-el integrals
 For citations please refer to: http://libint.valeyev.net

 Your ORCA version has been built with support for libXC version: 4.2.3
 For citations please refer to: https://tddft.org/programs/libxc/

 This ORCA versions uses:
   CBLAS   interface :  Fast vector & matrix operations
   LAPACKE interface :  Fast linear algebra routines
   SCALAPACK package :  Parallel linear algebra routines


Your calculation utilizes the atom-pairwise dispersion correction
with the zero-damping scheme (D30)
Cite in your paper:
S.Grimme, J.Antony, S.Ehrlich and H.Krieg, J.Chem.Phys., 132, (2010), 154104 
   

XCFun DFT library Copyright 2009-2010 Ulf Ekstrom and contributors.
See http://admol.org/xcfun for more information. This is free soft-
ware; see the source code for copying conditions. There is ABSOLUTELY
NO WARRANTY; not even for MERCHANTABILITY or FITNESS FOR A PARTICULAR
PURPOSE. For details see the documentation. Scientific users of this 
library should cite U. Ekstrom, L. Visscher, R. Bast, A. J. Thorvald-
sen and K. Ruud; J.Chem.Theor.Comp. 2010, DOI: 10.1021/ct100117s
XCFun Version 0.99 
----- Orbital basis set information -----
Your calculation utilizes the basis: def2-TZVPPD
   F. Weigend and R. Ahlrichs, Phys. Chem. Chem. Phys. 7, 3297 (2005).
   D. Rappoport and F. Furche, J. Chem. Phys. 133 134105 (2010).

----- AuxJK basis set information -----
Your calculation utilizes the auxiliary basis: def2/JK
   H-Ba, Hf-Rn: F. Weigend, J. Comput. Chem. 29, 167 (2008).

================================================================================
                                        WARNINGS
                       Please study these warnings very carefully!
================================================================================


WARNING: Minnesota functionals are quite sensitive to the integration grid.
         see SE Wheeler, KN Houk, JCTC 2010, 6, 395,
             N Mardirossian, M Head-Gordon, JCTC 2016, 12, 4303.
         Grid6 seems to be a minimum grid for reliable results with these functionals!
  ===> : Please increase the integration grid!


INFO   : the flag for use of LIBINT has been found!

================================================================================
                                       INPUT FILE
================================================================================
NAME = Cr2.in
|  1> #
|  2> # Cr2 M06-D3/Def2-TZVPPD
|  3> #
|  4> ! m06 d3zero def2-tzvppd def2/jk grid4 nofinalgrid
|  5> 
|  6> *xyz 0 1
|  7> Cr         0.00000        0.00000        0.00000
|  8> Cr         0.00000        0.00000        1.68000
|  9> *
| 10> 
| 11> %maxcore 5000
| 12> 
| 13> %pal
| 14> nprocs = 28
| 15> end
| 16> 
| 17> 
| 18>                          ****END OF INPUT****
================================================================================

                       ****************************
                       * Single Point Calculation *
                       ****************************

---------------------------------
CARTESIAN COORDINATES (ANGSTROEM)
---------------------------------
  Cr     0.000000    0.000000    0.000000
  Cr     0.000000    0.000000    1.680000

----------------------------
CARTESIAN COORDINATES (A.U.)
----------------------------
  NO LB      ZA    FRAG     MASS         X           Y           Z
   0 Cr   24.0000    0    52.000    0.000000    0.000000    0.000000
   1 Cr   24.0000    0    52.000    0.000000    0.000000    3.174740

--------------------------------
INTERNAL COORDINATES (ANGSTROEM)
--------------------------------
 Cr     0   0   0     0.000000000000     0.00000000     0.00000000
 Cr     1   0   0     1.680000000000     0.00000000     0.00000000

---------------------------
INTERNAL COORDINATES (A.U.)
---------------------------
 Cr     0   0   0     0.000000000000     0.00000000     0.00000000
 Cr     1   0   0     3.174739904988     0.00000000     0.00000000

---------------------
BASIS SET INFORMATION
---------------------
There are 1 groups of distinct atoms

 Group   1 Type Cr  : 17s13p7d2f1g contracted to 6s6p4d2f1g pattern {842111/631111/4111/11/1}

Atom   0Cr   basis set group =>   1
Atom   1Cr   basis set group =>   1
----------------------------------
AUXILIARY/JK BASIS SET INFORMATION
----------------------------------
There are 1 groups of distinct atoms

 Group   1 Type Cr  : 19s14p12d10f7g3h1i contracted to 16s13p11d9f5g3h1i pattern {4111111111111111/2111111111111/21111111111/211111111/31111/111/1}

Atom   0Cr   basis set group =>   1
Atom   1Cr   basis set group =>   1


           ************************************************************
           *        Program running with 28 parallel MPI-processes    *
           *              working on a common directory               *
           ************************************************************
------------------------------------------------------------------------------
                           ORCA GTO INTEGRAL CALCULATION
------------------------------------------------------------------------------

                         BASIS SET STATISTICS AND STARTUP INFO

 # of primitive gaussian shells          ...   80
 # of primitive gaussian functions       ...  228
 # of contracted shells                  ...   38
 # of contracted basis functions         ...  134
 Highest angular momentum                ...    4
 Maximum contraction depth               ...    8
 Integral package used                   ... LIBINT
 Integral threshhold            Thresh   ...  1.000e-10
 Primitive cut-off              TCut     ...  1.000e-11


------------------------------ INTEGRAL EVALUATION ----------------------------


 * One electron integrals 
 Pre-screening matrix                    ... done
 Shell pair data                         ... done (   0.000 sec)



           ************************************************************
           *        Program running with 28 parallel MPI-processes    *
           *              working on a common directory               *
           ************************************************************
-------------------------------------------------------------------------------
                                 ORCA SCF
-------------------------------------------------------------------------------

------------
SCF SETTINGS
------------
Hamiltonian:
 Density Functional     Method          .... DFT(GTOs)
 Exchange Functional    Exchange        .... M06
 Correlation Functional Correlation     .... M06
 Gradients option       PostSCFGGA      .... off
 Hybrid DFT is turned on
   Fraction HF Exchange ScalHFX         ....  0.270000
   Scaling of DF-GGA-X  ScalDFX         ....  0.730000
   Scaling of DF-GGA-C  ScalDFC         ....  1.000000
   Scaling of DF-LDA-C  ScalLDAC        ....  1.000000
   Perturbative correction              ....  0.000000
   Density functional embedding theory  .... OFF


General Settings:
 Integral files         IntName         .... Cr2
 Hartree-Fock type      HFTyp           .... RHF
 Total Charge           Charge          ....    0
 Multiplicity           Mult            ....    1
 Number of Electrons    NEL             ....   48
 Basis Dimension        Dim             ....  134
 Nuclear Repulsion      ENuc            ....    181.4321857029 Eh

Convergence Acceleration:
 DIIS                   CNVDIIS         .... on
   Start iteration      DIISMaxIt       ....    12
   Startup error        DIISStart       ....  0.200000
   # of expansion vecs  DIISMaxEq       ....     5
   Bias factor          DIISBfac        ....   1.050
   Max. coefficient     DIISMaxC        ....  10.000
 Newton-Raphson         CNVNR           .... off
 SOSCF                  CNVSOSCF        .... off
 Level Shifting         CNVShift        .... on
   Level shift para.    LevelShift      ....    0.2500
   Turn off err/grad.   ShiftErr        ....    0.0010
 Zerner damping         CNVZerner       .... off
 Static damping         CNVDamp         .... on
   Fraction old density DampFac         ....    0.7000
   Max. Damping (<1)    DampMax         ....    0.9800
   Min. Damping (>=0)   DampMin         ....    0.0000
   Turn off err/grad.   DampErr         ....    0.1000
 Fernandez-Rico         CNVRico         .... off

SCF Procedure:
 Maximum # iterations   MaxIter         ....   125
 SCF integral mode      SCFMode         .... Direct
   Integral package                     .... LIBINT
 Reset frequency        DirectResetFreq ....    20
 Integral Threshold     Thresh          ....  1.000e-10 Eh
 Primitive CutOff       TCut            ....  1.000e-11 Eh

Convergence Tolerance:
 Convergence Check Mode ConvCheckMode   .... Total+1el-Energy
 Convergence forced     ConvForced      .... 0
 Energy Change          TolE            ....  1.000e-06 Eh
 1-El. energy change                    ....  1.000e-03 Eh
 DIIS Error             TolErr          ....  1.000e-06


Diagonalization of the overlap matrix:
Smallest eigenvalue                        ... 6.049e-05
Time for diagonalization                   ...    0.003 sec
Threshold for overlap eigenvalues          ... 1.000e-08
Number of eigenvalues below threshold      ... 0
Time for construction of square roots      ...    0.167 sec
Total time needed                          ...    0.170 sec

-------------------
DFT GRID GENERATION
-------------------

General Integration Accuracy     IntAcc      ...  4.670
Radial Grid Type                 RadialGrid  ... Gauss-Chebyshev
Angular Grid (max. acc.)         AngularGrid ... Lebedev-302
Angular grid pruning method      GridPruning ... 3 (G Style)
Weight generation scheme         WeightScheme... Becke
Basis function cutoff            BFCut       ...    1.0000e-10
Integration weight cutoff        WCut        ...    1.0000e-14
Grids for H and He will be reduced by one unit

# of grid points (after initial pruning)     ...  19328 (   0.0 sec)
# of grid points (after weights+screening)   ...  19284 (   0.0 sec)
nearest neighbour list constructed           ...    0.0 sec
Grid point re-assignment to atoms done       ...    0.0 sec
Grid point division into batches done        ...    0.2 sec
Reduced shell lists constructed in    0.2 sec

Total number of grid points                  ...    19284
Total number of batches                      ...      302
Average number of points per batch           ...       63
Average number of grid points per atom       ...     9642
Average number of shells per batch           ...     7.83 (20.61%)
Average number of basis functions per batch  ...    22.67 (16.92%)
Average number of large shells per batch     ...     6.67 (85.11%)
Average number of large basis fcns per batch ...    20.00 (88.24%)
Maximum spatial batch extension              ...  24.19, 24.19, 15.73 au
Average spatial batch extension              ...   0.70,  0.70,  0.51 au

Time for grid setup =    2.389 sec

------------------------------
INITIAL GUESS: MODEL POTENTIAL
------------------------------
Loading Hartree-Fock densities                     ... done
Calculating cut-offs                               ... done
Setting up the integral package                    ... done
Initializing the effective Hamiltonian             ... done
Starting the Coulomb interaction                   ... done (   0.0 sec)
Reading the grid                                   ... done
Mapping shells                                     ... done
Starting the XC term evaluation                    ... done (   0.0 sec)
  promolecular density results
     # of electrons  =     48.000013008
     EX              =    -94.562620149
     EC              =     -2.057928848
     EX+EC           =    -96.620548997
Transforming the Hamiltonian                       ... done (   0.0 sec)
Diagonalizing the Hamiltonian                      ... done (   0.0 sec)
Back transforming the eigenvectors                 ... done (   0.0 sec)
Now organizing SCF variables                       ... done
                      ------------------
                      INITIAL GUESS DONE (   3.8 sec)
                      ------------------
--------------
SCF ITERATIONS
--------------
ITER       Energy         Delta-E        Max-DP      RMS-DP      [F,P]     Damp
               ***  Starting incremental Fock matrix formation  ***
  0  -2088.4511278672   0.000000000000 0.10127343  0.00265497  0.1372221 0.7000
  1  -2088.5410721816  -0.089944314392 0.06718868  0.00181548  0.0922188 0.7000
                               ***Turning on DIIS***
  2  -2088.5756211838  -0.034549002263 0.09141173  0.00313767  0.0552162 0.0000
  3  -2088.6357111273  -0.060089943446 0.06967879  0.00153458  0.0351419 0.0000
  4  -2088.6471996512  -0.011488523938 0.01946865  0.00058866  0.0133273 0.0000
  5  -2088.6484071930  -0.001207541839 0.00753024  0.00023694  0.0032745 0.0000
  6  -2088.6485419889  -0.000134795891 0.00446245  0.00013205  0.0008645 0.0000
  7  -2088.6485607595  -0.000018770567 0.00063916  0.00001865  0.0001103 0.0000
  8  -2088.6485610455  -0.000000286026 0.00044597  0.00000799  0.0000683 0.0000
                 **** Energy Check signals convergence ****

               *****************************************************
               *                     SUCCESS                       *
               *           SCF CONVERGED AFTER   9 CYCLES          *
               *****************************************************


----------------
TOTAL SCF ENERGY
----------------

Total Energy       :        -2088.64856079 Eh          -56835.01678 eV

Components:
Nuclear Repulsion  :          181.43218570 Eh            4937.02077 eV
Electronic Energy  :        -2270.08074650 Eh          -61772.03754 eV
One Electron Energy:        -3235.36947023 Eh          -88038.87910 eV
Two Electron Energy:          965.28872374 Eh           26266.84155 eV

Virial components:
Potential Energy   :        -4173.81433705 Eh         -113575.26217 eV
Kinetic Energy     :         2085.16577626 Eh           56740.24539 eV
Virial Ratio       :            2.00167027


DFT components:
N(Alpha)           :       24.000008322973 electrons
N(Beta)            :       24.000008322973 electrons
N(Total)           :       48.000016645947 electrons
E(XC)              :      -71.535928955385 Eh       
DFET-embed. en.    :        0.000000000000 Eh       

---------------
SCF CONVERGENCE
---------------

  Last Energy change         ...    2.5170e-07  Tolerance :   1.0000e-06
  Last MAX-Density change    ...    1.0841e-04  Tolerance :   1.0000e-05
  Last RMS-Density change    ...    2.4691e-06  Tolerance :   1.0000e-06
  Last DIIS Error            ...    5.8871e-04  Tolerance :   1.0000e-06

             **** THE GBW FILE WAS UPDATED (Cr2.gbw) ****
             **** DENSITY FILE WAS UPDATED (Cr2.scfp) ****
             **** ENERGY FILE WAS UPDATED (Cr2.en.tmp) ****
             **** THE GBW FILE WAS UPDATED (Cr2.gbw) ****
             **** DENSITY FILE WAS UPDATED (Cr2.scfp) ****
----------------
ORBITAL ENERGIES
----------------

  NO   OCC          E(Eh)            E(eV) 
   0   2.0000    -215.994957     -5877.5216 
   1   2.0000    -215.994890     -5877.5198 
   2   2.0000     -24.906611      -677.7433 
   3   2.0000     -24.906509      -677.7406 
   4   2.0000     -21.125334      -574.8496 
   5   2.0000     -21.125334      -574.8496 
   6   2.0000     -21.125229      -574.8467 
   7   2.0000     -21.125229      -574.8467 
   8   2.0000     -21.125167      -574.8450 
   9   2.0000     -21.125047      -574.8417 
  10   2.0000      -2.968191       -80.7686 
  11   2.0000      -2.905424       -79.0606 
  12   2.0000      -1.958541       -53.2946 
  13   2.0000      -1.867281       -50.8113 
  14   2.0000      -1.867281       -50.8113 
  15   2.0000      -1.830682       -49.8154 
  16   2.0000      -1.830682       -49.8154 
  17   2.0000      -1.768707       -48.1290 
  18   2.0000      -0.276552        -7.5254 
  19   2.0000      -0.276552        -7.5254 
  20   2.0000      -0.271772        -7.3953 
  21   2.0000      -0.203367        -5.5339 
  22   2.0000      -0.203346        -5.5333 
  23   2.0000      -0.194863        -5.3025 
  24   0.0000      -0.083749        -2.2789 
  25   0.0000      -0.061023        -1.6605 
  26   0.0000      -0.061007        -1.6601 
  27   0.0000      -0.044620        -1.2142 
  28   0.0000      -0.044620        -1.2142 
  29   0.0000      -0.033896        -0.9224 
  30   0.0000      -0.033896        -0.9224 
  31   0.0000      -0.009362        -0.2548 
  32   0.0000      -0.008661        -0.2357 
  33   0.0000       0.005727         0.1558 
  34   0.0000       0.011673         0.3176 
  35   0.0000       0.011673         0.3176 
  36   0.0000       0.025071         0.6822 
  37   0.0000       0.025071         0.6822 
  38   0.0000       0.059322         1.6142 
  39   0.0000       0.084705         2.3049 
  40   0.0000       0.084706         2.3050 
  41   0.0000       0.093088         2.5330 
  42   0.0000       0.113060         3.0765 
  43   0.0000       0.116991         3.1835 
  44   0.0000       0.116991         3.1835 
  45   0.0000       0.118632         3.2281 
  46   0.0000       0.118632         3.2281 
  47   0.0000       0.122856         3.3431 
  48   0.0000       0.122857         3.3431 
  49   0.0000       0.130103         3.5403 
  50   0.0000       0.193326         5.2607 
  51   0.0000       0.193327         5.2607 
  52   0.0000       0.210558         5.7296 
  53   0.0000       0.349600         9.5131 
  54   0.0000       0.357959         9.7405 
  55   0.0000       0.357959         9.7405 
  56   0.0000       0.437644        11.9089 
  57   0.0000       0.459028        12.4908 
  58   0.0000       0.459033        12.4909 
  59   0.0000       0.480644        13.0790 
  60   0.0000       0.480644        13.0790 
  61   0.0000       0.527870        14.3641 
  62   0.0000       0.527870        14.3641 
  63   0.0000       0.532894        14.5008 
  64   0.0000       0.532899        14.5009 
  65   0.0000       0.535155        14.5623 
  66   0.0000       0.556344        15.1389 
  67   0.0000       0.626484        17.0475 
  68   0.0000       0.626484        17.0475 
  69   0.0000       0.729827        19.8596 
  70   0.0000       1.338073        36.4108 
  71   0.0000       1.338079        36.4110 
  72   0.0000       1.445106        39.3233 
  73   0.0000       1.445106        39.3233 
  74   0.0000       1.494215        40.6597 
  75   0.0000       1.494215        40.6597 
  76   0.0000       1.613542        43.9067 
  77   0.0000       1.613542        43.9067 
  78   0.0000       1.631864        44.4053 
  79   0.0000       1.658695        45.1354 
  80   0.0000       1.698531        46.2194 
  81   0.0000       1.849922        50.3389 
  82   0.0000       1.849922        50.3389 
  83   0.0000       1.906657        51.8828 
  84   0.0000       1.906663        51.8829 
  85   0.0000       1.920088        52.2482 
  86   0.0000       1.920088        52.2482 
  87   0.0000       1.955956        53.2243 
  88   0.0000       1.955956        53.2243 
  89   0.0000       2.009150        54.6718 
  90   0.0000       2.050673        55.8016 
  91   0.0000       2.050681        55.8019 
  92   0.0000       2.055081        55.9216 
  93   0.0000       2.055081        55.9216 
  94   0.0000       2.163078        58.8603 
  95   0.0000       2.163080        58.8604 
  96   0.0000       2.182487        59.3885 
  97   0.0000       2.466441        67.1153 
  98   0.0000       2.825384        76.8826 
  99   0.0000       2.884676        78.4960 
 100   0.0000       2.884676        78.4960 
 101   0.0000       4.131801       112.4320 
 102   0.0000       5.234366       142.4344 
 103   0.0000       5.234366       142.4344 
 104   0.0000       5.294101       144.0598 
 105   0.0000       5.329079       145.0116 
 106   0.0000       5.329251       145.0163 
 107   0.0000       5.525714       150.3623 
 108   0.0000       5.525714       150.3623 
 109   0.0000       5.620235       152.9344 
 110   0.0000       5.620459       152.9405 
 111   0.0000       5.636787       153.3848 
 112   0.0000       5.637008       153.3908 
 113   0.0000       5.699095       155.0803 
 114   0.0000       5.699095       155.0803 
 115   0.0000       5.940115       161.6387 
 116   0.0000       5.940548       161.6505 
 117   0.0000       6.214413       169.1028 
 118   0.0000       6.214413       169.1028 
 119   0.0000       6.219370       169.2377 
 120   0.0000       6.219700       169.2466 
 121   0.0000       6.227576       169.4609 
 122   0.0000       6.227576       169.4609 
 123   0.0000       6.229147       169.5037 
 124   0.0000       6.278778       170.8542 
 125   0.0000       6.278778       170.8542 
 126   0.0000       6.477113       176.2512 
 127   0.0000       6.477113       176.2512 
 128   0.0000       6.505549       177.0250 
 129   0.0000       6.505599       177.0264 
 130   0.0000       6.825453       185.7300 
 131   0.0000       6.867364       186.8705 
 132   0.0000       7.047894       191.7829 
 133   0.0000       7.047894       191.7829 

                    ********************************
                    * MULLIKEN POPULATION ANALYSIS *
                    ********************************

-----------------------
MULLIKEN ATOMIC CHARGES
-----------------------
   0 Cr:    0.001060
   1 Cr:   -0.001060
Sum of atomic charges:   -0.0000000

--------------------------------
MULLIKEN REDUCED ORBITAL CHARGES
--------------------------------
  0 Crs       :     7.054886  s :     7.054886
      pz      :     3.963773  p :    11.975664
      px      :     4.005946
      py      :     4.005946
      dz2     :     0.973327  d :     4.942113
      dxz     :     0.987369
      dyz     :     0.987369
      dx2y2   :     0.997025
      dxy     :     0.997022
      f0      :     0.006960  f :     0.024773
      f+1     :     0.006243
      f-1     :     0.006243
      f+2     :     0.002662
      f-2     :     0.002665
      f+3     :     0.000000
      f-3     :     0.000000
      g0      :     0.000676  g :     0.001505
      g+1     :     0.000324
      g-1     :     0.000324
      g+2     :     0.000090
      g-2     :     0.000090
      g+3     :     0.000000
      g-3     :     0.000000
      g+4     :     0.000000
      g-4     :     0.000000
  1 Crs       :     7.055380  s :     7.055380
      pz      :     3.963810  p :    11.975702
      px      :     4.005946
      py      :     4.005946
      dz2     :     0.973556  d :     4.943706
      dxz     :     0.987606
      dyz     :     0.987606
      dx2y2   :     0.997471
      dxy     :     0.997468
      f0      :     0.006959  f :     0.024767
      f+1     :     0.006241
      f-1     :     0.006241
      f+2     :     0.002661
      f-2     :     0.002664
      f+3     :     0.000000
      f-3     :     0.000000
      g0      :     0.000676  g :     0.001505
      g+1     :     0.000324
      g-1     :     0.000324
      g+2     :     0.000090
      g-2     :     0.000090
      g+3     :     0.000000
      g-3     :     0.000000
      g+4     :     0.000000
      g-4     :     0.000000


                     *******************************
                     * LOEWDIN POPULATION ANALYSIS *
                     *******************************

----------------------
LOEWDIN ATOMIC CHARGES
----------------------
   0 Cr:    0.000785
   1 Cr:   -0.000785

-------------------------------
LOEWDIN REDUCED ORBITAL CHARGES
-------------------------------
  0 Crs       :     6.760255  s :     6.760255
      pz      :     4.098447  p :    12.084900
      px      :     3.993226
      py      :     3.993226
      dz2     :     1.086971  d :     5.056809
      dxz     :     0.989499
      dyz     :     0.989499
      dx2y2   :     0.995421
      dxy     :     0.995419
      f0      :     0.051604  f :     0.092960
      f+1     :     0.016453
      f-1     :     0.016453
      f+2     :     0.004224
      f-2     :     0.004226
      f+3     :     0.000000
      f-3     :     0.000000
      g0      :     0.002586  g :     0.004291
      g+1     :     0.000715
      g-1     :     0.000715
      g+2     :     0.000137
      g-2     :     0.000137
      g+3     :     0.000000
      g-3     :     0.000000
      g+4     :     0.000000
      g-4     :     0.000000
  1 Crs       :     6.760335  s :     6.760335
      pz      :     4.098431  p :    12.084877
      px      :     3.993223
      py      :     3.993223
      dz2     :     1.087180  d :     5.058334
      dxz     :     0.989720
      dyz     :     0.989720
      dx2y2   :     0.995858
      dxy     :     0.995856
      f0      :     0.051603  f :     0.092948
      f+1     :     0.016450
      f-1     :     0.016450
      f+2     :     0.004222
      f-2     :     0.004224
      f+3     :     0.000000
      f-3     :     0.000000
      g0      :     0.002586  g :     0.004291
      g+1     :     0.000715
      g-1     :     0.000715
      g+2     :     0.000137
      g-2     :     0.000137
      g+3     :     0.000000
      g-3     :     0.000000
      g+4     :     0.000000
      g-4     :     0.000000


                      *****************************
                      * MAYER POPULATION ANALYSIS *
                      *****************************

  NA   - Mulliken gross atomic population
  ZA   - Total nuclear charge
  QA   - Mulliken gross atomic charge
  VA   - Mayer's total valence
  BVA  - Mayer's bonded valence
  FA   - Mayer's free valence

  ATOM       NA         ZA         QA         VA         BVA        FA
  0 Cr    23.9989    24.0000     0.0011     6.0200     6.0200    -0.0000
  1 Cr    24.0011    24.0000    -0.0011     6.0200     6.0200    -0.0000

  Mayer bond orders larger than 0.100000
B(  0-Cr,  1-Cr) :   6.0200 

-------
TIMINGS
-------

Total SCF time: 0 days 0 hours 1 min 29 sec 

Total time                  ....      89.719 sec
Sum of individual times     ....      88.706 sec  ( 98.9%)

Fock matrix formation       ....      83.853 sec  ( 93.5%)
  XC integration            ....      79.872 sec  ( 95.3% of F)
    Basis function eval.    ....       0.026 sec  (  0.0% of XC)
    Density eval.           ....       0.044 sec  (  0.1% of XC)
    XC-Functional eval.     ....       0.054 sec  (  0.1% of XC)
    XC-Potential eval.      ....       0.102 sec  (  0.1% of XC)
Diagonalization             ....       0.786 sec  (  0.9%)
Density matrix formation    ....       0.043 sec  (  0.0%)
Population analysis         ....       0.162 sec  (  0.2%)
Initial guess               ....       1.398 sec  (  1.6%)
Orbital Transformation      ....       0.000 sec  (  0.0%)
Orbital Orthonormalization  ....       0.000 sec  (  0.0%)
DIIS solution               ....       0.076 sec  (  0.1%)
Grid generation             ....       2.389 sec  (  2.7%)


-------------------------------------------------------------------------------
                          DFT DISPERSION CORRECTION                            
                                                                               
                              DFTD3 V3.1  Rev 1                                
                              USING zero damping                               
-------------------------------------------------------------------------------
The M06 functional is recognized
Active option DFTDOPT                   ...         3   

molecular C6(AA) [au] = 1419.801836 


            DFT-D V3
 parameters
 s6 scaling factor         :     1.0000 
 rs6 scaling factor        :     1.3250 
 s8 scaling factor         :     0.0000 
 rs8 scaling factor        :     1.0000 
 Damping factor alpha6     :    14.0000 
 Damping factor alpha8     :    16.0000 
 ad hoc parameters k1-k3   :    16.0000     1.3333    -4.0000 

 Edisp/kcal,au: -0.000030789592  -0.000000049066 
 E6   /kcal   :  -0.000030790 
 E8   /kcal   :  -0.000000000 
 % E8         :   0.000000000 

-------------------------   ----------------
Dispersion correction           -0.000000049
-------------------------   ----------------


-------------------------   --------------------
FINAL SINGLE POINT ENERGY     -2088.648560842894
-------------------------   --------------------


                            ***************************************
                            *     ORCA property calculations      *
                            ***************************************

                                    ---------------------
                                    Active property flags
                                    ---------------------
   (+) Dipole Moment


------------------------------------------------------------------------------
                       ORCA ELECTRIC PROPERTIES CALCULATION
------------------------------------------------------------------------------

Dipole Moment Calculation                       ... on
Quadrupole Moment Calculation                   ... off
Polarizability Calculation                      ... off
GBWName                                         ... Cr2.gbw
Electron density file                           ... Cr2.scfp
The origin for moment calculation is the CENTER OF MASS  = ( 0.000000,  0.000000  1.587370)

-------------
DIPOLE MOMENT
-------------
                                X             Y             Z
Electronic contribution:      0.00000       0.00000      -0.00310
Nuclear contribution   :      0.00000       0.00000       0.00000
                        -----------------------------------------
Total Dipole Moment    :      0.00000       0.00000      -0.00310
                        -----------------------------------------
Magnitude (a.u.)       :      0.00310
Magnitude (Debye)      :      0.00787



--------------------
Rotational spectrum 
--------------------
 
Rotational constants in cm-1:     0.000000     0.229723     0.229723 
Rotational constants in MHz :     0.000000  6886.930377  6886.930377 

 Dipole components along the rotational axes: 
x,y,z [a.u.] :    -0.003098     0.000000     0.000000 
x,y,z [Debye]:    -0.007874     0.000001     0.000001 

 

Timings for individual modules:

Sum of individual times         ...       96.147 sec (=   1.602 min)
GTO integral calculation        ...        5.665 sec (=   0.094 min)   5.9 %
SCF iterations                  ...       90.482 sec (=   1.508 min)  94.1 %
                             ****ORCA TERMINATED NORMALLY****
TOTAL RUN TIME: 0 days 0 hours 2 minutes 7 seconds 257 msec
