
                                 *****************
                                 * O   R   C   A *
                                 *****************

           --- An Ab Initio, DFT and Semiempirical electronic structure package ---

                  #######################################################
                  #                        -***-                        #
                  #          Department of theory and spectroscopy      #
                  #               Directorship: Frank Neese             #
                  #        Max Planck Institute fuer Kohlenforschung    #
                  #                Kaiser Wilhelm Platz 1               #
                  #                 D-45470 Muelheim/Ruhr               #
                  #                      Germany                        #
                  #                                                     #
                  #                  All rights reserved                #
                  #                        -***-                        #
                  #######################################################


                         Program Version 4.2.0 -  RELEASE  -


 With contributions from (in alphabetic order):
   Daniel Aravena         : Magnetic Suceptibility
   Michael Atanasov       : Ab Initio Ligand Field Theory (pilot matlab implementation)
   Alexander A. Auer      : GIAO ZORA, VPT2
   Ute Becker             : Parallelization
   Giovanni Bistoni       : ED, misc. LED, open-shell LED, HFLED
   Martin Brehm           : Molecular dynamics
   Dmytro Bykov           : SCF Hessian
   Vijay G. Chilkuri      : MRCI spin determinant printing, contributions to CSF-ICE
   Dipayan Datta          : RHF DLPNO-CCSD density
   Achintya Kumar Dutta   : EOM-CC, STEOM-CC
   Dmitry Ganyushin       : Spin-Orbit,Spin-Spin,Magnetic field MRCI
   Miquel Garcia          : C-PCM Hessian, Gaussian charge scheme
   Yang Guo               : DLPNO-NEVPT2, CIM, IAO-localization
   Andreas Hansen         : Spin unrestricted coupled pair/coupled cluster methods
   Benjamin Helmich-Paris : CASSCF linear response (MC-RPA)
   Lee Huntington         : MR-EOM, pCC
   Robert Izsak           : Overlap fitted RIJCOSX, COSX-SCS-MP3, EOM
   Christian Kollmar      : KDIIS, OOCD, Brueckner-CCSD(T), CCSD density
   Simone Kossmann        : Meta GGA functionals, TD-DFT gradient, OOMP2, MP2 Hessian
   Martin Krupicka        : AUTO-CI
   Lucas Lang             : DCDCAS
   Dagmar Lenk            : GEPOL surface, SMD
   Dimitrios Liakos       : Extrapolation schemes; Compound Job, initial MDCI parallelization
   Dimitrios Manganas     : Further ROCIS development; embedding schemes
   Dimitrios Pantazis     : SARC Basis sets
   Taras Petrenko         : DFT Hessian,TD-DFT gradient, ASA, ECA, R-Raman, ABS, FL, XAS/XES, NRVS
   Peter Pinski           : DLPNO-MP2, DLPNO-MP2 Gradient
   Christoph Reimann      : Effective Core Potentials
   Marius Retegan         : Local ZFS, SOC
   Christoph Riplinger    : Optimizer, TS searches, QM/MM, DLPNO-CCSD(T), (RO)-DLPNO pert. Triples
   Tobias Risthaus        : Range-separated hybrids, TD-DFT gradient, RPA, STAB
   Michael Roemelt        : Original ROCIS implementation
   Masaaki Saitow         : Open-shell DLPNO-CCSD energy and density
   Barbara Sandhoefer     : DKH picture change effects
   Avijit Sen             : IP-ROCIS
   Kantharuban Sivalingam : CASSCF convergence, NEVPT2, FIC-MRCI
   Bernardo de Souza      : ESD, SOC TD-DFT
   Georgi Stoychev        : AutoAux, RI-MP2 NMR
   Willem Van den Heuvel  : Paramagnetic NMR
   Boris Wezisla          : Elementary symmetry handling
   Frank Wennmohs         : Technical directorship


 We gratefully acknowledge several colleagues who have allowed us to
 interface, adapt or use parts of their codes:
   Stefan Grimme, W. Hujo, H. Kruse,             : VdW corrections, initial TS optimization,
                  C. Bannwarth                     DFT functionals, gCP, sTDA/sTD-DF
   Ed Valeev, F. Pavosevic, A. Kumar             : LibInt (2-el integral package), F12 methods
   Garnet Chan, S. Sharma, J. Yang, R. Olivares  : DMRG
   Ulf Ekstrom                                   : XCFun DFT Library
   Mihaly Kallay                                 : mrcc  (arbitrary order and MRCC methods)
   Andreas Klamt, Michael Diedenhofen            : otool_cosmo (COSMO solvation model)
   Jiri Pittner, Ondrej Demel                    : Mk-CCSD
   Frank Weinhold                                : gennbo (NPA and NBO analysis)
   Christopher J. Cramer and Donald G. Truhlar   : smd solvation model
   Lars Goerigk                                  : TD-DFT with DH, B97 family of functionals
   V. Asgeirsson, H. Jonsson                     : NEB implementation
   FAccTs GmbH                                   : IRC, NEB, NEB-TS, Multilevel, MM, QM/MM, CI optimization
   S Lehtola, MJT Oliveira, MAL Marques          : LibXC Library


 Your calculation uses the libint2 library for the computation of 2-el integrals
 For citations please refer to: http://libint.valeyev.net

 Your ORCA version has been built with support for libXC version: 4.2.3
 For citations please refer to: https://tddft.org/programs/libxc/

 This ORCA versions uses:
   CBLAS   interface :  Fast vector & matrix operations
   LAPACKE interface :  Fast linear algebra routines
   SCALAPACK package :  Parallel linear algebra routines


Your calculation utilizes the atom-pairwise dispersion correction
with the zero-damping scheme (D30)
Cite in your paper:
S.Grimme, J.Antony, S.Ehrlich and H.Krieg, J.Chem.Phys., 132, (2010), 154104 
   

XCFun DFT library Copyright 2009-2010 Ulf Ekstrom and contributors.
See http://admol.org/xcfun for more information. This is free soft-
ware; see the source code for copying conditions. There is ABSOLUTELY
NO WARRANTY; not even for MERCHANTABILITY or FITNESS FOR A PARTICULAR
PURPOSE. For details see the documentation. Scientific users of this 
library should cite U. Ekstrom, L. Visscher, R. Bast, A. J. Thorvald-
sen and K. Ruud; J.Chem.Theor.Comp. 2010, DOI: 10.1021/ct100117s
XCFun Version 0.99 
----- Orbital basis set information -----
Your calculation utilizes the basis: def2-TZVPPD
   F. Weigend and R. Ahlrichs, Phys. Chem. Chem. Phys. 7, 3297 (2005).
   D. Rappoport and F. Furche, J. Chem. Phys. 133 134105 (2010).

----- AuxJK basis set information -----
Your calculation utilizes the auxiliary basis: def2/JK
   H-Ba, Hf-Rn: F. Weigend, J. Comput. Chem. 29, 167 (2008).

================================================================================
                                        WARNINGS
                       Please study these warnings very carefully!
================================================================================


WARNING: your system is open-shell and RHF/RKS was chosen
  ===> : WILL SWITCH to UHF/UKS


WARNING: Minnesota functionals are quite sensitive to the integration grid.
         see SE Wheeler, KN Houk, JCTC 2010, 6, 395,
             N Mardirossian, M Head-Gordon, JCTC 2016, 12, 4303.
         Grid6 seems to be a minimum grid for reliable results with these functionals!
  ===> : Please increase the integration grid!


INFO   : the flag for use of LIBINT has been found!

================================================================================
                                       INPUT FILE
================================================================================
NAME = VS.in
|  1> #
|  2> # VS M06-D3/Def2-TZVPPD
|  3> #
|  4> ! m06 d3zero def2-tzvppd def2/jk grid4 nofinalgrid
|  5> 
|  6> *xyz 0 4
|  7> V          0.00000        0.00000        0.00000
|  8> S          0.00000        0.00000        2.04800
|  9> *
| 10> 
| 11> %maxcore 5000
| 12> 
| 13> %pal
| 14> nprocs = 28
| 15> end
| 16> 
| 17> 
| 18>                          ****END OF INPUT****
================================================================================

                       ****************************
                       * Single Point Calculation *
                       ****************************

---------------------------------
CARTESIAN COORDINATES (ANGSTROEM)
---------------------------------
  V      0.000000    0.000000    0.000000
  S      0.000000    0.000000    2.048000

----------------------------
CARTESIAN COORDINATES (A.U.)
----------------------------
  NO LB      ZA    FRAG     MASS         X           Y           Z
   0 V    23.0000    0    50.940    0.000000    0.000000    0.000000
   1 S    16.0000    0    32.060    0.000000    0.000000    3.870159

--------------------------------
INTERNAL COORDINATES (ANGSTROEM)
--------------------------------
 V      0   0   0     0.000000000000     0.00000000     0.00000000
 S      1   0   0     2.048000000000     0.00000000     0.00000000

---------------------------
INTERNAL COORDINATES (A.U.)
---------------------------
 V      0   0   0     0.000000000000     0.00000000     0.00000000
 S      1   0   0     3.870159122271     0.00000000     0.00000000

---------------------
BASIS SET INFORMATION
---------------------
There are 2 groups of distinct atoms

 Group   1 Type V   : 17s13p7d2f1g contracted to 6s6p4d2f1g pattern {842111/631111/4111/11/1}
 Group   2 Type S   : 15s10p4d1f contracted to 6s6p4d1f pattern {732111/511111/1111/1}

Atom   0V    basis set group =>   1
Atom   1S    basis set group =>   2
----------------------------------
AUXILIARY/JK BASIS SET INFORMATION
----------------------------------
There are 2 groups of distinct atoms

 Group   1 Type V   : 19s14p12d10f7g3h1i contracted to 16s13p11d9f5g3h1i pattern {4111111111111111/2111111111111/21111111111/211111111/31111/111/1}
 Group   2 Type S   : 16s12p10d4f1g contracted to 13s11p9d4f1g pattern {4111111111111/21111111111/211111111/1111/1}

Atom   0V    basis set group =>   1
Atom   1S    basis set group =>   2


           ************************************************************
           *        Program running with 28 parallel MPI-processes    *
           *              working on a common directory               *
           ************************************************************
------------------------------------------------------------------------------
                           ORCA GTO INTEGRAL CALCULATION
------------------------------------------------------------------------------

                         BASIS SET STATISTICS AND STARTUP INFO

 # of primitive gaussian shells          ...   70
 # of primitive gaussian functions       ...  186
 # of contracted shells                  ...   36
 # of contracted basis functions         ...  118
 Highest angular momentum                ...    4
 Maximum contraction depth               ...    8
 Integral package used                   ... LIBINT
 Integral threshhold            Thresh   ...  1.000e-10
 Primitive cut-off              TCut     ...  1.000e-11


------------------------------ INTEGRAL EVALUATION ----------------------------


 * One electron integrals 
 Pre-screening matrix                    ... done
 Shell pair data                         ... done (   0.000 sec)



           ************************************************************
           *        Program running with 28 parallel MPI-processes    *
           *              working on a common directory               *
           ************************************************************
-------------------------------------------------------------------------------
                                 ORCA SCF
-------------------------------------------------------------------------------

------------
SCF SETTINGS
------------
Hamiltonian:
 Density Functional     Method          .... DFT(GTOs)
 Exchange Functional    Exchange        .... M06
 Correlation Functional Correlation     .... M06
 Gradients option       PostSCFGGA      .... off
 Hybrid DFT is turned on
   Fraction HF Exchange ScalHFX         ....  0.270000
   Scaling of DF-GGA-X  ScalDFX         ....  0.730000
   Scaling of DF-GGA-C  ScalDFC         ....  1.000000
   Scaling of DF-LDA-C  ScalLDAC        ....  1.000000
   Perturbative correction              ....  0.000000
   Density functional embedding theory  .... OFF


General Settings:
 Integral files         IntName         .... VS
 Hartree-Fock type      HFTyp           .... UHF
 Total Charge           Charge          ....    0
 Multiplicity           Mult            ....    4
 Number of Electrons    NEL             ....   39
 Basis Dimension        Dim             ....  118
 Nuclear Repulsion      ENuc            ....     95.0865296164 Eh

Convergence Acceleration:
 DIIS                   CNVDIIS         .... on
   Start iteration      DIISMaxIt       ....    12
   Startup error        DIISStart       ....  0.200000
   # of expansion vecs  DIISMaxEq       ....     5
   Bias factor          DIISBfac        ....   1.050
   Max. coefficient     DIISMaxC        ....  10.000
 Newton-Raphson         CNVNR           .... off
 SOSCF                  CNVSOSCF        .... off
 Level Shifting         CNVShift        .... on
   Level shift para.    LevelShift      ....    0.2500
   Turn off err/grad.   ShiftErr        ....    0.0010
 Zerner damping         CNVZerner       .... off
 Static damping         CNVDamp         .... on
   Fraction old density DampFac         ....    0.7000
   Max. Damping (<1)    DampMax         ....    0.9800
   Min. Damping (>=0)   DampMin         ....    0.0000
   Turn off err/grad.   DampErr         ....    0.1000
 Fernandez-Rico         CNVRico         .... off

SCF Procedure:
 Maximum # iterations   MaxIter         ....   125
 SCF integral mode      SCFMode         .... Direct
   Integral package                     .... LIBINT
 Reset frequency        DirectResetFreq ....    20
 Integral Threshold     Thresh          ....  1.000e-10 Eh
 Primitive CutOff       TCut            ....  1.000e-11 Eh

Convergence Tolerance:
 Convergence Check Mode ConvCheckMode   .... Total+1el-Energy
 Convergence forced     ConvForced      .... 0
 Energy Change          TolE            ....  1.000e-06 Eh
 1-El. energy change                    ....  1.000e-03 Eh
 DIIS Error             TolErr          ....  1.000e-06


Diagonalization of the overlap matrix:
Smallest eigenvalue                        ... 6.697e-04
Time for diagonalization                   ...    0.003 sec
Threshold for overlap eigenvalues          ... 1.000e-08
Number of eigenvalues below threshold      ... 0
Time for construction of square roots      ...    0.060 sec
Total time needed                          ...    0.063 sec

-------------------
DFT GRID GENERATION
-------------------

General Integration Accuracy     IntAcc      ...  4.670
Radial Grid Type                 RadialGrid  ... Gauss-Chebyshev
Angular Grid (max. acc.)         AngularGrid ... Lebedev-302
Angular grid pruning method      GridPruning ... 3 (G Style)
Weight generation scheme         WeightScheme... Becke
Basis function cutoff            BFCut       ...    1.0000e-10
Integration weight cutoff        WCut        ...    1.0000e-14
Grids for H and He will be reduced by one unit

# of grid points (after initial pruning)     ...  16510 (   0.0 sec)
# of grid points (after weights+screening)   ...  16481 (   0.0 sec)
nearest neighbour list constructed           ...    0.0 sec
Grid point re-assignment to atoms done       ...    0.0 sec
Grid point division into batches done        ...    0.1 sec
Reduced shell lists constructed in    0.1 sec

Total number of grid points                  ...    16481
Total number of batches                      ...      259
Average number of points per batch           ...       63
Average number of grid points per atom       ...     8240
Average number of shells per batch           ...     7.00 (19.44%)
Average number of basis functions per batch  ...    20.09 (17.03%)
Average number of large shells per batch     ...     5.27 (75.32%)
Average number of large basis fcns per batch ...    14.91 (74.21%)
Maximum spatial batch extension              ...  24.49, 24.19, 17.58 au
Average spatial batch extension              ...   0.77,  0.76,  0.57 au

Time for grid setup =    2.023 sec

------------------------------
INITIAL GUESS: MODEL POTENTIAL
------------------------------
Loading Hartree-Fock densities                     ... done
Calculating cut-offs                               ... done
Setting up the integral package                    ... done
Initializing the effective Hamiltonian             ... done
Starting the Coulomb interaction                   ... done (   0.0 sec)
Reading the grid                                   ... done
Mapping shells                                     ... done
Starting the XC term evaluation                    ... done (   0.0 sec)
  promolecular density results
     # of electrons  =     39.000006689
     EX              =    -68.837329300
     EC              =     -1.569089620
     EX+EC           =    -70.406418921
Transforming the Hamiltonian                       ... done (   0.0 sec)
Diagonalizing the Hamiltonian                      ... done (   0.0 sec)
Back transforming the eigenvectors                 ... done (   0.0 sec)
Now organizing SCF variables                       ... done
                      ------------------
                      INITIAL GUESS DONE (   2.2 sec)
                      ------------------
--------------
SCF ITERATIONS
--------------
ITER       Energy         Delta-E        Max-DP      RMS-DP      [F,P]     Damp
               ***  Starting incremental Fock matrix formation  ***
  0  -1342.0177621650   0.000000000000 0.03940783  0.00079429  0.1065751 0.7000
  1  -1342.0489380329  -0.031175867827 0.02203034  0.00054419  0.0604187 0.7000
                               ***Turning on DIIS***
  2  -1342.0628136681  -0.013875635180 0.03507901  0.00102499  0.0296353 0.0000
  3  -1342.0844359905  -0.021622322410 0.02135713  0.00043471  0.0304466 0.0000
  4  -1342.0904881980  -0.006052207584 0.01733513  0.00022351  0.0111455 0.0000
  5  -1342.0915128968  -0.001024698720 0.00762475  0.00015047  0.0096924 0.0000
  6  -1342.0921172859  -0.000604389110 0.00359474  0.00010708  0.0041115 0.0000
  7  -1342.0925594014  -0.000442115509 0.00271752  0.00009065  0.0037908 0.0000
  8  -1342.0929020927  -0.000342691349 0.00278516  0.00009286  0.0025400 0.0000
  9  -1342.0931754074  -0.000273314690 0.00248929  0.00008346  0.0018468 0.0000
 10  -1342.0933539448  -0.000178537369 0.00155740  0.00005026  0.0011522 0.0000
 11  -1342.0934339282  -0.000079983360 0.00255107  0.00007128  0.0010586 0.0000
 12  -1342.0935059985  -0.000072070396 0.00177425  0.00004921  0.0007857 0.0000
 13  -1342.0935364850  -0.000030486445 0.00198414  0.00004317  0.0013850 0.0000
 14  -1342.0935502214  -0.000013736415 0.00234958  0.00004770  0.0002222 0.0000
 15  -1342.0935531462  -0.000002924767 0.00045761  0.00000614  0.0004212 0.0000
                 **** Energy Check signals convergence ****

               *****************************************************
               *                     SUCCESS                       *
               *           SCF CONVERGED AFTER  16 CYCLES          *
               *****************************************************


----------------
TOTAL SCF ENERGY
----------------

Total Energy       :        -1342.09355408 Eh          -36520.22226 eV

Components:
Nuclear Repulsion  :           95.08652962 Eh            2587.43601 eV
Electronic Energy  :        -1437.18008369 Eh          -39107.65827 eV
One Electron Energy:        -2037.21854316 Eh          -55435.53485 eV
Two Electron Energy:          600.03845947 Eh           16327.87658 eV

Virial components:
Potential Energy   :        -2682.08864644 Eh          -72983.34247 eV
Kinetic Energy     :         1339.99509236 Eh           36463.12021 eV
Virial Ratio       :            2.00156602


DFT components:
N(Alpha)           :       20.999999676136 electrons
N(Beta)            :       17.999999671565 electrons
N(Total)           :       38.999999347700 electrons
E(XC)              :      -52.268748493487 Eh       
DFET-embed. en.    :        0.000000000000 Eh       

---------------
SCF CONVERGENCE
---------------

  Last Energy change         ...   -9.2933e-07  Tolerance :   1.0000e-06
  Last MAX-Density change    ...    4.4116e-04  Tolerance :   1.0000e-05
  Last RMS-Density change    ...    5.3525e-06  Tolerance :   1.0000e-06
  Last DIIS Error            ...    2.8418e-04  Tolerance :   1.0000e-06

             **** THE GBW FILE WAS UPDATED (VS.gbw) ****
             **** DENSITY FILE WAS UPDATED (VS.scfp) ****
             **** ENERGY FILE WAS UPDATED (VS.en.tmp) ****
----------------------
UHF SPIN CONTAMINATION
----------------------

Warning: in a DFT calculation there is little theoretical justification to 
         calculate <S**2> as in Hartree-Fock theory. We will do it anyways
         but you should keep in mind that the values have only limited relevance

Expectation value of <S**2>     :     3.916009
Ideal value S*(S+1) for S=1.5   :     3.750000
Deviation                       :     0.166009

             **** THE GBW FILE WAS UPDATED (VS.gbw) ****
             **** DENSITY FILE WAS UPDATED (VS.scfp) ****
----------------
ORBITAL ENERGIES
----------------
                 SPIN UP ORBITALS
  NO   OCC          E(Eh)            E(eV) 
   0   1.0000    -197.090415     -5363.1028 
   1   1.0000     -88.968336     -2420.9515 
   2   1.0000     -22.401906      -609.5869 
   3   1.0000     -18.837880      -512.6048 
   4   1.0000     -18.827177      -512.3135 
   5   1.0000     -18.827177      -512.3135 
   6   1.0000      -7.987717      -217.3568 
   7   1.0000      -5.902074      -160.6036 
   8   1.0000      -5.902074      -160.6036 
   9   1.0000      -5.901592      -160.5905 
  10   1.0000      -2.691192       -73.2311 
  11   1.0000      -1.712783       -46.6072 
  12   1.0000      -1.702193       -46.3190 
  13   1.0000      -1.702193       -46.3190 
  14   1.0000      -0.627245       -17.0682 
  15   1.0000      -0.277616        -7.5543 
  16   1.0000      -0.249370        -6.7857 
  17   1.0000      -0.249370        -6.7857 
  18   1.0000      -0.220878        -6.0104 
  19   1.0000      -0.220875        -6.0103 
  20   1.0000      -0.194313        -5.2875 
  21   0.0000      -0.083956        -2.2846 
  22   0.0000      -0.083956        -2.2846 
  23   0.0000      -0.063319        -1.7230 
  24   0.0000      -0.030216        -0.8222 
  25   0.0000      -0.030216        -0.8222 
  26   0.0000      -0.011626        -0.3164 
  27   0.0000       0.013124         0.3571 
  28   0.0000       0.030312         0.8248 
  29   0.0000       0.030313         0.8248 
  30   0.0000       0.050824         1.3830 
  31   0.0000       0.050824         1.3830 
  32   0.0000       0.060243         1.6393 
  33   0.0000       0.110987         3.0201 
  34   0.0000       0.110988         3.0201 
  35   0.0000       0.131129         3.5682 
  36   0.0000       0.154979         4.2172 
  37   0.0000       0.154979         4.2172 
  38   0.0000       0.166168         4.5217 
  39   0.0000       0.197677         5.3791 
  40   0.0000       0.197686         5.3793 
  41   0.0000       0.242611         6.6018 
  42   0.0000       0.247392         6.7319 
  43   0.0000       0.247392         6.7319 
  44   0.0000       0.259139         7.0515 
  45   0.0000       0.381649        10.3852 
  46   0.0000       0.381649        10.3852 
  47   0.0000       0.454154        12.3582 
  48   0.0000       0.485393        13.2082 
  49   0.0000       0.485393        13.2082 
  50   0.0000       0.516359        14.0508 
  51   0.0000       0.532327        14.4854 
  52   0.0000       0.532372        14.4866 
  53   0.0000       0.546620        14.8743 
  54   0.0000       0.546620        14.8743 
  55   0.0000       0.623287        16.9605 
  56   0.0000       0.623294        16.9607 
  57   0.0000       0.650242        17.6940 
  58   0.0000       0.724758        19.7217 
  59   0.0000       0.724758        19.7217 
  60   0.0000       0.781276        21.2596 
  61   0.0000       1.045583        28.4517 
  62   0.0000       1.111730        30.2517 
  63   0.0000       1.111741        30.2520 
  64   0.0000       1.112919        30.2841 
  65   0.0000       1.112919        30.2841 
  66   0.0000       1.294830        35.2341 
  67   0.0000       1.294830        35.2341 
  68   0.0000       1.512133        41.1472 
  69   0.0000       1.664489        45.2931 
  70   0.0000       1.664637        45.2971 
  71   0.0000       1.683730        45.8166 
  72   0.0000       1.683730        45.8166 
  73   0.0000       1.720158        46.8079 
  74   0.0000       1.722202        46.8635 
  75   0.0000       1.722202        46.8635 
  76   0.0000       1.732687        47.1488 
  77   0.0000       1.732687        47.1488 
  78   0.0000       1.791708        48.7549 
  79   0.0000       1.814167        49.3660 
  80   0.0000       1.814461        49.3740 
  81   0.0000       1.847964        50.2857 
  82   0.0000       2.006146        54.5900 
  83   0.0000       2.006146        54.5900 
  84   0.0000       2.073920        56.4342 
  85   0.0000       2.175527        59.1991 
  86   0.0000       2.175527        59.1991 
  87   0.0000       2.344734        63.8034 
  88   0.0000       2.428254        66.0761 
  89   0.0000       2.428261        66.0763 
  90   0.0000       2.515069        68.4385 
  91   0.0000       2.515069        68.4385 
  92   0.0000       3.230053        87.8942 
  93   0.0000       4.102211       111.6268 
  94   0.0000       4.102329       111.6301 
  95   0.0000       4.107530       111.7716 
  96   0.0000       4.107530       111.7716 
  97   0.0000       4.127856       112.3247 
  98   0.0000       4.127881       112.3253 
  99   0.0000       4.243246       115.4646 
 100   0.0000       4.257475       115.8518 
 101   0.0000       4.257475       115.8518 
 102   0.0000       4.571013       124.3836 
 103   0.0000       4.571013       124.3836 
 104   0.0000       4.606309       125.3441 
 105   0.0000       4.606376       125.3459 
 106   0.0000       4.777909       130.0135 
 107   0.0000       4.777909       130.0135 
 108   0.0000       4.915279       133.7515 
 109   0.0000       6.872146       187.0006 
 110   0.0000       6.872158       187.0009 
 111   0.0000       6.919151       188.2797 
 112   0.0000       6.919151       188.2797 
 113   0.0000       7.033676       191.3961 
 114   0.0000       9.106680       247.8054 
 115   0.0000       9.106680       247.8054 
 116   0.0000       9.344582       254.2790 
 117   0.0000      18.786758       511.2137 

                 SPIN DOWN ORBITALS
  NO   OCC          E(Eh)            E(eV) 
   0   1.0000    -197.089371     -5363.0744 
   1   1.0000     -88.970830     -2421.0194 
   2   1.0000     -22.372694      -608.7920 
   3   1.0000     -18.816535      -512.0240 
   4   1.0000     -18.795640      -511.4554 
   5   1.0000     -18.795640      -511.4554 
   6   1.0000      -7.990687      -217.4376 
   7   1.0000      -5.906938      -160.7360 
   8   1.0000      -5.906938      -160.7360 
   9   1.0000      -5.905349      -160.6927 
  10   1.0000      -2.585948       -70.3672 
  11   1.0000      -1.625229       -44.2247 
  12   1.0000      -1.572663       -42.7943 
  13   1.0000      -1.572663       -42.7943 
  14   1.0000      -0.644010       -17.5244 
  15   1.0000      -0.267940        -7.2910 
  16   1.0000      -0.250166        -6.8074 
  17   1.0000      -0.250166        -6.8074 
  18   0.0000      -0.054126        -1.4728 
  19   0.0000      -0.032093        -0.8733 
  20   0.0000      -0.010673        -0.2904 
  21   0.0000      -0.010673        -0.2904 
  22   0.0000       0.000740         0.0201 
  23   0.0000       0.009165         0.2494 
  24   0.0000       0.009173         0.2496 
  25   0.0000       0.013130         0.3573 
  26   0.0000       0.013130         0.3573 
  27   0.0000       0.036757         1.0002 
  28   0.0000       0.036758         1.0002 
  29   0.0000       0.045880         1.2485 
  30   0.0000       0.097182         2.6445 
  31   0.0000       0.108440         2.9508 
  32   0.0000       0.108440         2.9508 
  33   0.0000       0.154602         4.2069 
  34   0.0000       0.158944         4.3251 
  35   0.0000       0.159038         4.3276 
  36   0.0000       0.179376         4.8811 
  37   0.0000       0.190617         5.1870 
  38   0.0000       0.190617         5.1870 
  39   0.0000       0.222070         6.0428 
  40   0.0000       0.222339         6.0502 
  41   0.0000       0.250732         6.8228 
  42   0.0000       0.256000         6.9661 
  43   0.0000       0.256001         6.9661 
  44   0.0000       0.306973         8.3532 
  45   0.0000       0.418114        11.3775 
  46   0.0000       0.418114        11.3775 
  47   0.0000       0.454688        12.3727 
  48   0.0000       0.490400        13.3444 
  49   0.0000       0.490400        13.3444 
  50   0.0000       0.521810        14.1992 
  51   0.0000       0.526016        14.3136 
  52   0.0000       0.526117        14.3164 
  53   0.0000       0.559124        15.2145 
  54   0.0000       0.559124        15.2145 
  55   0.0000       0.643809        17.5189 
  56   0.0000       0.675006        18.3679 
  57   0.0000       0.675257        18.3747 
  58   0.0000       0.736640        20.0450 
  59   0.0000       0.736640        20.0450 
  60   0.0000       0.822810        22.3898 
  61   0.0000       1.048111        28.5205 
  62   0.0000       1.121619        30.5208 
  63   0.0000       1.121619        30.5208 
  64   0.0000       1.140020        31.0215 
  65   0.0000       1.140047        31.0223 
  66   0.0000       1.282349        34.8945 
  67   0.0000       1.282349        34.8945 
  68   0.0000       1.510210        41.0949 
  69   0.0000       1.642765        44.7019 
  70   0.0000       1.643002        44.7084 
  71   0.0000       1.666996        45.3613 
  72   0.0000       1.666996        45.3613 
  73   0.0000       1.708020        46.4776 
  74   0.0000       1.708020        46.4776 
  75   0.0000       1.719944        46.8021 
  76   0.0000       1.737954        47.2921 
  77   0.0000       1.737954        47.2921 
  78   0.0000       1.774697        48.2920 
  79   0.0000       1.795590        48.8605 
  80   0.0000       1.795959        48.8705 
  81   0.0000       1.872961        50.9659 
  82   0.0000       1.968868        53.5756 
  83   0.0000       1.968868        53.5756 
  84   0.0000       2.055575        55.9350 
  85   0.0000       2.156461        58.6803 
  86   0.0000       2.156461        58.6803 
  87   0.0000       2.364761        64.3484 
  88   0.0000       2.466603        67.1197 
  89   0.0000       2.466750        67.1237 
  90   0.0000       2.542106        69.1742 
  91   0.0000       2.542106        69.1742 
  92   0.0000       3.243896        88.2709 
  93   0.0000       4.111290       111.8739 
  94   0.0000       4.111290       111.8739 
  95   0.0000       4.118802       112.0783 
  96   0.0000       4.119182       112.0886 
  97   0.0000       4.129799       112.3775 
  98   0.0000       4.129855       112.3791 
  99   0.0000       4.269152       116.1695 
 100   0.0000       4.271603       116.2362 
 101   0.0000       4.271603       116.2362 
 102   0.0000       4.705054       128.0310 
 103   0.0000       4.705170       128.0342 
 104   0.0000       4.708745       128.1315 
 105   0.0000       4.708745       128.1315 
 106   0.0000       4.852146       132.0336 
 107   0.0000       4.852146       132.0336 
 108   0.0000       4.988342       135.7397 
 109   0.0000       6.861608       186.7138 
 110   0.0000       6.861684       186.7159 
 111   0.0000       6.909989       188.0304 
 112   0.0000       6.909989       188.0304 
 113   0.0000       7.024179       191.1376 
 114   0.0000       9.089282       247.3319 
 115   0.0000       9.089282       247.3319 
 116   0.0000       9.329415       253.8663 
 117   0.0000      18.779564       511.0179 

                    ********************************
                    * MULLIKEN POPULATION ANALYSIS *
                    ********************************

--------------------------------------------
MULLIKEN ATOMIC CHARGES AND SPIN POPULATIONS
--------------------------------------------
   0 V :    0.421241    3.482275
   1 S :   -0.421241   -0.482275
Sum of atomic charges         :    0.0000000
Sum of atomic spin populations:    3.0000000

-----------------------------------------------------
MULLIKEN REDUCED ORBITAL CHARGES AND SPIN POPULATIONS
-----------------------------------------------------
CHARGE
  0 V s       :     6.675300  s :     6.675300
      pz      :     4.066690  p :    12.140275
      px      :     4.036792
      py      :     4.036792
      dz2     :     0.883824  d :     3.752698
      dxz     :     0.435523
      dyz     :     0.435523
      dx2y2   :     0.998914
      dxy     :     0.998914
      f0      :     0.002395  f :     0.009994
      f+1     :     0.003742
      f-1     :     0.003742
      f+2     :     0.000058
      f-2     :     0.000058
      f+3     :     0.000000
      f-3     :     0.000000
      g0      :     0.000181  g :     0.000493
      g+1     :     0.000154
      g-1     :     0.000154
      g+2     :     0.000002
      g-2     :     0.000002
      g+3     :     0.000000
      g-3     :     0.000000
      g+4     :     0.000000
      g-4     :     0.000000
  1 S s       :     5.876027  s :     5.876027
      pz      :     3.481579  p :    10.495477
      px      :     3.506949
      py      :     3.506949
      dz2     :     0.011562  d :     0.044160
      dxz     :     0.015498
      dyz     :     0.015498
      dx2y2   :     0.000801
      dxy     :     0.000801
      f0      :     0.002441  f :     0.005576
      f+1     :     0.001342
      f-1     :     0.001342
      f+2     :     0.000226
      f-2     :     0.000226
      f+3     :     0.000000
      f-3     :     0.000000

SPIN
  0 V s       :     0.444951  s :     0.444951
      pz      :     0.010832  p :     0.015922
      px      :     0.002545
      py      :     0.002545
      dz2     :     0.582351  d :     3.021165
      dxz     :     0.220493
      dyz     :     0.220493
      dx2y2   :     0.998914
      dxy     :     0.998914
      f0      :    -0.000053  f :     0.000298
      f+1     :     0.000118
      f-1     :     0.000118
      f+2     :     0.000058
      f-2     :     0.000058
      f+3     :     0.000000
      f-3     :     0.000000
      g0      :     0.000000  g :    -0.000061
      g+1     :    -0.000032
      g-1     :    -0.000032
      g+2     :     0.000002
      g-2     :     0.000002
      g+3     :    -0.000000
      g-3     :    -0.000000
      g+4     :    -0.000000
      g-4     :     0.000000
  1 S s       :     0.005890  s :     0.005890
      pz      :    -0.047784  p :    -0.505190
      px      :    -0.228703
      py      :    -0.228703
      dz2     :     0.002746  d :     0.014397
      dxz     :     0.005025
      dyz     :     0.005025
      dx2y2   :     0.000801
      dxy     :     0.000801
      f0      :     0.001066  f :     0.002628
      f+1     :     0.000555
      f-1     :     0.000555
      f+2     :     0.000226
      f-2     :     0.000226
      f+3     :    -0.000000
      f-3     :    -0.000000


                     *******************************
                     * LOEWDIN POPULATION ANALYSIS *
                     *******************************

-------------------------------------------
LOEWDIN ATOMIC CHARGES AND SPIN POPULATIONS
-------------------------------------------
   0 V :    0.024450    3.290412
   1 S :   -0.024450   -0.290412

----------------------------------------------------
LOEWDIN REDUCED ORBITAL CHARGES AND SPIN POPULATIONS
----------------------------------------------------
CHARGE
  0 V s       :     6.439524  s :     6.439524
      pz      :     4.225348  p :    12.383547
      px      :     4.079099
      py      :     4.079099
      dz2     :     1.059185  d :     4.100282
      dxz     :     0.526506
      dyz     :     0.526506
      dx2y2   :     0.994043
      dxy     :     0.994042
      f0      :     0.023597  f :     0.050575
      f+1     :     0.013385
      f-1     :     0.013385
      f+2     :     0.000104
      f-2     :     0.000104
      f+3     :     0.000000
      f-3     :     0.000000
      g0      :     0.000861  g :     0.001622
      g+1     :     0.000380
      g-1     :     0.000380
      g+2     :     0.000001
      g-2     :     0.000001
      g+3     :     0.000000
      g-3     :     0.000000
      g+4     :     0.000000
      g-4     :     0.000000
  1 S s       :     5.567579  s :     5.567579
      pz      :     3.587282  p :    10.312065
      px      :     3.362392
      py      :     3.362392
      dz2     :     0.086470  d :     0.130202
      dxz     :     0.016619
      dyz     :     0.016619
      dx2y2   :     0.005246
      dxy     :     0.005247
      f0      :     0.010154  f :     0.014604
      f+1     :     0.001619
      f-1     :     0.001619
      f+2     :     0.000606
      f-2     :     0.000607
      f+3     :     0.000000
      f-3     :     0.000000

SPIN
  0 V s       :     0.338341  s :     0.338341
      pz      :     0.005787  p :    -0.015884
      px      :    -0.010835
      py      :    -0.010835
      dz2     :     0.577533  d :     2.972486
      dxz     :     0.203434
      dyz     :     0.203434
      dx2y2   :     0.994043
      dxy     :     0.994042
      f0      :    -0.000656  f :    -0.004328
      f+1     :    -0.001940
      f-1     :    -0.001940
      f+2     :     0.000104
      f-2     :     0.000104
      f+3     :     0.000000
      f-3     :     0.000000
      g0      :    -0.000047  g :    -0.000204
      g+1     :    -0.000079
      g-1     :    -0.000079
      g+2     :     0.000001
      g-2     :     0.000001
      g+3     :    -0.000000
      g-3     :    -0.000000
      g+4     :    -0.000000
      g-4     :     0.000000
  1 S s       :     0.038624  s :     0.038624
      pz      :     0.022933  p :    -0.373238
      px      :    -0.198085
      py      :    -0.198085
      dz2     :     0.015259  d :     0.039045
      dxz     :     0.006646
      dyz     :     0.006646
      dx2y2   :     0.005246
      dxy     :     0.005247
      f0      :     0.002226  f :     0.005156
      f+1     :     0.000859
      f-1     :     0.000859
      f+2     :     0.000606
      f-2     :     0.000607
      f+3     :    -0.000000
      f-3     :    -0.000000


                      *****************************
                      * MAYER POPULATION ANALYSIS *
                      *****************************

  NA   - Mulliken gross atomic population
  ZA   - Total nuclear charge
  QA   - Mulliken gross atomic charge
  VA   - Mayer's total valence
  BVA  - Mayer's bonded valence
  FA   - Mayer's free valence

  ATOM       NA         ZA         QA         VA         BVA        FA
  0 V     22.5788    23.0000     0.4212     5.3637     2.3193     3.0445
  1 S     16.4212    16.0000    -0.4212     2.4401     2.3193     0.1209

  Mayer bond orders larger than 0.100000
B(  0-V ,  1-S ) :   2.3193 

-------
TIMINGS
-------

Total SCF time: 0 days 0 hours 2 min 30 sec 

Total time                  ....     150.624 sec
Sum of individual times     ....     149.432 sec  ( 99.2%)

Fock matrix formation       ....     143.382 sec  ( 95.2%)
  XC integration            ....     137.703 sec  ( 96.0% of F)
    Basis function eval.    ....       0.035 sec  (  0.0% of XC)
    Density eval.           ....       0.086 sec  (  0.1% of XC)
    XC-Functional eval.     ....       0.088 sec  (  0.1% of XC)
    XC-Potential eval.      ....       0.188 sec  (  0.1% of XC)
Diagonalization             ....       3.052 sec  (  2.0%)
Density matrix formation    ....       0.038 sec  (  0.0%)
Population analysis         ....       0.546 sec  (  0.4%)
Initial guess               ....       0.216 sec  (  0.1%)
Orbital Transformation      ....       0.000 sec  (  0.0%)
Orbital Orthonormalization  ....       0.000 sec  (  0.0%)
DIIS solution               ....       0.173 sec  (  0.1%)
Grid generation             ....       2.023 sec  (  1.3%)


-------------------------------------------------------------------------------
                          DFT DISPERSION CORRECTION                            
                                                                               
                              DFTD3 V3.1  Rev 1                                
                              USING zero damping                               
-------------------------------------------------------------------------------
The M06 functional is recognized
Active option DFTDOPT                   ...         3   

molecular C6(AA) [au] = 1115.795535 


            DFT-D V3
 parameters
 s6 scaling factor         :     1.0000 
 rs6 scaling factor        :     1.3250 
 s8 scaling factor         :     0.0000 
 rs8 scaling factor        :     1.0000 
 Damping factor alpha6     :    14.0000 
 Damping factor alpha8     :    16.0000 
 ad hoc parameters k1-k3   :    16.0000     1.3333    -4.0000 

 Edisp/kcal,au: -0.000041125997  -0.000000065538 
 E6   /kcal   :  -0.000041126 
 E8   /kcal   :  -0.000000000 
 % E8         :   0.000000000 

-------------------------   ----------------
Dispersion correction           -0.000000066
-------------------------   ----------------


-------------------------   --------------------
FINAL SINGLE POINT ENERGY     -1342.093554141046
-------------------------   --------------------


                            ***************************************
                            *     ORCA property calculations      *
                            ***************************************

                                    ---------------------
                                    Active property flags
                                    ---------------------
   (+) Dipole Moment


------------------------------------------------------------------------------
                       ORCA ELECTRIC PROPERTIES CALCULATION
------------------------------------------------------------------------------

Dipole Moment Calculation                       ... on
Quadrupole Moment Calculation                   ... off
Polarizability Calculation                      ... off
GBWName                                         ... VS.gbw
Electron density file                           ... VS.scfp
The origin for moment calculation is the CENTER OF MASS  = ( 0.000000,  0.000000  1.494907)

-------------
DIPOLE MOMENT
-------------
                                X             Y             Z
Electronic contribution:      0.00000      -0.00000      -5.99111
Nuclear contribution   :      0.00000       0.00000       3.62116
                        -----------------------------------------
Total Dipole Moment    :      0.00000      -0.00000      -2.36995
                        -----------------------------------------
Magnitude (a.u.)       :      2.36995
Magnitude (Debye)      :      6.02393



--------------------
Rotational spectrum 
--------------------
 
Rotational constants in cm-1:     0.000000     0.204264     0.204264 
Rotational constants in MHz :     0.000000  6123.691915  6123.691915 

 Dipole components along the rotational axes: 
x,y,z [a.u.] :    -2.369947    -0.000000     0.000000 
x,y,z [Debye]:    -6.023926    -0.000000     0.000000 

 

Timings for individual modules:

Sum of individual times         ...      154.669 sec (=   2.578 min)
GTO integral calculation        ...        3.435 sec (=   0.057 min)   2.2 %
SCF iterations                  ...      151.234 sec (=   2.521 min)  97.8 %
                             ****ORCA TERMINATED NORMALLY****
TOTAL RUN TIME: 0 days 0 hours 3 minutes 7 seconds 944 msec
