
                                 *****************
                                 * O   R   C   A *
                                 *****************

           --- An Ab Initio, DFT and Semiempirical electronic structure package ---

                  #######################################################
                  #                        -***-                        #
                  #          Department of theory and spectroscopy      #
                  #               Directorship: Frank Neese             #
                  #        Max Planck Institute fuer Kohlenforschung    #
                  #                Kaiser Wilhelm Platz 1               #
                  #                 D-45470 Muelheim/Ruhr               #
                  #                      Germany                        #
                  #                                                     #
                  #                  All rights reserved                #
                  #                        -***-                        #
                  #######################################################


                         Program Version 4.2.0 -  RELEASE  -


 With contributions from (in alphabetic order):
   Daniel Aravena         : Magnetic Suceptibility
   Michael Atanasov       : Ab Initio Ligand Field Theory (pilot matlab implementation)
   Alexander A. Auer      : GIAO ZORA, VPT2
   Ute Becker             : Parallelization
   Giovanni Bistoni       : ED, misc. LED, open-shell LED, HFLED
   Martin Brehm           : Molecular dynamics
   Dmytro Bykov           : SCF Hessian
   Vijay G. Chilkuri      : MRCI spin determinant printing, contributions to CSF-ICE
   Dipayan Datta          : RHF DLPNO-CCSD density
   Achintya Kumar Dutta   : EOM-CC, STEOM-CC
   Dmitry Ganyushin       : Spin-Orbit,Spin-Spin,Magnetic field MRCI
   Miquel Garcia          : C-PCM Hessian, Gaussian charge scheme
   Yang Guo               : DLPNO-NEVPT2, CIM, IAO-localization
   Andreas Hansen         : Spin unrestricted coupled pair/coupled cluster methods
   Benjamin Helmich-Paris : CASSCF linear response (MC-RPA)
   Lee Huntington         : MR-EOM, pCC
   Robert Izsak           : Overlap fitted RIJCOSX, COSX-SCS-MP3, EOM
   Christian Kollmar      : KDIIS, OOCD, Brueckner-CCSD(T), CCSD density
   Simone Kossmann        : Meta GGA functionals, TD-DFT gradient, OOMP2, MP2 Hessian
   Martin Krupicka        : AUTO-CI
   Lucas Lang             : DCDCAS
   Dagmar Lenk            : GEPOL surface, SMD
   Dimitrios Liakos       : Extrapolation schemes; Compound Job, initial MDCI parallelization
   Dimitrios Manganas     : Further ROCIS development; embedding schemes
   Dimitrios Pantazis     : SARC Basis sets
   Taras Petrenko         : DFT Hessian,TD-DFT gradient, ASA, ECA, R-Raman, ABS, FL, XAS/XES, NRVS
   Peter Pinski           : DLPNO-MP2, DLPNO-MP2 Gradient
   Christoph Reimann      : Effective Core Potentials
   Marius Retegan         : Local ZFS, SOC
   Christoph Riplinger    : Optimizer, TS searches, QM/MM, DLPNO-CCSD(T), (RO)-DLPNO pert. Triples
   Tobias Risthaus        : Range-separated hybrids, TD-DFT gradient, RPA, STAB
   Michael Roemelt        : Original ROCIS implementation
   Masaaki Saitow         : Open-shell DLPNO-CCSD energy and density
   Barbara Sandhoefer     : DKH picture change effects
   Avijit Sen             : IP-ROCIS
   Kantharuban Sivalingam : CASSCF convergence, NEVPT2, FIC-MRCI
   Bernardo de Souza      : ESD, SOC TD-DFT
   Georgi Stoychev        : AutoAux, RI-MP2 NMR
   Willem Van den Heuvel  : Paramagnetic NMR
   Boris Wezisla          : Elementary symmetry handling
   Frank Wennmohs         : Technical directorship


 We gratefully acknowledge several colleagues who have allowed us to
 interface, adapt or use parts of their codes:
   Stefan Grimme, W. Hujo, H. Kruse,             : VdW corrections, initial TS optimization,
                  C. Bannwarth                     DFT functionals, gCP, sTDA/sTD-DF
   Ed Valeev, F. Pavosevic, A. Kumar             : LibInt (2-el integral package), F12 methods
   Garnet Chan, S. Sharma, J. Yang, R. Olivares  : DMRG
   Ulf Ekstrom                                   : XCFun DFT Library
   Mihaly Kallay                                 : mrcc  (arbitrary order and MRCC methods)
   Andreas Klamt, Michael Diedenhofen            : otool_cosmo (COSMO solvation model)
   Jiri Pittner, Ondrej Demel                    : Mk-CCSD
   Frank Weinhold                                : gennbo (NPA and NBO analysis)
   Christopher J. Cramer and Donald G. Truhlar   : smd solvation model
   Lars Goerigk                                  : TD-DFT with DH, B97 family of functionals
   V. Asgeirsson, H. Jonsson                     : NEB implementation
   FAccTs GmbH                                   : IRC, NEB, NEB-TS, Multilevel, MM, QM/MM, CI optimization
   S Lehtola, MJT Oliveira, MAL Marques          : LibXC Library


 Your calculation uses the libint2 library for the computation of 2-el integrals
 For citations please refer to: http://libint.valeyev.net

 Your ORCA version has been built with support for libXC version: 4.2.3
 For citations please refer to: https://tddft.org/programs/libxc/

 This ORCA versions uses:
   CBLAS   interface :  Fast vector & matrix operations
   LAPACKE interface :  Fast linear algebra routines
   SCALAPACK package :  Parallel linear algebra routines


Your calculation utilizes the atom-pairwise dispersion correction
with the Becke-Johnson damping scheme (D3BJ)
Cite in your paper:
S.Grimme, S.Ehrlich, L.Goerigk, J Comput Chem, (2011), 32, 1456–1465 
S.Grimme, J.Antony, S.Ehrlich and H.Krieg, J.Chem.Phys., 132, (2010), 154104 
   

----- Orbital basis set information -----
Your calculation utilizes the basis: def2-TZVPPD
   F. Weigend and R. Ahlrichs, Phys. Chem. Chem. Phys. 7, 3297 (2005).
   D. Rappoport and F. Furche, J. Chem. Phys. 133 134105 (2010).

----- AuxC basis set information -----
Your calculation utilizes the auxiliary basis: def2-TZVPPD/C
   A. Hellweg, C. Hattig, S. Hofener and W. Klopper, Theor. Chem. Acc. 117, 587 (2007).

----- AuxJK basis set information -----
Your calculation utilizes the auxiliary basis: def2/JK
   H-Ba, Hf-Rn: F. Weigend, J. Comput. Chem. 29, 167 (2008).

================================================================================
                                        WARNINGS
                       Please study these warnings very carefully!
================================================================================


WARNING: your system is open-shell and RHF/RKS was chosen
  ===> : WILL SWITCH to UHF/UKS


WARNING: No MP2 level density has been requested!
         To caclulate MP2 level properties use
         %mp2 Density relaxed end
         or
         %mp2 Density unrelaxed end
         Otherwise for double-hybrid DFT only the energy is correct!

WARNING: The frozen-core approximation is turned on by default for 
         the MP2 part of double-hybrid DFT.

INFO   : the flag for use of LIBINT has been found!

================================================================================
                                       INPUT FILE
================================================================================
NAME = c.in
|  1> #
|  2> # c ri-B2PLYP-D3BJ/Def2-TZVPPD
|  3> #
|  4> ! rijk ri-b2plyp d3bj def2-tzvppd def2/jk def2-tzvppd/c grid4 nofinalgrid
|  5> 
|  6> *xyz 0 3
|  7> C          0.00000        0.00000        0.00000
|  8> *
|  9> 
| 10> %maxcore 5000
| 11> 
| 12> %pal
| 13> nprocs = 28
| 14> end
| 15> 
| 16> 
| 17>                          ****END OF INPUT****
================================================================================

                       ****************************
                       * Single Point Calculation *
                       ****************************

---------------------------------
CARTESIAN COORDINATES (ANGSTROEM)
---------------------------------
  C      0.000000    0.000000    0.000000

----------------------------
CARTESIAN COORDINATES (A.U.)
----------------------------
  NO LB      ZA    FRAG     MASS         X           Y           Z
   0 C     6.0000    0    12.011    0.000000    0.000000    0.000000

--------------------------------
INTERNAL COORDINATES (ANGSTROEM)
--------------------------------
 C      0   0   0     0.000000000000     0.00000000     0.00000000

---------------------------
INTERNAL COORDINATES (A.U.)
---------------------------
 C      0   0   0     0.000000000000     0.00000000     0.00000000

---------------------
BASIS SET INFORMATION
---------------------
There are 1 groups of distinct atoms

 Group   1 Type C   : 12s6p3d1f contracted to 6s3p3d1f pattern {621111/411/111/1}

Atom   0C    basis set group =>   1
---------------------------------
AUXILIARY/C BASIS SET INFORMATION
---------------------------------
There are 1 groups of distinct atoms

 Group   1 Type C   : 9s7p6d4f1g contracted to 9s7p5d4f1g pattern {111111111/1111111/21111/1111/1}

Atom   0C    basis set group =>   1
----------------------------------
AUXILIARY/JK BASIS SET INFORMATION
----------------------------------
There are 1 groups of distinct atoms

 Group   1 Type C   : 14s10p6d2f1g contracted to 10s8p5d1f1g pattern {5111111111/31111111/21111/2/1}

Atom   0C    basis set group =>   1


           ************************************************************
           *        Program running with 28 parallel MPI-processes    *
           *              working on a common directory               *
           ************************************************************
------------------------------------------------------------------------------
                           ORCA GTO INTEGRAL CALCULATION
                           -- RI-GTO INTEGRALS CHOSEN --
------------------------------------------------------------------------------

                         BASIS SET STATISTICS AND STARTUP INFO

Gaussian basis set:
 # of primitive gaussian shells          ...   22
 # of primitive gaussian functions       ...   52
 # of contracted shells                  ...   13
 # of contracted basis functions         ...   37
 Highest angular momentum                ...    3
 Maximum contraction depth               ...    6
Auxiliary gaussian basis set:
 # of primitive gaussian shells          ...   33
 # of primitive gaussian functions       ...   97
 # of contracted shells                  ...   25
 # of contracted aux-basis functions     ...   75
 Highest angular momentum                ...    4
 Maximum contraction depth               ...    5
Ratio of auxiliary to basis functions    ...  2.03
Integral package used                  ... LIBINT
 One Electron integrals                  ... done
 Ordering auxiliary basis shells         ... done
 Integral threshhold             Thresh  ...  1.000e-10
 Primitive cut-off               TCut    ...  1.000e-11
 Pre-screening matrix                    ... done
 Shell pair data                         ... 
 Ordering of the shell pairs             ... done (   0.000 sec) 91 of 91 pairs
 Determination of significant pairs      ... done (   0.000 sec)
 Creation of shell pair data             ... done (   0.000 sec)
 Storage of shell pair data              ... done (   0.060 sec)
 Shell pair data done in (   0.060 sec)
 Computing two index integrals           ... done
 Cholesky decomposition of the V-matrix  ... done


Timings:
 Total evaluation time                   ...   0.627 sec (  0.010 min)
 One electron matrix time                ...   0.221 sec (  0.004 min) = 35.3%
 Schwartz matrix evaluation time         ...   0.108 sec (  0.002 min) = 17.1%
 Two index repulsion integral time       ...   0.051 sec (  0.001 min) =  8.1%
 Cholesky decomposition of V             ...   0.066 sec (  0.001 min) = 10.5%
 Three index repulsion integral time     ...   0.000 sec (  0.000 min) =  0.0%



           ************************************************************
           *        Program running with 28 parallel MPI-processes    *
           *              working on a common directory               *
           ************************************************************
-------------------------------------------------------------------------------
                                 ORCA SCF
-------------------------------------------------------------------------------

------------
SCF SETTINGS
------------
Hamiltonian:
 Density Functional     Method          .... DFT(GTOs)
 Exchange Functional    Exchange        .... B88
   X-Alpha parameter    XAlpha          ....  0.666667
   Becke's b parameter  XBeta           ....  0.004200
 Correlation Functional Correlation     .... LYP
 LDA part of GGA corr.  LDAOpt          .... VWN-3
 Gradients option       PostSCFGGA      .... off
 Hybrid DFT is turned on
   Fraction HF Exchange ScalHFX         ....  0.530000
   Scaling of DF-GGA-X  ScalDFX         ....  0.470000
   Scaling of DF-GGA-C  ScalDFC         ....  0.730000
   Scaling of DF-LDA-C  ScalLDAC        ....  0.730000
   Perturbative correction              ....  0.270000
   Density functional embedding theory  .... OFF
 RI-approximation to the Coulomb term is turned on
   Number of auxiliary basis functions  .... 75
   RI-JK (J+K treated both via RI)      .... on


General Settings:
 Integral files         IntName         .... c.in
 Hartree-Fock type      HFTyp           .... UHF
 Total Charge           Charge          ....    0
 Multiplicity           Mult            ....    3
 Number of Electrons    NEL             ....    6
 Basis Dimension        Dim             ....   37
 Nuclear Repulsion      ENuc            ....      0.0000000000 Eh

Convergence Acceleration:
 DIIS                   CNVDIIS         .... on
   Start iteration      DIISMaxIt       ....    12
   Startup error        DIISStart       ....  0.200000
   # of expansion vecs  DIISMaxEq       ....     5
   Bias factor          DIISBfac        ....   1.050
   Max. coefficient     DIISMaxC        ....  10.000
 Newton-Raphson         CNVNR           .... off
 SOSCF                  CNVSOSCF        .... off
 Level Shifting         CNVShift        .... on
   Level shift para.    LevelShift      ....    0.2500
   Turn off err/grad.   ShiftErr        ....    0.0010
 Zerner damping         CNVZerner       .... off
 Static damping         CNVDamp         .... on
   Fraction old density DampFac         ....    0.7000
   Max. Damping (<1)    DampMax         ....    0.9800
   Min. Damping (>=0)   DampMin         ....    0.0000
   Turn off err/grad.   DampErr         ....    0.1000
 Fernandez-Rico         CNVRico         .... off

SCF Procedure:
 Maximum # iterations   MaxIter         ....   125
 SCF integral mode      SCFMode         .... Direct
   Integral package                     .... LIBINT
 Reset frequency        DirectResetFreq ....    20
 Integral Threshold     Thresh          ....  1.000e-10 Eh
 Primitive CutOff       TCut            ....  1.000e-11 Eh

Convergence Tolerance:
 Convergence Check Mode ConvCheckMode   .... Total+1el-Energy
 Convergence forced     ConvForced      .... 0
 Energy Change          TolE            ....  1.000e-06 Eh
 1-El. energy change                    ....  1.000e-03 Eh
 DIIS Error             TolErr          ....  1.000e-06


Diagonalization of the overlap matrix:
Smallest eigenvalue                        ... 8.753e-03
Time for diagonalization                   ...    0.007 sec
Threshold for overlap eigenvalues          ... 1.000e-08
Number of eigenvalues below threshold      ... 0
Time for construction of square roots      ...    0.310 sec
Total time needed                          ...    0.317 sec

-------------------
DFT GRID GENERATION
-------------------

General Integration Accuracy     IntAcc      ...  4.670
Radial Grid Type                 RadialGrid  ... Gauss-Chebyshev
Angular Grid (max. acc.)         AngularGrid ... Lebedev-302
Angular grid pruning method      GridPruning ... 3 (G Style)
Weight generation scheme         WeightScheme... Becke
Basis function cutoff            BFCut       ...    1.0000e-10
Integration weight cutoff        WCut        ...    1.0000e-14
Grids for H and He will be reduced by one unit

# of grid points (after initial pruning)     ...   6212 (   0.0 sec)
# of grid points (after weights+screening)   ...   6212 (   0.0 sec)
Grid point division into batches done        ...    0.0 sec
Reduced shell lists constructed in    0.0 sec

Total number of grid points                  ...     6212
Total number of batches                      ...       98
Average number of points per batch           ...       63
Average number of grid points per atom       ...     6212
Average number of shells per batch           ...     3.20 (24.62%)
Average number of basis functions per batch  ...     8.00 (21.62%)
Average number of large shells per batch     ...     2.40 (75.00%)
Average number of large basis fcns per batch ...     7.20 (90.00%)
Average number of aux-shells per batch       ...     3.20 (12.80%)
Average number of aux functions per batch    ...     8.00 (10.67%)
Maximum spatial batch extension              ...  18.61, 18.61, 18.61 au
Average spatial batch extension              ...   0.64,  0.64,  0.76 au

Time for grid setup =    3.194 sec

------------------------------
INITIAL GUESS: MODEL POTENTIAL
------------------------------
Loading Hartree-Fock densities                     ... done
Calculating cut-offs                               ... done
Setting up the integral package                    ... done
Initializing the effective Hamiltonian             ... done
Starting the Coulomb interaction                   ... done (   0.0 sec)
Reading the grid                                   ... done
Mapping shells                                     ... done
Starting the XC term evaluation                    ... done (   0.0 sec)
  promolecular density results
     # of electrons  =      5.999999591
     EX              =     -4.961387945
     EC              =     -0.045459759
     EX+EC           =     -5.006847705
Transforming the Hamiltonian                       ... done (   0.1 sec)
Diagonalizing the Hamiltonian                      ... done (   0.0 sec)
Back transforming the eigenvectors                 ... done (   0.0 sec)
Now organizing SCF variables                       ... done
                      ------------------
                      INITIAL GUESS DONE (   4.6 sec)
                      ------------------
--------------
SCF ITERATIONS
--------------
ITER       Energy         Delta-E        Max-DP      RMS-DP      [F,P]     Damp
  0    -37.7940263135   0.000000000000 0.01319834  0.00060783  0.0440677 0.7000
  1    -37.8089549016  -0.014928588108 0.01486461  0.00069767  0.0442017 0.7000
                               ***Turning on DIIS***
  2    -37.8125077699  -0.003552868311 0.04146162  0.00198055  0.0335682 0.0000
  3    -37.8042468195   0.008260950374 0.01033559  0.00040960  0.0216056 0.0000
  4    -37.8048791144  -0.000632294891 0.00341498  0.00018673  0.0084871 0.0000
  5    -37.8049815086  -0.000102394253 0.00177392  0.00006410  0.0023463 0.0000
  6    -37.8049907020  -0.000009193346 0.00070567  0.00002822  0.0006827 0.0000
  7    -37.8049917590  -0.000001057015 0.00007655  0.00000330  0.0000426 0.0000
                 **** Energy Check signals convergence ****

               *****************************************************
               *                     SUCCESS                       *
               *           SCF CONVERGED AFTER   8 CYCLES          *
               *****************************************************


----------------
TOTAL SCF ENERGY
----------------

Total Energy       :          -37.80499177 Eh           -1028.72613 eV

Components:
Nuclear Repulsion  :            0.00000000 Eh               0.00000 eV
Electronic Energy  :          -37.80499177 Eh           -1028.72613 eV
One Electron Energy:          -50.47552531 Eh           -1373.50887 eV
Two Electron Energy:           12.67053354 Eh             344.78275 eV

Virial components:
Potential Energy   :          -75.53502713 Eh           -2055.41258 eV
Kinetic Energy     :           37.73003537 Eh            1026.68646 eV
Virial Ratio       :            2.00198665


DFT components:
N(Alpha)           :        4.000000237396 electrons
N(Beta)            :        2.000000235754 electrons
N(Total)           :        6.000000473150 electrons
E(X)               :       -2.381369679186 Eh       
E(C)               :       -0.116030424967 Eh       
E(XC)              :       -2.497400104154 Eh       
DFET-embed. en.    :        0.000000000000 Eh       

---------------
SCF CONVERGENCE
---------------

  Last Energy change         ...   -1.0188e-08  Tolerance :   1.0000e-06
  Last MAX-Density change    ...    8.9375e-06  Tolerance :   1.0000e-05
  Last RMS-Density change    ...    4.0427e-07  Tolerance :   1.0000e-06
  Last DIIS Error            ...    2.5188e-06  Tolerance :   1.0000e-06

             **** THE GBW FILE WAS UPDATED (c.in.gbw) ****
             **** DENSITY FILE WAS UPDATED (c.in.scfp) ****
             **** ENERGY FILE WAS UPDATED (c.in.en.tmp) ****
----------------------
UHF SPIN CONTAMINATION
----------------------

Warning: in a DFT calculation there is little theoretical justification to 
         calculate <S**2> as in Hartree-Fock theory. We will do it anyways
         but you should keep in mind that the values have only limited relevance

Expectation value of <S**2>     :     2.005844
Ideal value S*(S+1) for S=1.0   :     2.000000
Deviation                       :     0.005844

             **** THE GBW FILE WAS UPDATED (c.in.gbw) ****
             **** DENSITY FILE WAS UPDATED (c.in.scfp) ****
----------------
ORBITAL ENERGIES
----------------
                 SPIN UP ORBITALS
  NO   OCC          E(Eh)            E(eV) 
   0   1.0000     -10.739811      -292.2451 
   1   1.0000      -0.685877       -18.6637 
   2   1.0000      -0.336578        -9.1588 
   3   1.0000      -0.336578        -9.1588 
   4   0.0000      -0.074070        -2.0155 
   5   0.0000       0.054263         1.4766 
   6   0.0000       0.235763         6.4154 
   7   0.0000       0.235764         6.4155 
   8   0.0000       0.237013         6.4495 
   9   0.0000       0.237013         6.4495 
  10   0.0000       0.237188         6.4542 
  11   0.0000       0.262571         7.1449 
  12   0.0000       0.262571         7.1449 
  13   0.0000       0.291318         7.9272 
  14   0.0000       0.378298        10.2940 
  15   0.0000       0.891172        24.2500 
  16   0.0000       0.891172        24.2500 
  17   0.0000       0.898721        24.4554 
  18   0.0000       0.898721        24.4554 
  19   0.0000       0.905873        24.6500 
  20   0.0000       1.467127        39.9226 
  21   0.0000       1.467127        39.9226 
  22   0.0000       1.500759        40.8377 
  23   0.0000       1.509702        41.0811 
  24   0.0000       2.760214        75.1093 
  25   0.0000       2.760214        75.1093 
  26   0.0000       2.761097        75.1333 
  27   0.0000       2.761097        75.1333 
  28   0.0000       2.764020        75.2128 
  29   0.0000       2.765649        75.2571 
  30   0.0000       2.765649        75.2571 
  31   0.0000       3.157105        85.9092 
  32   0.0000       3.157105        85.9092 
  33   0.0000       3.164637        86.1141 
  34   0.0000       3.164637        86.1142 
  35   0.0000       3.176745        86.4436 
  36   0.0000      21.841758       594.3445 

                 SPIN DOWN ORBITALS
  NO   OCC          E(Eh)            E(eV) 
   0   1.0000     -10.704856      -291.2939 
   1   1.0000      -0.526538       -14.3278 
   2   0.0000      -0.046166        -1.2562 
   3   0.0000       0.000219         0.0060 
   4   0.0000       0.000219         0.0060 
   5   0.0000       0.060187         1.6378 
   6   0.0000       0.238391         6.4870 
   7   0.0000       0.240260         6.5378 
   8   0.0000       0.240260         6.5378 
   9   0.0000       0.247893         6.7455 
  10   0.0000       0.247893         6.7455 
  11   0.0000       0.303311         8.2535 
  12   0.0000       0.333846         9.0844 
  13   0.0000       0.333846         9.0844 
  14   0.0000       0.401333        10.9208 
  15   0.0000       0.934962        25.4416 
  16   0.0000       0.944730        25.7074 
  17   0.0000       0.944730        25.7074 
  18   0.0000       0.973346        26.4861 
  19   0.0000       0.973346        26.4861 
  20   0.0000       1.517241        41.2862 
  21   0.0000       1.561865        42.5005 
  22   0.0000       1.561865        42.5005 
  23   0.0000       1.562547        42.5191 
  24   0.0000       2.799645        76.1822 
  25   0.0000       2.806894        76.3795 
  26   0.0000       2.806894        76.3795 
  27   0.0000       2.826264        76.9066 
  28   0.0000       2.826264        76.9066 
  29   0.0000       2.858162        77.7745 
  30   0.0000       2.858162        77.7745 
  31   0.0000       3.212203        87.4085 
  32   0.0000       3.227178        87.8160 
  33   0.0000       3.227178        87.8160 
  34   0.0000       3.271745        89.0287 
  35   0.0000       3.271745        89.0287 
  36   0.0000      21.869878       595.1096 

                    ********************************
                    * MULLIKEN POPULATION ANALYSIS *
                    ********************************

--------------------------------------------
MULLIKEN ATOMIC CHARGES AND SPIN POPULATIONS
--------------------------------------------
   0 C :   -0.000000    2.000000
Sum of atomic charges         :   -0.0000000
Sum of atomic spin populations:    2.0000000

-----------------------------------------------------
MULLIKEN REDUCED ORBITAL CHARGES AND SPIN POPULATIONS
-----------------------------------------------------
CHARGE
  0 C s       :     3.998430  s :     3.998430
      pz      :     0.998120  p :     1.999998
      px      :     0.004328
      py      :     0.997550
      dz2     :     0.000388  d :     0.001570
      dxz     :     0.000009
      dyz     :     0.000000
      dx2y2   :     0.001161
      dxy     :     0.000011
      f0      :     0.000000  f :     0.000002
      f+1     :     0.000000
      f-1     :     0.000000
      f+2     :     0.000001
      f-2     :     0.000000
      f+3     :     0.000000
      f-3     :     0.000001

SPIN
  0 C s       :     0.000326  s :     0.000326
      pz      :     0.998120  p :     1.999998
      px      :     0.004328
      py      :     0.997550
      dz2     :    -0.000081  d :    -0.000326
      dxz     :    -0.000002
      dyz     :    -0.000000
      dx2y2   :    -0.000241
      dxy     :    -0.000002
      f0      :     0.000000  f :     0.000002
      f+1     :     0.000000
      f-1     :     0.000000
      f+2     :     0.000001
      f-2     :     0.000000
      f+3     :     0.000000
      f-3     :     0.000001


                     *******************************
                     * LOEWDIN POPULATION ANALYSIS *
                     *******************************

-------------------------------------------
LOEWDIN ATOMIC CHARGES AND SPIN POPULATIONS
-------------------------------------------
   0 C :   -0.000000    2.000000

----------------------------------------------------
LOEWDIN REDUCED ORBITAL CHARGES AND SPIN POPULATIONS
----------------------------------------------------
CHARGE
  0 C s       :     3.998430  s :     3.998430
      pz      :     0.998120  p :     1.999998
      px      :     0.004328
      py      :     0.997550
      dz2     :     0.000388  d :     0.001570
      dxz     :     0.000009
      dyz     :     0.000000
      dx2y2   :     0.001161
      dxy     :     0.000011
      f0      :     0.000000  f :     0.000002
      f+1     :     0.000000
      f-1     :     0.000000
      f+2     :     0.000001
      f-2     :     0.000000
      f+3     :     0.000000
      f-3     :     0.000001

SPIN
  0 C s       :     0.000326  s :     0.000326
      pz      :     0.998120  p :     1.999998
      px      :     0.004328
      py      :     0.997550
      dz2     :    -0.000081  d :    -0.000326
      dxz     :    -0.000002
      dyz     :    -0.000000
      dx2y2   :    -0.000241
      dxy     :    -0.000002
      f0      :     0.000000  f :     0.000002
      f+1     :     0.000000
      f-1     :     0.000000
      f+2     :     0.000001
      f-2     :     0.000000
      f+3     :     0.000000
      f-3     :     0.000001


                      *****************************
                      * MAYER POPULATION ANALYSIS *
                      *****************************

  NA   - Mulliken gross atomic population
  ZA   - Total nuclear charge
  QA   - Mulliken gross atomic charge
  VA   - Mayer's total valence
  BVA  - Mayer's bonded valence
  FA   - Mayer's free valence

  ATOM       NA         ZA         QA         VA         BVA        FA
  0 C      6.0000     6.0000    -0.0000     2.0117     0.0000     2.0117

  Mayer bond orders larger than 0.100000


-------
TIMINGS
-------

Total SCF time: 0 days 0 hours 2 min 7 sec 

Total time                  ....     127.467 sec
Sum of individual times     ....     126.084 sec  ( 98.9%)

Fock matrix formation       ....     119.226 sec  ( 93.5%)
  XC integration            ....     114.776 sec  ( 96.3% of F)
    Basis function eval.    ....       0.002 sec  (  0.0% of XC)
    Density eval.           ....       0.006 sec  (  0.0% of XC)
    XC-Functional eval.     ....       0.009 sec  (  0.0% of XC)
    XC-Potential eval.      ....       0.003 sec  (  0.0% of XC)
Diagonalization             ....       1.355 sec  (  1.1%)
Density matrix formation    ....       0.005 sec  (  0.0%)
Population analysis         ....       0.820 sec  (  0.6%)
Initial guess               ....       1.429 sec  (  1.1%)
Orbital Transformation      ....       0.000 sec  (  0.0%)
Orbital Orthonormalization  ....       0.000 sec  (  0.0%)
DIIS solution               ....       0.056 sec  (  0.0%)
Grid generation             ....       3.194 sec  (  2.5%)


           ************************************************************
           *        Program running with 28 parallel MPI-processes    *
           *              working on a common directory               *
           ************************************************************

------------------------------------------------------------------------------
                                ORCA  MP2 
------------------------------------------------------------------------------

Freezing NCore=2 chemical core electrons

-------------
RI-MP2 ENERGY
-------------
Dimension of the basis                    ...   37
Memory devoted to MP2                     ... 5000 MB   
Data format for buffers                   ... DOUBLE
Compression type for matrix containers    ... UNCOMPRESSED
Overall scaling of the MP2 energy         ...   2.700e-01
Calculating two index integrals           ... done (    0.004 sec)
Cholesky decomposition of V**-1           ... done (    0.209 sec)

-----------------
RI-TRANSFORMATION (AUX index driven)
-----------------

Dimension of the orbital-basis         ... 37
Dimension of the aux-basis             ... 92
Transformation of internal/external MOs...    1-   3 to    4-  36
Number Format for Storage              ... Double (8 Byte)
Integral mode                          ... Direct

First Phase: integral generation and transformation of MO indices
  Aux angular momentum 0               ... done (    0.000 sec)
  Aux angular momentum 1               ... done (    0.000 sec)
  Aux angular momentum 2               ... done (    0.001 sec)
  Aux angular momentum 3               ... done (    0.000 sec)
  Aux angular momentum 4               ... done (    0.000 sec)
Closing buffer VIA ( 0.00 GB; CompressionRatio= 0.99)
  Phase 1 completed in     2.881 sec
Second Phase: sorting and transformation of aux index

IA-Transformation
Memory available                       ... 5000 MB 
Max. # MO pairs treated in a batch     ... 1    
# of internal orbitals                 ... 3
# batches for internal orbitals        ... 1
Closing buffer IAV ( 0.00 GB; CompressionRatio= 1.00)
(ia|v) transformation done in     1.063 sec

  Phase 2 completed in     3.339 sec
RI-Integral transformation completed in     7.392 sec

-----------------
RI-TRANSFORMATION (AUX index driven)
-----------------

Dimension of the orbital-basis         ... 37
Dimension of the aux-basis             ... 92
Transformation of internal/external MOs...    1-   1 to    2-  36
Number Format for Storage              ... Double (8 Byte)
Integral mode                          ... Direct

First Phase: integral generation and transformation of MO indices
  Aux angular momentum 0               ... done (    0.000 sec)
  Aux angular momentum 1               ... done (    0.000 sec)
  Aux angular momentum 2               ... done (    0.000 sec)
  Aux angular momentum 3               ... done (    0.002 sec)
  Aux angular momentum 4               ... done (    0.000 sec)
Closing buffer VIA ( 0.00 GB; CompressionRatio= 0.96)
  Phase 1 completed in     3.050 sec
Second Phase: sorting and transformation of aux index

IA-Transformation
Memory available                       ... 5000 MB 
Max. # MO pairs treated in a batch     ... 1    
# of internal orbitals                 ... 1
# batches for internal orbitals        ... 1
Closing buffer IAV ( 0.00 GB; CompressionRatio= 1.00)
(ia|v) transformation done in     0.110 sec

  Phase 2 completed in     4.536 sec
RI-Integral transformation completed in     8.349 sec
Opening buffers                              ... done

Starting loop over batches of integrals:

Operator 0  - window                       ... (  1-  3)x(  4- 36)
Operator 0  - Memory available             ...  5000 MB
Operator 0  - Memory needed per MO         ...   0.0 MB
Operator 0  - Number of orbitals per batch ... 1
Operator 0  - Number of batches            ... 1

OPERATOR  0   PASS   0:  MOs     1 ...    1 +    2 ...    2 +    3 ...    3
  Reading integrals       ... ok

Operator 1  - window                       ... (  1-  1)x(  2- 36)
Operator 1  - Memory available             ...  5000 MB
Operator 1  - Memory needed per MO         ...   0.0 MB
Operator 1  - Number of orbitals per batch ... 1
Operator 1  - Number of batches            ... 1

OPERATOR  1   PASS   0:  MOs     1 ...    1
  Reading integrals       ... ok
Time spent in pair loops =     0.003 sec
Deleting buffer (Ka|jb)[aa] ...done
Deleting buffer (Ka|jb)[ab] ...done
Deleting buffer (Ka|jb)[ba] ...done
Deleting buffer (Ka|jb)[bb] ...done

Correlation energy components}
 E2 and T2 for alpha/alpha pairs :     -0.004113766 Eh      0.000000000
 E2 and T2 for beta/beta   pairs :      0.000000000 Eh      0.000000000
 E2 and T2 for alpha/beta  pairs :     -0.018055888 Eh      0.000000000


-----------------------------------------------
 RI-MP2 CORRELATION ENERGY:     -0.022169653 Eh
-----------------------------------------------


-------
TIMINGS
-------

Total time                :   17.157 sec
Integral trafo            :   15.772 sec ( 91.9%)
I/O of integrals          :    0.001 sec (  0.0%)
K(i,j) Operators          :    0.000 sec (  0.0%)
T(i,j) pair energies      :    0.001 sec (  0.0%)
V-calculation             :    0.004 sec (  0.0%)
V**(-1/2)                 :    0.209 sec (  1.2%)
Gamma(ia|P)               :    0.000 sec (  0.0%)
Gamma-Trafo               :    0.000 sec (  0.0%)
D(virtual)                :    0.000 sec (  0.0%)
D(internal)               :    0.000 sec (  0.0%)
W(virtual)                :    0.000 sec (  0.0%)
W(internal)               :    0.000 sec (  0.0%)
L(virtual)                :    0.000 sec (  0.0%)
L(internal)               :    0.000 sec (  0.0%)
G(D)                      :    0.000 sec (  0.0%)
G(Z)                      :    0.000 sec (  0.0%)
Z-Vector Solution         :    0.000 sec (  0.0%)
Z-Vector Solution         :    0.000 sec (  0.0%)
3-Index Derivative 
+ Separable RIJ part      :    0.000 sec (  0.0%)
2-Index Derivative 
+ Separable RIJ part      :    0.000 sec (  0.0%)
Separable Gradient (X)    :    0.000 sec (  0.0%)


---------------------------------------
MP2 TOTAL ENERGY:      -37.827161423 Eh
---------------------------------------


-------------------------------------------------------------------------------
                          DFT DISPERSION CORRECTION                            
                                                                               
                              DFTD3 V3.1  Rev 1                                
                          USING Becke-Johnson damping                          
-------------------------------------------------------------------------------
The B2PLYP functional is recognized
Active option DFTDOPT                   ...         4   

molecular C6(AA) [au] = 48.991680 


            DFT-D V3
 parameters
 s6 scaling factor         :     0.6400 
 a1 scaling factor         :     0.3065 
 s8 scaling factor         :     0.9147 
 a2 scaling factor         :     5.0570 
 ad hoc parameters k1-k3   :    16.0000     1.3333    -4.0000 

 Edisp/kcal,au: -0.000000000000  -0.000000000000 
 E6   /kcal   :  -0.000000000 
 E8   /kcal   :  -0.000000000 
 % E8         :          -nan 

-------------------------   ----------------
Dispersion correction            0.000000000
-------------------------   ----------------


-------------------------   --------------------
FINAL SINGLE POINT ENERGY       -37.827161422662
-------------------------   --------------------


                            ***************************************
                            *     ORCA property calculations      *
                            ***************************************


  WARNING: The energy has been calculated at the MP2 level but the densities
           used in the property calculations are still SCF densities
           MP2 response densities have not been calculated 
           use %mp2 Density relaxed end
           or  %mp2 Density unrelaxed end

                                    ---------------------
                                    Active property flags
                                    ---------------------
   (+) Dipole Moment


------------------------------------------------------------------------------
                       ORCA ELECTRIC PROPERTIES CALCULATION
------------------------------------------------------------------------------

Dipole Moment Calculation                       ... on
Quadrupole Moment Calculation                   ... off
Polarizability Calculation                      ... off
GBWName                                         ... c.in.gbw
Electron density file                           ... c.in.scfp
The origin for moment calculation is the CENTER OF MASS  = ( 0.000000,  0.000000  0.000000)

-------------
DIPOLE MOMENT
-------------
                                X             Y             Z
Electronic contribution:      0.00000      -0.00000      -0.00000
Nuclear contribution   :      0.00000       0.00000       0.00000
                        -----------------------------------------
Total Dipole Moment    :      0.00000      -0.00000      -0.00000
                        -----------------------------------------
Magnitude (a.u.)       :      0.00000
Magnitude (Debye)      :      0.00000



--------------------
Rotational spectrum 
--------------------
 
Rotational constants in cm-1:     0.000000     0.000000     0.000000 
Rotational constants in MHz :     0.000000     0.000000     0.000000 

 Dipole components along the rotational axes: 
x,y,z [a.u.] :     0.000000    -0.000000    -0.000000 
x,y,z [Debye]:     0.000000    -0.000000    -0.000000 

 

Timings for individual modules:

Sum of individual times         ...      159.668 sec (=   2.661 min)
GTO integral calculation        ...        8.133 sec (=   0.136 min)   5.1 %
SCF iterations                  ...      130.633 sec (=   2.177 min)  81.8 %
MP2 module                      ...       20.902 sec (=   0.348 min)  13.1 %
                             ****ORCA TERMINATED NORMALLY****
TOTAL RUN TIME: 0 days 0 hours 3 minutes 9 seconds 787 msec
