
                                 *****************
                                 * O   R   C   A *
                                 *****************

           --- An Ab Initio, DFT and Semiempirical electronic structure package ---

                  #######################################################
                  #                        -***-                        #
                  #          Department of theory and spectroscopy      #
                  #               Directorship: Frank Neese             #
                  #        Max Planck Institute fuer Kohlenforschung    #
                  #                Kaiser Wilhelm Platz 1               #
                  #                 D-45470 Muelheim/Ruhr               #
                  #                      Germany                        #
                  #                                                     #
                  #                  All rights reserved                #
                  #                        -***-                        #
                  #######################################################


                         Program Version 4.2.0 -  RELEASE  -


 With contributions from (in alphabetic order):
   Daniel Aravena         : Magnetic Suceptibility
   Michael Atanasov       : Ab Initio Ligand Field Theory (pilot matlab implementation)
   Alexander A. Auer      : GIAO ZORA, VPT2
   Ute Becker             : Parallelization
   Giovanni Bistoni       : ED, misc. LED, open-shell LED, HFLED
   Martin Brehm           : Molecular dynamics
   Dmytro Bykov           : SCF Hessian
   Vijay G. Chilkuri      : MRCI spin determinant printing, contributions to CSF-ICE
   Dipayan Datta          : RHF DLPNO-CCSD density
   Achintya Kumar Dutta   : EOM-CC, STEOM-CC
   Dmitry Ganyushin       : Spin-Orbit,Spin-Spin,Magnetic field MRCI
   Miquel Garcia          : C-PCM Hessian, Gaussian charge scheme
   Yang Guo               : DLPNO-NEVPT2, CIM, IAO-localization
   Andreas Hansen         : Spin unrestricted coupled pair/coupled cluster methods
   Benjamin Helmich-Paris : CASSCF linear response (MC-RPA)
   Lee Huntington         : MR-EOM, pCC
   Robert Izsak           : Overlap fitted RIJCOSX, COSX-SCS-MP3, EOM
   Christian Kollmar      : KDIIS, OOCD, Brueckner-CCSD(T), CCSD density
   Simone Kossmann        : Meta GGA functionals, TD-DFT gradient, OOMP2, MP2 Hessian
   Martin Krupicka        : AUTO-CI
   Lucas Lang             : DCDCAS
   Dagmar Lenk            : GEPOL surface, SMD
   Dimitrios Liakos       : Extrapolation schemes; Compound Job, initial MDCI parallelization
   Dimitrios Manganas     : Further ROCIS development; embedding schemes
   Dimitrios Pantazis     : SARC Basis sets
   Taras Petrenko         : DFT Hessian,TD-DFT gradient, ASA, ECA, R-Raman, ABS, FL, XAS/XES, NRVS
   Peter Pinski           : DLPNO-MP2, DLPNO-MP2 Gradient
   Christoph Reimann      : Effective Core Potentials
   Marius Retegan         : Local ZFS, SOC
   Christoph Riplinger    : Optimizer, TS searches, QM/MM, DLPNO-CCSD(T), (RO)-DLPNO pert. Triples
   Tobias Risthaus        : Range-separated hybrids, TD-DFT gradient, RPA, STAB
   Michael Roemelt        : Original ROCIS implementation
   Masaaki Saitow         : Open-shell DLPNO-CCSD energy and density
   Barbara Sandhoefer     : DKH picture change effects
   Avijit Sen             : IP-ROCIS
   Kantharuban Sivalingam : CASSCF convergence, NEVPT2, FIC-MRCI
   Bernardo de Souza      : ESD, SOC TD-DFT
   Georgi Stoychev        : AutoAux, RI-MP2 NMR
   Willem Van den Heuvel  : Paramagnetic NMR
   Boris Wezisla          : Elementary symmetry handling
   Frank Wennmohs         : Technical directorship


 We gratefully acknowledge several colleagues who have allowed us to
 interface, adapt or use parts of their codes:
   Stefan Grimme, W. Hujo, H. Kruse,             : VdW corrections, initial TS optimization,
                  C. Bannwarth                     DFT functionals, gCP, sTDA/sTD-DF
   Ed Valeev, F. Pavosevic, A. Kumar             : LibInt (2-el integral package), F12 methods
   Garnet Chan, S. Sharma, J. Yang, R. Olivares  : DMRG
   Ulf Ekstrom                                   : XCFun DFT Library
   Mihaly Kallay                                 : mrcc  (arbitrary order and MRCC methods)
   Andreas Klamt, Michael Diedenhofen            : otool_cosmo (COSMO solvation model)
   Jiri Pittner, Ondrej Demel                    : Mk-CCSD
   Frank Weinhold                                : gennbo (NPA and NBO analysis)
   Christopher J. Cramer and Donald G. Truhlar   : smd solvation model
   Lars Goerigk                                  : TD-DFT with DH, B97 family of functionals
   V. Asgeirsson, H. Jonsson                     : NEB implementation
   FAccTs GmbH                                   : IRC, NEB, NEB-TS, Multilevel, MM, QM/MM, CI optimization
   S Lehtola, MJT Oliveira, MAL Marques          : LibXC Library


 Your calculation uses the libint2 library for the computation of 2-el integrals
 For citations please refer to: http://libint.valeyev.net

 Your ORCA version has been built with support for libXC version: 4.2.3
 For citations please refer to: https://tddft.org/programs/libxc/

 This ORCA versions uses:
   CBLAS   interface :  Fast vector & matrix operations
   LAPACKE interface :  Fast linear algebra routines
   SCALAPACK package :  Parallel linear algebra routines


Your calculation utilizes the atom-pairwise dispersion correction
with the Becke-Johnson damping scheme (D3BJ)
Cite in your paper:
S.Grimme, S.Ehrlich, L.Goerigk, J Comput Chem, (2011), 32, 1456–1465 
S.Grimme, J.Antony, S.Ehrlich and H.Krieg, J.Chem.Phys., 132, (2010), 154104 
   

----- Orbital basis set information -----
Your calculation utilizes the basis: def2-TZVPPD
   F. Weigend and R. Ahlrichs, Phys. Chem. Chem. Phys. 7, 3297 (2005).
   D. Rappoport and F. Furche, J. Chem. Phys. 133 134105 (2010).

----- AuxC basis set information -----
Your calculation utilizes the auxiliary basis: def2-TZVPPD/C
   A. Hellweg, C. Hattig, S. Hofener and W. Klopper, Theor. Chem. Acc. 117, 587 (2007).

----- AuxJK basis set information -----
Your calculation utilizes the auxiliary basis: def2/JK
   H-Ba, Hf-Rn: F. Weigend, J. Comput. Chem. 29, 167 (2008).

================================================================================
                                        WARNINGS
                       Please study these warnings very carefully!
================================================================================


WARNING: No MP2 level density has been requested!
         To caclulate MP2 level properties use
         %mp2 Density relaxed end
         or
         %mp2 Density unrelaxed end
         Otherwise for double-hybrid DFT only the energy is correct!

WARNING: The frozen-core approximation is turned on by default for 
         the MP2 part of double-hybrid DFT.

INFO   : the flag for use of LIBINT has been found!

================================================================================
                                       INPUT FILE
================================================================================
NAME = c2.in
|  1> #
|  2> # c2 ri-B2PLYP-D3BJ/Def2-TZVPPD
|  3> #
|  4> ! rijk ri-b2plyp d3bj def2-tzvppd def2/jk def2-tzvppd/c grid4 nofinalgrid
|  5> 
|  6> *xyz 0 1
|  7> C          0.00000        0.00000       -0.62000
|  8> C          0.00000        0.00000        0.62000
|  9> *
| 10> 
| 11> %maxcore 5000
| 12> 
| 13> %pal
| 14> nprocs = 28
| 15> end
| 16> 
| 17> 
| 18>                          ****END OF INPUT****
================================================================================

                       ****************************
                       * Single Point Calculation *
                       ****************************

---------------------------------
CARTESIAN COORDINATES (ANGSTROEM)
---------------------------------
  C      0.000000    0.000000   -0.620000
  C      0.000000    0.000000    0.620000

----------------------------
CARTESIAN COORDINATES (A.U.)
----------------------------
  NO LB      ZA    FRAG     MASS         X           Y           Z
   0 C     6.0000    0    12.011    0.000000    0.000000   -1.171630
   1 C     6.0000    0    12.011    0.000000    0.000000    1.171630

--------------------------------
INTERNAL COORDINATES (ANGSTROEM)
--------------------------------
 C      0   0   0     0.000000000000     0.00000000     0.00000000
 C      1   0   0     1.240000000000     0.00000000     0.00000000

---------------------------
INTERNAL COORDINATES (A.U.)
---------------------------
 C      0   0   0     0.000000000000     0.00000000     0.00000000
 C      1   0   0     2.343260406062     0.00000000     0.00000000

---------------------
BASIS SET INFORMATION
---------------------
There are 1 groups of distinct atoms

 Group   1 Type C   : 12s6p3d1f contracted to 6s3p3d1f pattern {621111/411/111/1}

Atom   0C    basis set group =>   1
Atom   1C    basis set group =>   1
---------------------------------
AUXILIARY/C BASIS SET INFORMATION
---------------------------------
There are 1 groups of distinct atoms

 Group   1 Type C   : 9s7p6d4f1g contracted to 9s7p5d4f1g pattern {111111111/1111111/21111/1111/1}

Atom   0C    basis set group =>   1
Atom   1C    basis set group =>   1
----------------------------------
AUXILIARY/JK BASIS SET INFORMATION
----------------------------------
There are 1 groups of distinct atoms

 Group   1 Type C   : 14s10p6d2f1g contracted to 10s8p5d1f1g pattern {5111111111/31111111/21111/2/1}

Atom   0C    basis set group =>   1
Atom   1C    basis set group =>   1


           ************************************************************
           *        Program running with 28 parallel MPI-processes    *
           *              working on a common directory               *
           ************************************************************
------------------------------------------------------------------------------
                           ORCA GTO INTEGRAL CALCULATION
                           -- RI-GTO INTEGRALS CHOSEN --
------------------------------------------------------------------------------

                         BASIS SET STATISTICS AND STARTUP INFO

Gaussian basis set:
 # of primitive gaussian shells          ...   44
 # of primitive gaussian functions       ...  104
 # of contracted shells                  ...   26
 # of contracted basis functions         ...   74
 Highest angular momentum                ...    3
 Maximum contraction depth               ...    6
Auxiliary gaussian basis set:
 # of primitive gaussian shells          ...   66
 # of primitive gaussian functions       ...  194
 # of contracted shells                  ...   50
 # of contracted aux-basis functions     ...  150
 Highest angular momentum                ...    4
 Maximum contraction depth               ...    5
Ratio of auxiliary to basis functions    ...  2.03
Integral package used                  ... LIBINT
 One Electron integrals                  ... done
 Ordering auxiliary basis shells         ... done
 Integral threshhold             Thresh  ...  1.000e-10
 Primitive cut-off               TCut    ...  1.000e-11
 Pre-screening matrix                    ... done
 Shell pair data                         ... 
 Ordering of the shell pairs             ... done (   0.000 sec) 350 of 351 pairs
 Determination of significant pairs      ... done (   0.000 sec)
 Creation of shell pair data             ... done (   0.000 sec)
 Storage of shell pair data              ... done (   0.031 sec)
 Shell pair data done in (   0.032 sec)
 Computing two index integrals           ... done
 Cholesky decomposition of the V-matrix  ... done


Timings:
 Total evaluation time                   ...   0.475 sec (  0.008 min)
 One electron matrix time                ...   0.136 sec (  0.002 min) = 28.7%
 Schwartz matrix evaluation time         ...   0.110 sec (  0.002 min) = 23.1%
 Two index repulsion integral time       ...   0.066 sec (  0.001 min) = 13.8%
 Cholesky decomposition of V             ...   0.053 sec (  0.001 min) = 11.1%
 Three index repulsion integral time     ...   0.000 sec (  0.000 min) =  0.0%



           ************************************************************
           *        Program running with 28 parallel MPI-processes    *
           *              working on a common directory               *
           ************************************************************
-------------------------------------------------------------------------------
                                 ORCA SCF
-------------------------------------------------------------------------------

------------
SCF SETTINGS
------------
Hamiltonian:
 Density Functional     Method          .... DFT(GTOs)
 Exchange Functional    Exchange        .... B88
   X-Alpha parameter    XAlpha          ....  0.666667
   Becke's b parameter  XBeta           ....  0.004200
 Correlation Functional Correlation     .... LYP
 LDA part of GGA corr.  LDAOpt          .... VWN-3
 Gradients option       PostSCFGGA      .... off
 Hybrid DFT is turned on
   Fraction HF Exchange ScalHFX         ....  0.530000
   Scaling of DF-GGA-X  ScalDFX         ....  0.470000
   Scaling of DF-GGA-C  ScalDFC         ....  0.730000
   Scaling of DF-LDA-C  ScalLDAC        ....  0.730000
   Perturbative correction              ....  0.270000
   Density functional embedding theory  .... OFF
 RI-approximation to the Coulomb term is turned on
   Number of auxiliary basis functions  .... 150
   RI-JK (J+K treated both via RI)      .... on


General Settings:
 Integral files         IntName         .... c2
 Hartree-Fock type      HFTyp           .... RHF
 Total Charge           Charge          ....    0
 Multiplicity           Mult            ....    1
 Number of Electrons    NEL             ....   12
 Basis Dimension        Dim             ....   74
 Nuclear Repulsion      ENuc            ....     15.3632092732 Eh

Convergence Acceleration:
 DIIS                   CNVDIIS         .... on
   Start iteration      DIISMaxIt       ....    12
   Startup error        DIISStart       ....  0.200000
   # of expansion vecs  DIISMaxEq       ....     5
   Bias factor          DIISBfac        ....   1.050
   Max. coefficient     DIISMaxC        ....  10.000
 Newton-Raphson         CNVNR           .... off
 SOSCF                  CNVSOSCF        .... on
   Start iteration      SOSCFMaxIt      ....   150
   Startup grad/error   SOSCFStart      ....  0.003300
 Level Shifting         CNVShift        .... on
   Level shift para.    LevelShift      ....    0.2500
   Turn off err/grad.   ShiftErr        ....    0.0010
 Zerner damping         CNVZerner       .... off
 Static damping         CNVDamp         .... on
   Fraction old density DampFac         ....    0.7000
   Max. Damping (<1)    DampMax         ....    0.9800
   Min. Damping (>=0)   DampMin         ....    0.0000
   Turn off err/grad.   DampErr         ....    0.1000
 Fernandez-Rico         CNVRico         .... off

SCF Procedure:
 Maximum # iterations   MaxIter         ....   125
 SCF integral mode      SCFMode         .... Direct
   Integral package                     .... LIBINT
 Reset frequency        DirectResetFreq ....    20
 Integral Threshold     Thresh          ....  1.000e-10 Eh
 Primitive CutOff       TCut            ....  1.000e-11 Eh

Convergence Tolerance:
 Convergence Check Mode ConvCheckMode   .... Total+1el-Energy
 Convergence forced     ConvForced      .... 0
 Energy Change          TolE            ....  1.000e-06 Eh
 1-El. energy change                    ....  1.000e-03 Eh
 Orbital Gradient       TolG            ....  5.000e-05
 Orbital Rotation angle TolX            ....  5.000e-05
 DIIS Error             TolErr          ....  1.000e-06


Diagonalization of the overlap matrix:
Smallest eigenvalue                        ... 1.532e-05
Time for diagonalization                   ...    0.033 sec
Threshold for overlap eigenvalues          ... 1.000e-08
Number of eigenvalues below threshold      ... 0
Time for construction of square roots      ...    0.029 sec
Total time needed                          ...    0.062 sec

-------------------
DFT GRID GENERATION
-------------------

General Integration Accuracy     IntAcc      ...  4.670
Radial Grid Type                 RadialGrid  ... Gauss-Chebyshev
Angular Grid (max. acc.)         AngularGrid ... Lebedev-302
Angular grid pruning method      GridPruning ... 3 (G Style)
Weight generation scheme         WeightScheme... Becke
Basis function cutoff            BFCut       ...    1.0000e-10
Integration weight cutoff        WCut        ...    1.0000e-14
Grids for H and He will be reduced by one unit

# of grid points (after initial pruning)     ...  12424 (   0.0 sec)
# of grid points (after weights+screening)   ...  12392 (   0.0 sec)
nearest neighbour list constructed           ...    0.0 sec
Grid point re-assignment to atoms done       ...    0.0 sec
Grid point division into batches done        ...    0.1 sec
Reduced shell lists constructed in    0.1 sec

Total number of grid points                  ...    12392
Total number of batches                      ...      194
Average number of points per batch           ...       63
Average number of grid points per atom       ...     6196
Average number of shells per batch           ...     6.12 (23.56%)
Average number of basis functions per batch  ...    15.62 (21.11%)
Average number of large shells per batch     ...     4.12 (67.35%)
Average number of large basis fcns per batch ...    11.62 (74.40%)
Average number of aux-shells per batch       ...     6.12 (12.25%)
Average number of aux functions per batch    ...    15.62 (10.42%)
Maximum spatial batch extension              ...  24.37, 24.37, 13.07 au
Average spatial batch extension              ...   0.68,  0.62,  0.41 au

Time for grid setup =    1.987 sec

------------------------------
INITIAL GUESS: MODEL POTENTIAL
------------------------------
Loading Hartree-Fock densities                     ... done
Calculating cut-offs                               ... done
Setting up the integral package                    ... done
Initializing the effective Hamiltonian             ... done
Starting the Coulomb interaction                   ... done (   0.0 sec)
Reading the grid                                   ... done
Mapping shells                                     ... done
Starting the XC term evaluation                    ... done (   0.0 sec)
  promolecular density results
     # of electrons  =     12.000005902
     EX              =    -10.099839088
     EC              =     -0.111916667
     EX+EC           =    -10.211755755
Transforming the Hamiltonian                       ... done (   0.1 sec)
Diagonalizing the Hamiltonian                      ... done (   0.0 sec)
Back transforming the eigenvectors                 ... done (   0.0 sec)
Now organizing SCF variables                       ... done
                      ------------------
                      INITIAL GUESS DONE (   2.4 sec)
                      ------------------
--------------
SCF ITERATIONS
--------------
ITER       Energy         Delta-E        Max-DP      RMS-DP      [F,P]     Damp
  0    -75.6974798272   0.000000000000 0.02878949  0.00134909  0.1292750 0.7000
  1    -75.6871498036   0.010330023571 0.02172874  0.00106725  0.1220620 0.7000
                               ***Turning on DIIS***
  2    -75.6963221072  -0.009172303580 0.05123810  0.00239614  0.0859806 0.0000
  3    -75.7270900888  -0.030767981646 0.01581974  0.00073090  0.0473378 0.0000
  4    -75.7330426714  -0.005952582561 0.00454047  0.00021277  0.0168343 0.0000
  5    -75.7336458066  -0.000603135270 0.00249019  0.00011582  0.0059102 0.0000
                      *** Initiating the SOSCF procedure ***
                           *** Shutting down DIIS ***
                      *** Re-Reading the Fockian *** 
                      *** Removing any level shift *** 
ITER      Energy       Delta-E        Grad      Rot      Max-DP    RMS-DP
  6    -75.73371215  -0.0000663388  0.001206  0.001206  0.001034  0.000045
  7    -75.73372119  -0.0000090454  0.000679  0.000967  0.000249  0.000021
  8    -75.73372264  -0.0000014486  0.000161  0.000130  0.000226  0.000009
                 **** Energy Check signals convergence ****
              ***Rediagonalizing the Fockian in SOSCF/NRSCF***

               *****************************************************
               *                     SUCCESS                       *
               *           SCF CONVERGED AFTER   9 CYCLES          *
               *****************************************************


----------------
TOTAL SCF ENERGY
----------------

Total Energy       :          -75.73372299 Eh           -2060.81937 eV

Components:
Nuclear Repulsion  :           15.36320927 Eh             418.05418 eV
Electronic Energy  :          -91.09693226 Eh           -2478.87355 eV
One Electron Energy:         -131.34101784 Eh           -3573.97079 eV
Two Electron Energy:           40.24408558 Eh            1095.09724 eV

Virial components:
Potential Energy   :         -151.27632764 Eh           -4116.43815 eV
Kinetic Energy     :           75.54260465 Eh            2055.61878 eV
Virial Ratio       :            2.00252994


DFT components:
N(Alpha)           :        6.000001373812 electrons
N(Beta)            :        6.000001373812 electrons
N(Total)           :       12.000002747624 electrons
E(X)               :       -4.777191426842 Eh       
E(C)               :       -0.278982037987 Eh       
E(XC)              :       -5.056173464829 Eh       
DFET-embed. en.    :        0.000000000000 Eh       

---------------
SCF CONVERGENCE
---------------

  Last Energy change         ...   -3.5010e-07  Tolerance :   1.0000e-06
  Last MAX-Density change    ...    3.6307e-05  Tolerance :   1.0000e-05
  Last RMS-Density change    ...    1.3471e-06  Tolerance :   1.0000e-06
  Last Orbital Gradient      ...    1.8283e-05  Tolerance :   5.0000e-05
  Last Orbital Rotation      ...    2.7257e-05  Tolerance :   5.0000e-05

             **** THE GBW FILE WAS UPDATED (c2.gbw) ****
             **** DENSITY FILE WAS UPDATED (c2.scfp) ****
             **** ENERGY FILE WAS UPDATED (c2.en.tmp) ****
             **** THE GBW FILE WAS UPDATED (c2.gbw) ****
             **** DENSITY FILE WAS UPDATED (c2.scfp) ****
----------------
ORBITAL ENERGIES
----------------

  NO   OCC          E(Eh)            E(eV) 
   0   2.0000     -10.734729      -292.1068 
   1   2.0000     -10.732733      -292.0525 
   2   2.0000      -0.907896       -24.7051 
   3   2.0000      -0.454636       -12.3713 
   4   2.0000      -0.385943       -10.5020 
   5   2.0000      -0.385943       -10.5020 
   6   0.0000      -0.206018        -5.6060 
   7   0.0000       0.055438         1.5086 
   8   0.0000       0.055438         1.5086 
   9   0.0000       0.062098         1.6898 
  10   0.0000       0.078012         2.1228 
  11   0.0000       0.177614         4.8331 
  12   0.0000       0.218104         5.9349 
  13   0.0000       0.218104         5.9349 
  14   0.0000       0.220957         6.0126 
  15   0.0000       0.220957         6.0126 
  16   0.0000       0.241748         6.5783 
  17   0.0000       0.241748         6.5783 
  18   0.0000       0.251393         6.8408 
  19   0.0000       0.327046         8.8994 
  20   0.0000       0.327046         8.8994 
  21   0.0000       0.353925         9.6308 
  22   0.0000       0.353925         9.6308 
  23   0.0000       0.377179        10.2636 
  24   0.0000       0.386112        10.5066 
  25   0.0000       0.527021        14.3410 
  26   0.0000       0.578435        15.7400 
  27   0.0000       0.585353        15.9283 
  28   0.0000       0.585353        15.9283 
  29   0.0000       0.823392        22.4056 
  30   0.0000       0.823392        22.4056 
  31   0.0000       0.864391        23.5213 
  32   0.0000       0.936689        25.4886 
  33   0.0000       0.936689        25.4886 
  34   0.0000       1.091085        29.6899 
  35   0.0000       1.091085        29.6899 
  36   0.0000       1.091107        29.6905 
  37   0.0000       1.217331        33.1253 
  38   0.0000       1.217331        33.1253 
  39   0.0000       1.349829        36.7307 
  40   0.0000       1.508545        41.0496 
  41   0.0000       1.508545        41.0496 
  42   0.0000       1.540765        41.9264 
  43   0.0000       1.769732        48.1568 
  44   0.0000       1.881287        51.1924 
  45   0.0000       1.881287        51.1924 
  46   0.0000       2.003723        54.5241 
  47   0.0000       2.098325        57.0983 
  48   0.0000       2.585147        70.3454 
  49   0.0000       2.585147        70.3454 
  50   0.0000       2.619909        71.2913 
  51   0.0000       2.619909        71.2913 
  52   0.0000       2.716812        73.9282 
  53   0.0000       2.716812        73.9282 
  54   0.0000       2.984622        81.2157 
  55   0.0000       3.007675        81.8430 
  56   0.0000       3.007675        81.8430 
  57   0.0000       3.154309        85.8331 
  58   0.0000       3.154309        85.8331 
  59   0.0000       3.177202        86.4560 
  60   0.0000       3.177202        86.4561 
  61   0.0000       3.264126        88.8214 
  62   0.0000       3.264126        88.8214 
  63   0.0000       3.616971        98.4228 
  64   0.0000       3.616971        98.4228 
  65   0.0000       3.647388        99.2505 
  66   0.0000       3.647388        99.2505 
  67   0.0000       3.658224        99.5453 
  68   0.0000       4.554902       123.9452 
  69   0.0000       4.648463       126.4911 
  70   0.0000       4.648463       126.4911 
  71   0.0000       4.729801       128.7044 
  72   0.0000      21.993463       598.4726 
  73   0.0000      22.801379       620.4571 

                    ********************************
                    * MULLIKEN POPULATION ANALYSIS *
                    ********************************

-----------------------
MULLIKEN ATOMIC CHARGES
-----------------------
   0 C :   -0.000007
   1 C :    0.000007
Sum of atomic charges:   -0.0000000

--------------------------------
MULLIKEN REDUCED ORBITAL CHARGES
--------------------------------
  0 C s       :     3.545332  s :     3.545332
      pz      :     0.448597  p :     2.405596
      px      :     0.978499
      py      :     0.978499
      dz2     :     0.005501  d :     0.042570
      dxz     :     0.018534
      dyz     :     0.018534
      dx2y2   :     0.000000
      dxy     :     0.000000
      f0      :     0.000577  f :     0.006509
      f+1     :     0.002966
      f-1     :     0.002966
      f+2     :     0.000000
      f-2     :     0.000000
      f+3     :     0.000000
      f-3     :     0.000000
  1 C s       :     3.545320  s :     3.545320
      pz      :     0.448594  p :     2.405593
      px      :     0.978499
      py      :     0.978499
      dz2     :     0.005501  d :     0.042570
      dxz     :     0.018534
      dyz     :     0.018534
      dx2y2   :     0.000000
      dxy     :     0.000000
      f0      :     0.000577  f :     0.006509
      f+1     :     0.002966
      f-1     :     0.002966
      f+2     :     0.000000
      f-2     :     0.000000
      f+3     :     0.000000
      f-3     :     0.000000


                     *******************************
                     * LOEWDIN POPULATION ANALYSIS *
                     *******************************

----------------------
LOEWDIN ATOMIC CHARGES
----------------------
   0 C :   -0.000000
   1 C :    0.000000

-------------------------------
LOEWDIN REDUCED ORBITAL CHARGES
-------------------------------
  0 C s       :     3.090346  s :     3.090346
      pz      :     0.783931  p :     2.649674
      px      :     0.932872
      py      :     0.932872
      dz2     :     0.113756  d :     0.226788
      dxz     :     0.056516
      dyz     :     0.056516
      dx2y2   :     0.000000
      dxy     :     0.000000
      f0      :     0.011966  f :     0.033191
      f+1     :     0.010612
      f-1     :     0.010612
      f+2     :     0.000000
      f-2     :     0.000000
      f+3     :     0.000000
      f-3     :     0.000000
  1 C s       :     3.090346  s :     3.090346
      pz      :     0.783931  p :     2.649674
      px      :     0.932872
      py      :     0.932872
      dz2     :     0.113756  d :     0.226788
      dxz     :     0.056516
      dyz     :     0.056516
      dx2y2   :     0.000000
      dxy     :     0.000000
      f0      :     0.011966  f :     0.033191
      f+1     :     0.010612
      f-1     :     0.010612
      f+2     :     0.000000
      f-2     :     0.000000
      f+3     :     0.000000
      f-3     :     0.000000


                      *****************************
                      * MAYER POPULATION ANALYSIS *
                      *****************************

  NA   - Mulliken gross atomic population
  ZA   - Total nuclear charge
  QA   - Mulliken gross atomic charge
  VA   - Mayer's total valence
  BVA  - Mayer's bonded valence
  FA   - Mayer's free valence

  ATOM       NA         ZA         QA         VA         BVA        FA
  0 C      6.0000     6.0000    -0.0000     3.2843     3.2843    -0.0000
  1 C      6.0000     6.0000     0.0000     3.2843     3.2843    -0.0000

  Mayer bond orders larger than 0.100000
B(  0-C ,  1-C ) :   3.2843 

-------
TIMINGS
-------

Total SCF time: 0 days 0 hours 2 min 18 sec 

Total time                  ....     138.336 sec
Sum of individual times     ....     137.165 sec  ( 99.2%)

Fock matrix formation       ....     133.230 sec  ( 96.3%)
  XC integration            ....     130.272 sec  ( 97.8% of F)
    Basis function eval.    ....       0.010 sec  (  0.0% of XC)
    Density eval.           ....       0.006 sec  (  0.0% of XC)
    XC-Functional eval.     ....       0.009 sec  (  0.0% of XC)
    XC-Potential eval.      ....       0.009 sec  (  0.0% of XC)
Diagonalization             ....       0.721 sec  (  0.5%)
Density matrix formation    ....       0.006 sec  (  0.0%)
Population analysis         ....       0.605 sec  (  0.4%)
Initial guess               ....       0.441 sec  (  0.3%)
Orbital Transformation      ....       0.000 sec  (  0.0%)
Orbital Orthonormalization  ....       0.000 sec  (  0.0%)
DIIS solution               ....       0.043 sec  (  0.0%)
SOSCF solution              ....       0.133 sec  (  0.1%)
Grid generation             ....       1.987 sec  (  1.4%)


           ************************************************************
           *        Program running with 28 parallel MPI-processes    *
           *              working on a common directory               *
           ************************************************************

------------------------------------------------------------------------------
                                ORCA  MP2 
------------------------------------------------------------------------------

Freezing NCore=4 chemical core electrons

-------------
RI-MP2 ENERGY
-------------
Dimension of the basis                    ...   74
Memory devoted to MP2                     ... 5000 MB   
Data format for buffers                   ... DOUBLE
Compression type for matrix containers    ... UNCOMPRESSED
Overall scaling of the MP2 energy         ...   2.700e-01
Calculating two index integrals           ... done (    0.001 sec)
Cholesky decomposition of V**-1           ... done (    0.239 sec)

-----------------
RI-TRANSFORMATION (AUX index driven)
-----------------

Dimension of the orbital-basis         ... 74
Dimension of the aux-basis             ... 184
Transformation of internal/external MOs...    2-   5 to    6-  73
Number Format for Storage              ... Double (8 Byte)
Integral mode                          ... Direct

First Phase: integral generation and transformation of MO indices
  Aux angular momentum 0               ... done (    0.000 sec)
  Aux angular momentum 1               ... done (    0.002 sec)
  Aux angular momentum 2               ... done (    0.001 sec)
  Aux angular momentum 3               ... done (    0.001 sec)
  Aux angular momentum 4               ... done (    0.001 sec)
Closing buffer VIA ( 0.00 GB; CompressionRatio= 0.99)
  Phase 1 completed in     5.607 sec
Second Phase: sorting and transformation of aux index

IA-Transformation
Memory available                       ... 5000 MB 
Max. # MO pairs treated in a batch     ... 1    
# of internal orbitals                 ... 4
# batches for internal orbitals        ... 1
Closing buffer IAV ( 0.00 GB; CompressionRatio= 1.00)
(ia|v) transformation done in     2.564 sec

  Phase 2 completed in     7.104 sec
RI-Integral transformation completed in    13.785 sec
Opening buffers                              ... done

Starting loop over batches of integrals:

Operator 0  - window                       ... (  2-  5)x(  6- 73)
Operator 0  - Memory available             ...  5000 MB
Operator 0  - Memory needed per MO         ...   0.1 MB
Operator 0  - Number of orbitals per batch ... 1
Operator 0  - Number of batches            ... 1

OPERATOR  0   PASS   0:  MOs     2 ...    2 +    3 ...    3 +    4 ...    4 +    5 ...    5
  Reading integrals       ... ok
Time spent in pair loops =     0.003 sec
Deleting buffer (Ka|jb)[aa] ...done

-----------------------------------------------
 RI-MP2 CORRELATION ENERGY:     -0.133554109 Eh
-----------------------------------------------


-------
TIMINGS
-------

Total time                :   14.843 sec
Integral trafo            :   13.801 sec ( 93.0%)
I/O of integrals          :    0.000 sec (  0.0%)
K(i,j) Operators          :    0.000 sec (  0.0%)
T(i,j) pair energies      :    0.002 sec (  0.0%)
V-calculation             :    0.001 sec (  0.0%)
V**(-1/2)                 :    0.239 sec (  1.6%)
Gamma(ia|P)               :    0.000 sec (  0.0%)
Gamma-Trafo               :    0.000 sec (  0.0%)
D(virtual)                :    0.000 sec (  0.0%)
D(internal)               :    0.000 sec (  0.0%)
W(virtual)                :    0.000 sec (  0.0%)
W(internal)               :    0.000 sec (  0.0%)
L(virtual)                :    0.000 sec (  0.0%)
L(internal)               :    0.000 sec (  0.0%)
G(D)                      :    0.000 sec (  0.0%)
G(Z)                      :    0.000 sec (  0.0%)
Z-Vector Solution         :    0.000 sec (  0.0%)
Z-Vector Solution         :    0.000 sec (  0.0%)
3-Index Derivative 
+ Separable RIJ part      :    0.000 sec (  0.0%)
2-Index Derivative 
+ Separable RIJ part      :    0.000 sec (  0.0%)
Separable Gradient (X)    :    0.000 sec (  0.0%)


---------------------------------------
MP2 TOTAL ENERGY:      -75.867277099 Eh
---------------------------------------


-------------------------------------------------------------------------------
                          DFT DISPERSION CORRECTION                            
                                                                               
                              DFTD3 V3.1  Rev 1                                
                          USING Becke-Johnson damping                          
-------------------------------------------------------------------------------
The B2PLYP functional is recognized
Active option DFTDOPT                   ...         4   

molecular C6(AA) [au] = 172.276308 


            DFT-D V3
 parameters
 s6 scaling factor         :     0.6400 
 a1 scaling factor         :     0.3065 
 s8 scaling factor         :     0.9147 
 a2 scaling factor         :     5.0570 
 ad hoc parameters k1-k3   :    16.0000     1.3333    -4.0000 

 Edisp/kcal,au: -0.364875488679  -0.000581466041 
 E6   /kcal   :  -0.189957670 
 E8   /kcal   :  -0.174917819 
 % E8         :  47.939043465 

-------------------------   ----------------
Dispersion correction           -0.000581466
-------------------------   ----------------


-------------------------   --------------------
FINAL SINGLE POINT ENERGY       -75.867858564699
-------------------------   --------------------


                            ***************************************
                            *     ORCA property calculations      *
                            ***************************************


  WARNING: The energy has been calculated at the MP2 level but the densities
           used in the property calculations are still SCF densities
           MP2 response densities have not been calculated 
           use %mp2 Density relaxed end
           or  %mp2 Density unrelaxed end

                                    ---------------------
                                    Active property flags
                                    ---------------------
   (+) Dipole Moment


------------------------------------------------------------------------------
                       ORCA ELECTRIC PROPERTIES CALCULATION
------------------------------------------------------------------------------

Dipole Moment Calculation                       ... on
Quadrupole Moment Calculation                   ... off
Polarizability Calculation                      ... off
GBWName                                         ... c2.gbw
Electron density file                           ... c2.scfp
The origin for moment calculation is the CENTER OF MASS  = ( 0.000000,  0.000000  0.000000)

-------------
DIPOLE MOMENT
-------------
                                X             Y             Z
Electronic contribution:      0.00000      -0.00000       0.00000
Nuclear contribution   :      0.00000       0.00000       0.00000
                        -----------------------------------------
Total Dipole Moment    :      0.00000      -0.00000       0.00000
                        -----------------------------------------
Magnitude (a.u.)       :      0.00000
Magnitude (Debye)      :      0.00000



--------------------
Rotational spectrum 
--------------------
 
Rotational constants in cm-1:     0.000000     1.825595     1.825595 
Rotational constants in MHz :     0.000000 54729.951378 54729.951378 

 Dipole components along the rotational axes: 
x,y,z [a.u.] :     0.000000    -0.000000     0.000000 
x,y,z [Debye]:     0.000000    -0.000000     0.000000 

 

Timings for individual modules:

Sum of individual times         ...      166.849 sec (=   2.781 min)
GTO integral calculation        ...        6.174 sec (=   0.103 min)   3.7 %
SCF iterations                  ...      141.602 sec (=   2.360 min)  84.9 %
MP2 module                      ...       19.073 sec (=   0.318 min)  11.4 %
                             ****ORCA TERMINATED NORMALLY****
TOTAL RUN TIME: 0 days 0 hours 4 minutes 7 seconds 241 msec
