
                                 *****************
                                 * O   R   C   A *
                                 *****************

           --- An Ab Initio, DFT and Semiempirical electronic structure package ---

                  #######################################################
                  #                        -***-                        #
                  #          Department of theory and spectroscopy      #
                  #               Directorship: Frank Neese             #
                  #        Max Planck Institute fuer Kohlenforschung    #
                  #                Kaiser Wilhelm Platz 1               #
                  #                 D-45470 Muelheim/Ruhr               #
                  #                      Germany                        #
                  #                                                     #
                  #                  All rights reserved                #
                  #                        -***-                        #
                  #######################################################


                         Program Version 4.2.0 -  RELEASE  -


 With contributions from (in alphabetic order):
   Daniel Aravena         : Magnetic Suceptibility
   Michael Atanasov       : Ab Initio Ligand Field Theory (pilot matlab implementation)
   Alexander A. Auer      : GIAO ZORA, VPT2
   Ute Becker             : Parallelization
   Giovanni Bistoni       : ED, misc. LED, open-shell LED, HFLED
   Martin Brehm           : Molecular dynamics
   Dmytro Bykov           : SCF Hessian
   Vijay G. Chilkuri      : MRCI spin determinant printing, contributions to CSF-ICE
   Dipayan Datta          : RHF DLPNO-CCSD density
   Achintya Kumar Dutta   : EOM-CC, STEOM-CC
   Dmitry Ganyushin       : Spin-Orbit,Spin-Spin,Magnetic field MRCI
   Miquel Garcia          : C-PCM Hessian, Gaussian charge scheme
   Yang Guo               : DLPNO-NEVPT2, CIM, IAO-localization
   Andreas Hansen         : Spin unrestricted coupled pair/coupled cluster methods
   Benjamin Helmich-Paris : CASSCF linear response (MC-RPA)
   Lee Huntington         : MR-EOM, pCC
   Robert Izsak           : Overlap fitted RIJCOSX, COSX-SCS-MP3, EOM
   Christian Kollmar      : KDIIS, OOCD, Brueckner-CCSD(T), CCSD density
   Simone Kossmann        : Meta GGA functionals, TD-DFT gradient, OOMP2, MP2 Hessian
   Martin Krupicka        : AUTO-CI
   Lucas Lang             : DCDCAS
   Dagmar Lenk            : GEPOL surface, SMD
   Dimitrios Liakos       : Extrapolation schemes; Compound Job, initial MDCI parallelization
   Dimitrios Manganas     : Further ROCIS development; embedding schemes
   Dimitrios Pantazis     : SARC Basis sets
   Taras Petrenko         : DFT Hessian,TD-DFT gradient, ASA, ECA, R-Raman, ABS, FL, XAS/XES, NRVS
   Peter Pinski           : DLPNO-MP2, DLPNO-MP2 Gradient
   Christoph Reimann      : Effective Core Potentials
   Marius Retegan         : Local ZFS, SOC
   Christoph Riplinger    : Optimizer, TS searches, QM/MM, DLPNO-CCSD(T), (RO)-DLPNO pert. Triples
   Tobias Risthaus        : Range-separated hybrids, TD-DFT gradient, RPA, STAB
   Michael Roemelt        : Original ROCIS implementation
   Masaaki Saitow         : Open-shell DLPNO-CCSD energy and density
   Barbara Sandhoefer     : DKH picture change effects
   Avijit Sen             : IP-ROCIS
   Kantharuban Sivalingam : CASSCF convergence, NEVPT2, FIC-MRCI
   Bernardo de Souza      : ESD, SOC TD-DFT
   Georgi Stoychev        : AutoAux, RI-MP2 NMR
   Willem Van den Heuvel  : Paramagnetic NMR
   Boris Wezisla          : Elementary symmetry handling
   Frank Wennmohs         : Technical directorship


 We gratefully acknowledge several colleagues who have allowed us to
 interface, adapt or use parts of their codes:
   Stefan Grimme, W. Hujo, H. Kruse,             : VdW corrections, initial TS optimization,
                  C. Bannwarth                     DFT functionals, gCP, sTDA/sTD-DF
   Ed Valeev, F. Pavosevic, A. Kumar             : LibInt (2-el integral package), F12 methods
   Garnet Chan, S. Sharma, J. Yang, R. Olivares  : DMRG
   Ulf Ekstrom                                   : XCFun DFT Library
   Mihaly Kallay                                 : mrcc  (arbitrary order and MRCC methods)
   Andreas Klamt, Michael Diedenhofen            : otool_cosmo (COSMO solvation model)
   Jiri Pittner, Ondrej Demel                    : Mk-CCSD
   Frank Weinhold                                : gennbo (NPA and NBO analysis)
   Christopher J. Cramer and Donald G. Truhlar   : smd solvation model
   Lars Goerigk                                  : TD-DFT with DH, B97 family of functionals
   V. Asgeirsson, H. Jonsson                     : NEB implementation
   FAccTs GmbH                                   : IRC, NEB, NEB-TS, Multilevel, MM, QM/MM, CI optimization
   S Lehtola, MJT Oliveira, MAL Marques          : LibXC Library


 Your calculation uses the libint2 library for the computation of 2-el integrals
 For citations please refer to: http://libint.valeyev.net

 Your ORCA version has been built with support for libXC version: 4.2.3
 For citations please refer to: https://tddft.org/programs/libxc/

 This ORCA versions uses:
   CBLAS   interface :  Fast vector & matrix operations
   LAPACKE interface :  Fast linear algebra routines
   SCALAPACK package :  Parallel linear algebra routines


Your calculation utilizes the atom-pairwise dispersion correction
with the Becke-Johnson damping scheme (D3BJ)
Cite in your paper:
S.Grimme, S.Ehrlich, L.Goerigk, J Comput Chem, (2011), 32, 1456–1465 
S.Grimme, J.Antony, S.Ehrlich and H.Krieg, J.Chem.Phys., 132, (2010), 154104 
   

----- Orbital basis set information -----
Your calculation utilizes the basis: def2-TZVPPD
   F. Weigend and R. Ahlrichs, Phys. Chem. Chem. Phys. 7, 3297 (2005).
   D. Rappoport and F. Furche, J. Chem. Phys. 133 134105 (2010).

----- AuxC basis set information -----
Your calculation utilizes the auxiliary basis: def2-TZVPPD/C
   A. Hellweg, C. Hattig, S. Hofener and W. Klopper, Theor. Chem. Acc. 117, 587 (2007).

----- AuxJK basis set information -----
Your calculation utilizes the auxiliary basis: def2/JK
   H-Ba, Hf-Rn: F. Weigend, J. Comput. Chem. 29, 167 (2008).

================================================================================
                                        WARNINGS
                       Please study these warnings very carefully!
================================================================================


WARNING: your system is open-shell and RHF/RKS was chosen
  ===> : WILL SWITCH to UHF/UKS


WARNING: No MP2 level density has been requested!
         To caclulate MP2 level properties use
         %mp2 Density relaxed end
         or
         %mp2 Density unrelaxed end
         Otherwise for double-hybrid DFT only the energy is correct!

WARNING: The frozen-core approximation is turned on by default for 
         the MP2 part of double-hybrid DFT.

INFO   : the flag for use of LIBINT has been found!

================================================================================
                                       INPUT FILE
================================================================================
NAME = CH2.in
|  1> #
|  2> # CH2 ri-B2PLYP-D3BJ/Def2-TZVPPD
|  3> #
|  4> ! rijk ri-b2plyp d3bj def2-tzvppd def2/jk def2-tzvppd/c grid4 nofinalgrid
|  5> 
|  6> *xyz 0 3
|  7> C          0.00000        0.00000        0.00000
|  8> H          0.00000        0.00000        1.07672
|  9> H          0.77665        0.00000       -0.74575
| 10> *
| 11> 
| 12> %maxcore 5000
| 13> 
| 14> %pal
| 15> nprocs = 28
| 16> end
| 17> 
| 18> 
| 19>                          ****END OF INPUT****
================================================================================

                       ****************************
                       * Single Point Calculation *
                       ****************************

---------------------------------
CARTESIAN COORDINATES (ANGSTROEM)
---------------------------------
  C      0.000000    0.000000    0.000000
  H      0.000000    0.000000    1.076720
  H      0.776650    0.000000   -0.745750

----------------------------
CARTESIAN COORDINATES (A.U.)
----------------------------
  NO LB      ZA    FRAG     MASS         X           Y           Z
   0 C     6.0000    0    12.011    0.000000    0.000000    0.000000
   1 H     1.0000    0     1.008    0.000000    0.000000    2.034706
   2 H     1.0000    0     1.008    1.467656    0.000000   -1.409263

--------------------------------
INTERNAL COORDINATES (ANGSTROEM)
--------------------------------
 C      0   0   0     0.000000000000     0.00000000     0.00000000
 H      1   0   0     1.076720000000     0.00000000     0.00000000
 H      1   2   0     1.076721080410   133.83723297     0.00000000

---------------------------
INTERNAL COORDINATES (A.U.)
---------------------------
 C      0   0   0     0.000000000000     0.00000000     0.00000000
 H      1   0   0     2.034705922916     0.00000000     0.00000000
 H      1   2   0     2.034707964595   133.83723297     0.00000000

---------------------
BASIS SET INFORMATION
---------------------
There are 2 groups of distinct atoms

 Group   1 Type C   : 12s6p3d1f contracted to 6s3p3d1f pattern {621111/411/111/1}
 Group   2 Type H   : 5s3p1d contracted to 3s3p1d pattern {311/111/1}

Atom   0C    basis set group =>   1
Atom   1H    basis set group =>   2
Atom   2H    basis set group =>   2
---------------------------------
AUXILIARY/C BASIS SET INFORMATION
---------------------------------
There are 2 groups of distinct atoms

 Group   1 Type C   : 9s7p6d4f1g contracted to 9s7p5d4f1g pattern {111111111/1111111/21111/1111/1}
 Group   2 Type H   : 5s4p3d1f contracted to 5s4p3d1f pattern {11111/1111/111/1}

Atom   0C    basis set group =>   1
Atom   1H    basis set group =>   2
Atom   2H    basis set group =>   2
----------------------------------
AUXILIARY/JK BASIS SET INFORMATION
----------------------------------
There are 2 groups of distinct atoms

 Group   1 Type C   : 14s10p6d2f1g contracted to 10s8p5d1f1g pattern {5111111111/31111111/21111/2/1}
 Group   2 Type H   : 4s2p2d contracted to 2s2p2d pattern {31/11/11}

Atom   0C    basis set group =>   1
Atom   1H    basis set group =>   2
Atom   2H    basis set group =>   2


           ************************************************************
           *        Program running with 28 parallel MPI-processes    *
           *              working on a common directory               *
           ************************************************************
------------------------------------------------------------------------------
                           ORCA GTO INTEGRAL CALCULATION
                           -- RI-GTO INTEGRALS CHOSEN --
------------------------------------------------------------------------------

                         BASIS SET STATISTICS AND STARTUP INFO

Gaussian basis set:
 # of primitive gaussian shells          ...   40
 # of primitive gaussian functions       ...   90
 # of contracted shells                  ...   27
 # of contracted basis functions         ...   71
 Highest angular momentum                ...    3
 Maximum contraction depth               ...    6
Auxiliary gaussian basis set:
 # of primitive gaussian shells          ...   49
 # of primitive gaussian functions       ...  137
 # of contracted shells                  ...   37
 # of contracted aux-basis functions     ...  111
 Highest angular momentum                ...    4
 Maximum contraction depth               ...    5
Ratio of auxiliary to basis functions    ...  1.56
Integral package used                  ... LIBINT
 One Electron integrals                  ... done
 Ordering auxiliary basis shells         ... done
 Integral threshhold             Thresh  ...  1.000e-10
 Primitive cut-off               TCut    ...  1.000e-11
 Pre-screening matrix                    ... done
 Shell pair data                         ... 
 Ordering of the shell pairs             ... done (   0.000 sec) 378 of 378 pairs
 Determination of significant pairs      ... done (   0.000 sec)
 Creation of shell pair data             ... done (   0.000 sec)
 Storage of shell pair data              ... done (   0.021 sec)
 Shell pair data done in (   0.021 sec)
 Computing two index integrals           ... done
 Cholesky decomposition of the V-matrix  ... done


Timings:
 Total evaluation time                   ...   0.310 sec (  0.005 min)
 One electron matrix time                ...   0.085 sec (  0.001 min) = 27.5%
 Schwartz matrix evaluation time         ...   0.108 sec (  0.002 min) = 34.7%
 Two index repulsion integral time       ...   0.018 sec (  0.000 min) =  5.9%
 Cholesky decomposition of V             ...   0.035 sec (  0.001 min) = 11.3%
 Three index repulsion integral time     ...   0.000 sec (  0.000 min) =  0.0%



           ************************************************************
           *        Program running with 28 parallel MPI-processes    *
           *              working on a common directory               *
           ************************************************************
-------------------------------------------------------------------------------
                                 ORCA SCF
-------------------------------------------------------------------------------

------------
SCF SETTINGS
------------
Hamiltonian:
 Density Functional     Method          .... DFT(GTOs)
 Exchange Functional    Exchange        .... B88
   X-Alpha parameter    XAlpha          ....  0.666667
   Becke's b parameter  XBeta           ....  0.004200
 Correlation Functional Correlation     .... LYP
 LDA part of GGA corr.  LDAOpt          .... VWN-3
 Gradients option       PostSCFGGA      .... off
 Hybrid DFT is turned on
   Fraction HF Exchange ScalHFX         ....  0.530000
   Scaling of DF-GGA-X  ScalDFX         ....  0.470000
   Scaling of DF-GGA-C  ScalDFC         ....  0.730000
   Scaling of DF-LDA-C  ScalLDAC        ....  0.730000
   Perturbative correction              ....  0.270000
   Density functional embedding theory  .... OFF
 RI-approximation to the Coulomb term is turned on
   Number of auxiliary basis functions  .... 111
   RI-JK (J+K treated both via RI)      .... on


General Settings:
 Integral files         IntName         .... CH2
 Hartree-Fock type      HFTyp           .... UHF
 Total Charge           Charge          ....    0
 Multiplicity           Mult            ....    3
 Number of Electrons    NEL             ....    8
 Basis Dimension        Dim             ....   71
 Nuclear Repulsion      ENuc            ....      6.1647739848 Eh

Convergence Acceleration:
 DIIS                   CNVDIIS         .... on
   Start iteration      DIISMaxIt       ....    12
   Startup error        DIISStart       ....  0.200000
   # of expansion vecs  DIISMaxEq       ....     5
   Bias factor          DIISBfac        ....   1.050
   Max. coefficient     DIISMaxC        ....  10.000
 Newton-Raphson         CNVNR           .... off
 SOSCF                  CNVSOSCF        .... off
 Level Shifting         CNVShift        .... on
   Level shift para.    LevelShift      ....    0.2500
   Turn off err/grad.   ShiftErr        ....    0.0010
 Zerner damping         CNVZerner       .... off
 Static damping         CNVDamp         .... on
   Fraction old density DampFac         ....    0.7000
   Max. Damping (<1)    DampMax         ....    0.9800
   Min. Damping (>=0)   DampMin         ....    0.0000
   Turn off err/grad.   DampErr         ....    0.1000
 Fernandez-Rico         CNVRico         .... off

SCF Procedure:
 Maximum # iterations   MaxIter         ....   125
 SCF integral mode      SCFMode         .... Direct
   Integral package                     .... LIBINT
 Reset frequency        DirectResetFreq ....    20
 Integral Threshold     Thresh          ....  1.000e-10 Eh
 Primitive CutOff       TCut            ....  1.000e-11 Eh

Convergence Tolerance:
 Convergence Check Mode ConvCheckMode   .... Total+1el-Energy
 Convergence forced     ConvForced      .... 0
 Energy Change          TolE            ....  1.000e-06 Eh
 1-El. energy change                    ....  1.000e-03 Eh
 DIIS Error             TolErr          ....  1.000e-06


Diagonalization of the overlap matrix:
Smallest eigenvalue                        ... 1.017e-04
Time for diagonalization                   ...    0.008 sec
Threshold for overlap eigenvalues          ... 1.000e-08
Number of eigenvalues below threshold      ... 0
Time for construction of square roots      ...    0.084 sec
Total time needed                          ...    0.091 sec

-------------------
DFT GRID GENERATION
-------------------

General Integration Accuracy     IntAcc      ...  4.670
Radial Grid Type                 RadialGrid  ... Gauss-Chebyshev
Angular Grid (max. acc.)         AngularGrid ... Lebedev-302
Angular grid pruning method      GridPruning ... 3 (G Style)
Weight generation scheme         WeightScheme... Becke
Basis function cutoff            BFCut       ...    1.0000e-10
Integration weight cutoff        WCut        ...    1.0000e-14
Grids for H and He will be reduced by one unit

# of grid points (after initial pruning)     ...  13000 (   0.0 sec)
# of grid points (after weights+screening)   ...  12891 (   0.0 sec)
nearest neighbour list constructed           ...    0.0 sec
Grid point re-assignment to atoms done       ...    0.0 sec
Grid point division into batches done        ...    0.1 sec
Reduced shell lists constructed in    0.1 sec

Total number of grid points                  ...    12891
Total number of batches                      ...      202
Average number of points per batch           ...       63
Average number of grid points per atom       ...     4297
Average number of shells per batch           ...    13.22 (48.97%)
Average number of basis functions per batch  ...    33.00 (46.48%)
Average number of large shells per batch     ...    10.11 (76.47%)
Average number of large basis fcns per batch ...    25.22 (76.43%)
Average number of aux-shells per batch       ...    13.22 (35.74%)
Average number of aux functions per batch    ...    33.00 (29.73%)
Maximum spatial batch extension              ...  14.04, 26.79, 13.02 au
Average spatial batch extension              ...   0.45,  0.62,  0.36 au

Time for grid setup =    1.820 sec

------------------------------
INITIAL GUESS: MODEL POTENTIAL
------------------------------
Loading Hartree-Fock densities                     ... done
Calculating cut-offs                               ... done
Setting up the integral package                    ... done
Initializing the effective Hamiltonian             ... done
Starting the Coulomb interaction                   ... done (   0.0 sec)
Reading the grid                                   ... done
Mapping shells                                     ... done
Starting the XC term evaluation                    ... done (   0.0 sec)
  promolecular density results
     # of electrons  =      7.999016147
     EX              =     -5.633152274
     EC              =     -0.063313957
     EX+EC           =     -5.696466230
Transforming the Hamiltonian                       ... done (   0.0 sec)
Diagonalizing the Hamiltonian                      ... done (   0.0 sec)
Back transforming the eigenvectors                 ... done (   0.0 sec)
Now organizing SCF variables                       ... done
                      ------------------
                      INITIAL GUESS DONE (   2.5 sec)
                      ------------------
--------------
SCF ITERATIONS
--------------
ITER       Energy         Delta-E        Max-DP      RMS-DP      [F,P]     Damp
  0    -39.0710130170   0.000000000000 0.01332092  0.00037465  0.0903503 0.7000
  1    -39.0621921426   0.008820874399 0.01169814  0.00034672  0.0776915 0.7000
                               ***Turning on DIIS***
  2    -39.0664273480  -0.004235205392 0.02554618  0.00084258  0.0471815 0.0000
  3    -39.0862151924  -0.019787844444 0.00996812  0.00030856  0.0369908 0.0000
  4    -39.0885097116  -0.002294519114 0.00299680  0.00010992  0.0082641 0.0000
  5    -39.0887326529  -0.000222941385 0.00211966  0.00006591  0.0024300 0.0000
  6    -39.0887693634  -0.000036710407 0.00251952  0.00006460  0.0006833 0.0000
  7    -39.0887785885  -0.000009225155 0.00034648  0.00001113  0.0003418 0.0000
                 **** Energy Check signals convergence ****

               *****************************************************
               *                     SUCCESS                       *
               *           SCF CONVERGED AFTER   8 CYCLES          *
               *****************************************************


----------------
TOTAL SCF ENERGY
----------------

Total Energy       :          -39.08877921 Eh           -1063.65976 eV

Components:
Nuclear Repulsion  :            6.16477398 Eh             167.75203 eV
Electronic Energy  :          -45.25355319 Eh           -1231.41179 eV
One Electron Energy:          -63.97360165 Eh           -1740.81020 eV
Two Electron Energy:           18.72004846 Eh             509.39842 eV

Virial components:
Potential Energy   :          -78.05703546 Eh           -2124.03992 eV
Kinetic Energy     :           38.96825626 Eh            1060.38016 eV
Virial Ratio       :            2.00309285


DFT components:
N(Alpha)           :        5.000000320040 electrons
N(Beta)            :        2.999998255581 electrons
N(Total)           :        7.999998575620 electrons
E(X)               :       -2.752605951555 Eh       
E(C)               :       -0.155789461048 Eh       
E(XC)              :       -2.908395412602 Eh       
DFET-embed. en.    :        0.000000000000 Eh       

---------------
SCF CONVERGENCE
---------------

  Last Energy change         ...   -6.1733e-07  Tolerance :   1.0000e-06
  Last MAX-Density change    ...    3.9158e-05  Tolerance :   1.0000e-05
  Last RMS-Density change    ...    1.5414e-06  Tolerance :   1.0000e-06
  Last DIIS Error            ...    1.8049e-05  Tolerance :   1.0000e-06

             **** THE GBW FILE WAS UPDATED (CH2.gbw) ****
             **** DENSITY FILE WAS UPDATED (CH2.scfp) ****
             **** ENERGY FILE WAS UPDATED (CH2.en.tmp) ****
----------------------
UHF SPIN CONTAMINATION
----------------------

Warning: in a DFT calculation there is little theoretical justification to 
         calculate <S**2> as in Hartree-Fock theory. We will do it anyways
         but you should keep in mind that the values have only limited relevance

Expectation value of <S**2>     :     2.008093
Ideal value S*(S+1) for S=1.0   :     2.000000
Deviation                       :     0.008093

             **** THE GBW FILE WAS UPDATED (CH2.gbw) ****
             **** DENSITY FILE WAS UPDATED (CH2.scfp) ****
----------------
ORBITAL ENERGIES
----------------
                 SPIN UP ORBITALS
  NO   OCC          E(Eh)            E(eV) 
   0   1.0000     -10.655206      -289.9429 
   1   1.0000      -0.791362       -21.5341 
   2   1.0000      -0.525902       -14.3105 
   3   1.0000      -0.350945        -9.5497 
   4   1.0000      -0.312509        -8.5038 
   5   0.0000       0.041100         1.1184 
   6   0.0000       0.114405         3.1131 
   7   0.0000       0.137996         3.7551 
   8   0.0000       0.169687         4.6174 
   9   0.0000       0.191591         5.2134 
  10   0.0000       0.198891         5.4121 
  11   0.0000       0.207905         5.6574 
  12   0.0000       0.234218         6.3734 
  13   0.0000       0.236260         6.4290 
  14   0.0000       0.274547         7.4708 
  15   0.0000       0.327415         8.9094 
  16   0.0000       0.348706         9.4888 
  17   0.0000       0.358711         9.7610 
  18   0.0000       0.362934         9.8759 
  19   0.0000       0.423189        11.5156 
  20   0.0000       0.432131        11.7589 
  21   0.0000       0.485502        13.2112 
  22   0.0000       0.530539        14.4367 
  23   0.0000       0.732588        19.9347 
  24   0.0000       0.781880        21.2760 
  25   0.0000       0.794758        21.6265 
  26   0.0000       0.863232        23.4897 
  27   0.0000       0.865463        23.5504 
  28   0.0000       0.901415        24.5287 
  29   0.0000       1.009696        27.4752 
  30   0.0000       1.080001        29.3883 
  31   0.0000       1.222594        33.2685 
  32   0.0000       1.337584        36.3975 
  33   0.0000       1.344505        36.5858 
  34   0.0000       1.509966        41.0883 
  35   0.0000       1.543361        41.9970 
  36   0.0000       1.651886        44.9501 
  37   0.0000       1.738712        47.3127 
  38   0.0000       1.770597        48.1804 
  39   0.0000       1.863139        50.6986 
  40   0.0000       2.680908        72.9512 
  41   0.0000       2.699064        73.4453 
  42   0.0000       2.717152        73.9375 
  43   0.0000       2.770161        75.3799 
  44   0.0000       2.778557        75.6084 
  45   0.0000       2.875098        78.2354 
  46   0.0000       2.964700        80.6736 
  47   0.0000       3.045239        82.8652 
  48   0.0000       3.091537        84.1250 
  49   0.0000       3.149149        85.6927 
  50   0.0000       3.180071        86.5341 
  51   0.0000       3.237658        88.1012 
  52   0.0000       3.470745        94.4438 
  53   0.0000       3.607508        98.1653 
  54   0.0000       3.662970        99.6745 
  55   0.0000       3.736287       101.6695 
  56   0.0000       3.833319       104.3099 
  57   0.0000       3.868035       105.2546 
  58   0.0000       4.052492       110.2739 
  59   0.0000       4.108228       111.7906 
  60   0.0000       4.134737       112.5119 
  61   0.0000       4.182405       113.8090 
  62   0.0000       4.659927       126.8031 
  63   0.0000       4.962767       135.0438 
  64   0.0000       4.980004       135.5128 
  65   0.0000       5.009960       136.3280 
  66   0.0000       5.143696       139.9671 
  67   0.0000       5.331397       145.0747 
  68   0.0000       5.735409       156.0684 
  69   0.0000       5.779608       157.2711 
  70   0.0000      23.147869       629.8855 

                 SPIN DOWN ORBITALS
  NO   OCC          E(Eh)            E(eV) 
   0   1.0000     -10.619915      -288.9826 
   1   1.0000      -0.680977       -18.5303 
   2   1.0000      -0.502169       -13.6647 
   3   0.0000      -0.017323        -0.4714 
   4   0.0000       0.007326         0.1994 
   5   0.0000       0.046687         1.2704 
   6   0.0000       0.117324         3.1926 
   7   0.0000       0.146356         3.9826 
   8   0.0000       0.194797         5.3007 
   9   0.0000       0.204933         5.5765 
  10   0.0000       0.212667         5.7870 
  11   0.0000       0.237308         6.4575 
  12   0.0000       0.247814         6.7434 
  13   0.0000       0.254435         6.9235 
  14   0.0000       0.291009         7.9188 
  15   0.0000       0.327556         8.9132 
  16   0.0000       0.363727         9.8975 
  17   0.0000       0.365195         9.9375 
  18   0.0000       0.377460        10.2712 
  19   0.0000       0.444509        12.0957 
  20   0.0000       0.462199        12.5771 
  21   0.0000       0.490644        13.3511 
  22   0.0000       0.568780        15.4773 
  23   0.0000       0.750654        20.4263 
  24   0.0000       0.803458        21.8632 
  25   0.0000       0.827075        22.5058 
  26   0.0000       0.913714        24.8634 
  27   0.0000       0.924992        25.1703 
  28   0.0000       0.937240        25.5036 
  29   0.0000       1.049893        28.5690 
  30   0.0000       1.111445        30.2440 
  31   0.0000       1.248603        33.9762 
  32   0.0000       1.365844        37.1665 
  33   0.0000       1.367601        37.2143 
  34   0.0000       1.521171        41.3932 
  35   0.0000       1.570930        42.7472 
  36   0.0000       1.734892        47.2088 
  37   0.0000       1.792003        48.7629 
  38   0.0000       1.824231        49.6398 
  39   0.0000       1.888178        51.3799 
  40   0.0000       2.686275        73.0972 
  41   0.0000       2.756586        75.0105 
  42   0.0000       2.774035        75.4853 
  43   0.0000       2.816700        76.6463 
  44   0.0000       2.820149        76.7402 
  45   0.0000       2.905452        79.0614 
  46   0.0000       3.015002        82.0424 
  47   0.0000       3.082130        83.8690 
  48   0.0000       3.137216        85.3680 
  49   0.0000       3.257319        88.6362 
  50   0.0000       3.280900        89.2778 
  51   0.0000       3.288209        89.4767 
  52   0.0000       3.485631        94.8489 
  53   0.0000       3.623858        98.6102 
  54   0.0000       3.689949       100.4086 
  55   0.0000       3.752761       102.1178 
  56   0.0000       3.846358       104.6647 
  57   0.0000       3.896333       106.0246 
  58   0.0000       4.053098       110.2904 
  59   0.0000       4.114017       111.9481 
  60   0.0000       4.138636       112.6180 
  61   0.0000       4.194530       114.1390 
  62   0.0000       4.678218       127.3008 
  63   0.0000       4.975120       135.3799 
  64   0.0000       5.009554       136.3169 
  65   0.0000       5.034685       137.0007 
  66   0.0000       5.163264       140.4995 
  67   0.0000       5.348600       145.5428 
  68   0.0000       5.748257       156.4180 
  69   0.0000       5.795055       157.6915 
  70   0.0000      23.179186       630.7377 

                    ********************************
                    * MULLIKEN POPULATION ANALYSIS *
                    ********************************

--------------------------------------------
MULLIKEN ATOMIC CHARGES AND SPIN POPULATIONS
--------------------------------------------
   0 C :   -0.196773    2.026229
   1 H :    0.098372   -0.013145
   2 H :    0.098401   -0.013085
Sum of atomic charges         :   -0.0000000
Sum of atomic spin populations:    2.0000000

-----------------------------------------------------
MULLIKEN REDUCED ORBITAL CHARGES AND SPIN POPULATIONS
-----------------------------------------------------
CHARGE
  0 C s       :     3.338161  s :     3.338161
      pz      :     0.983582  p :     2.834774
      px      :     0.895347
      py      :     0.955845
      dz2     :     0.011182  d :     0.022414
      dxz     :     0.008716
      dyz     :    -0.000003
      dx2y2   :     0.002535
      dxy     :    -0.000017
      f0      :     0.000683  f :     0.001424
      f+1     :     0.000377
      f-1     :    -0.000017
      f+2     :     0.000328
      f-2     :    -0.000008
      f+3     :     0.000061
      f-3     :    -0.000000
  1 H s       :     0.848220  s :     0.848220
      pz      :     0.015651  p :     0.051559
      px      :     0.014589
      py      :     0.021319
      dz2     :     0.000417  d :     0.001849
      dxz     :     0.000652
      dyz     :     0.000777
      dx2y2   :     0.000002
      dxy     :     0.000000
  2 H s       :     0.848195  s :     0.848195
      pz      :     0.008231  p :     0.051555
      px      :     0.021998
      py      :     0.021326
      dz2     :     0.000525  d :     0.001849
      dxz     :     0.000302
      dyz     :     0.000406
      dx2y2   :     0.000245
      dxy     :     0.000372

SPIN
  0 C s       :     0.183619  s :     0.183619
      pz      :     0.190101  p :     1.847922
      px      :     0.701976
      py      :     0.955845
      dz2     :    -0.002583  d :    -0.004209
      dxz     :    -0.001314
      dyz     :    -0.000003
      dx2y2   :    -0.000292
      dxy     :    -0.000017
      f0      :    -0.000468  f :    -0.001103
      f+1     :    -0.000384
      f-1     :    -0.000017
      f+2     :    -0.000201
      f-2     :    -0.000008
      f+3     :    -0.000025
      f-3     :    -0.000000
  1 H s       :    -0.051312  s :    -0.051312
      pz      :     0.003111  p :     0.036732
      px      :     0.012303
      py      :     0.021319
      dz2     :     0.000050  d :     0.001435
      dxz     :     0.000607
      dyz     :     0.000777
      dx2y2   :     0.000000
      dxy     :     0.000000
  2 H s       :    -0.051257  s :    -0.051257
      pz      :     0.002907  p :     0.036738
      px      :     0.012504
      py      :     0.021326
      dz2     :     0.000459  d :     0.001435
      dxz     :     0.000055
      dyz     :     0.000406
      dx2y2   :     0.000143
      dxy     :     0.000372


                     *******************************
                     * LOEWDIN POPULATION ANALYSIS *
                     *******************************

-------------------------------------------
LOEWDIN ATOMIC CHARGES AND SPIN POPULATIONS
-------------------------------------------
   0 C :    0.357685    1.610111
   1 H :   -0.178843    0.194944
   2 H :   -0.178842    0.194946

----------------------------------------------------
LOEWDIN REDUCED ORBITAL CHARGES AND SPIN POPULATIONS
----------------------------------------------------
CHARGE
  0 C s       :     2.947133  s :     2.947133
      pz      :     1.020777  p :     2.607945
      px      :     0.803913
      py      :     0.783255
      dz2     :     0.039599  d :     0.080030
      dxz     :     0.032849
      dyz     :     0.000138
      dx2y2   :     0.006682
      dxy     :     0.000762
      f0      :     0.002996  f :     0.007207
      f+1     :     0.000841
      f-1     :     0.000753
      f+2     :     0.001872
      f-2     :     0.000270
      f+3     :     0.000383
      f-3     :     0.000093
  1 H s       :     0.797331  s :     0.797331
      pz      :     0.171509  p :     0.349512
      px      :     0.081734
      py      :     0.096268
      dz2     :     0.011953  d :     0.031999
      dxz     :     0.008946
      dyz     :     0.011096
      dx2y2   :     0.000005
      dxy     :     0.000000
  2 H s       :     0.797330  s :     0.797330
      pz      :     0.119564  p :     0.349513
      px      :     0.133679
      py      :     0.096269
      dz2     :     0.006974  d :     0.031999
      dxz     :     0.008896
      dyz     :     0.005294
      dx2y2   :     0.005033
      dxy     :     0.005801

SPIN
  0 C s       :     0.102024  s :     0.102024
      pz      :     0.126306  p :     1.509176
      px      :     0.599615
      py      :     0.783255
      dz2     :    -0.000829  d :    -0.000763
      dxz     :     0.000373
      dyz     :     0.000138
      dx2y2   :    -0.001207
      dxy     :     0.000762
      f0      :    -0.000713  f :    -0.000326
      f+1     :    -0.000334
      f-1     :     0.000753
      f+2     :    -0.000346
      f-2     :     0.000270
      f+3     :    -0.000049
      f-3     :     0.000093
  1 H s       :    -0.014651  s :    -0.014651
      pz      :     0.028058  p :     0.189981
      px      :     0.065655
      py      :     0.096268
      dz2     :     0.001012  d :     0.019613
      dxz     :     0.007504
      dyz     :     0.011096
      dx2y2   :     0.000002
      dxy     :     0.000000
  2 H s       :    -0.014650  s :    -0.014650
      pz      :     0.018788  p :     0.189982
      px      :     0.074925
      py      :     0.096269
      dz2     :     0.005624  d :     0.019613
      dxz     :     0.000822
      dyz     :     0.005294
      dx2y2   :     0.002072
      dxy     :     0.005801


                      *****************************
                      * MAYER POPULATION ANALYSIS *
                      *****************************

  NA   - Mulliken gross atomic population
  ZA   - Total nuclear charge
  QA   - Mulliken gross atomic charge
  VA   - Mayer's total valence
  BVA  - Mayer's bonded valence
  FA   - Mayer's free valence

  ATOM       NA         ZA         QA         VA         BVA        FA
  0 C      6.1968     6.0000    -0.1968     3.8631     2.0625     1.8006
  1 H      0.9016     1.0000     0.0984     1.0281     1.0227     0.0054
  2 H      0.9016     1.0000     0.0984     1.0280     1.0227     0.0054

  Mayer bond orders larger than 0.100000
B(  0-C ,  1-H ) :   1.0313 B(  0-C ,  2-H ) :   1.0313 

-------
TIMINGS
-------

Total SCF time: 0 days 0 hours 2 min 3 sec 

Total time                  ....     123.178 sec
Sum of individual times     ....     122.161 sec  ( 99.2%)

Fock matrix formation       ....     116.741 sec  ( 94.8%)
  XC integration            ....     112.670 sec  ( 96.5% of F)
    Basis function eval.    ....       0.010 sec  (  0.0% of XC)
    Density eval.           ....       0.009 sec  (  0.0% of XC)
    XC-Functional eval.     ....       0.013 sec  (  0.0% of XC)
    XC-Potential eval.      ....       0.017 sec  (  0.0% of XC)
Diagonalization             ....       1.995 sec  (  1.6%)
Density matrix formation    ....       0.006 sec  (  0.0%)
Population analysis         ....       0.838 sec  (  0.7%)
Initial guess               ....       0.695 sec  (  0.6%)
Orbital Transformation      ....       0.000 sec  (  0.0%)
Orbital Orthonormalization  ....       0.000 sec  (  0.0%)
DIIS solution               ....       0.065 sec  (  0.1%)
Grid generation             ....       1.820 sec  (  1.5%)


           ************************************************************
           *        Program running with 28 parallel MPI-processes    *
           *              working on a common directory               *
           ************************************************************

------------------------------------------------------------------------------
                                ORCA  MP2 
------------------------------------------------------------------------------

Freezing NCore=2 chemical core electrons

-------------
RI-MP2 ENERGY
-------------
Dimension of the basis                    ...   71
Memory devoted to MP2                     ... 5000 MB   
Data format for buffers                   ... DOUBLE
Compression type for matrix containers    ... UNCOMPRESSED
Overall scaling of the MP2 energy         ...   2.700e-01
Calculating two index integrals           ... done (    0.008 sec)
Cholesky decomposition of V**-1           ... done (    0.158 sec)

-----------------
RI-TRANSFORMATION (AUX index driven)
-----------------

Dimension of the orbital-basis         ... 71
Dimension of the aux-basis             ... 170
Transformation of internal/external MOs...    1-   4 to    5-  70
Number Format for Storage              ... Double (8 Byte)
Integral mode                          ... Direct

First Phase: integral generation and transformation of MO indices
  Aux angular momentum 0               ... done (    0.001 sec)
  Aux angular momentum 1               ... done (    0.002 sec)
  Aux angular momentum 2               ... done (    0.000 sec)
  Aux angular momentum 3               ... done (    0.001 sec)
  Aux angular momentum 4               ... done (    0.001 sec)
Closing buffer VIA ( 0.00 GB; CompressionRatio= 0.99)
  Phase 1 completed in     7.317 sec
Second Phase: sorting and transformation of aux index

IA-Transformation
Memory available                       ... 5000 MB 
Max. # MO pairs treated in a batch     ... 1    
# of internal orbitals                 ... 4
# batches for internal orbitals        ... 1
Closing buffer IAV ( 0.00 GB; CompressionRatio= 1.00)
(ia|v) transformation done in     0.364 sec

  Phase 2 completed in     7.316 sec
RI-Integral transformation completed in    16.509 sec

-----------------
RI-TRANSFORMATION (AUX index driven)
-----------------

Dimension of the orbital-basis         ... 71
Dimension of the aux-basis             ... 170
Transformation of internal/external MOs...    1-   2 to    3-  70
Number Format for Storage              ... Double (8 Byte)
Integral mode                          ... Direct

First Phase: integral generation and transformation of MO indices
  Aux angular momentum 0               ... done (    0.000 sec)
  Aux angular momentum 1               ... done (    0.002 sec)
  Aux angular momentum 2               ... done (    0.000 sec)
  Aux angular momentum 3               ... done (    0.001 sec)
  Aux angular momentum 4               ... done (    0.001 sec)
Closing buffer VIA ( 0.00 GB; CompressionRatio= 0.99)
  Phase 1 completed in     5.883 sec
Second Phase: sorting and transformation of aux index

IA-Transformation
Memory available                       ... 5000 MB 
Max. # MO pairs treated in a batch     ... 1    
# of internal orbitals                 ... 2
# batches for internal orbitals        ... 1
Closing buffer IAV ( 0.00 GB; CompressionRatio= 1.00)
(ia|v) transformation done in     0.186 sec

  Phase 2 completed in     7.440 sec
RI-Integral transformation completed in    14.916 sec
Opening buffers                              ... done

Starting loop over batches of integrals:

Operator 0  - window                       ... (  1-  4)x(  5- 70)
Operator 0  - Memory available             ...  5000 MB
Operator 0  - Memory needed per MO         ...   0.1 MB
Operator 0  - Number of orbitals per batch ... 1
Operator 0  - Number of batches            ... 1

OPERATOR  0   PASS   0:  MOs     1 ...    1 +    2 ...    2 +    3 ...    3 +    4 ...    4
  Reading integrals       ... ok

Operator 1  - window                       ... (  1-  2)x(  3- 70)
Operator 1  - Memory available             ...  5000 MB
Operator 1  - Memory needed per MO         ...   0.1 MB
Operator 1  - Number of orbitals per batch ... 1
Operator 1  - Number of batches            ... 1

OPERATOR  1   PASS   0:  MOs     1 ...    1 +    2 ...    2
  Reading integrals       ... ok
Time spent in pair loops =     0.003 sec
Deleting buffer (Ka|jb)[aa] ...done
Deleting buffer (Ka|jb)[ab] ...done
Deleting buffer (Ka|jb)[ba] ...done
Deleting buffer (Ka|jb)[bb] ...done

Correlation energy components}
 E2 and T2 for alpha/alpha pairs :     -0.008036153 Eh      0.000000000
 E2 and T2 for beta/beta   pairs :     -0.000688145 Eh      0.000000000
 E2 and T2 for alpha/beta  pairs :     -0.029808058 Eh      0.000000000


-----------------------------------------------
 RI-MP2 CORRELATION ENERGY:     -0.038532357 Eh
-----------------------------------------------


-------
TIMINGS
-------

Total time                :   36.650 sec
Integral trafo            :   31.449 sec ( 85.8%)
I/O of integrals          :    0.000 sec (  0.0%)
K(i,j) Operators          :    0.000 sec (  0.0%)
T(i,j) pair energies      :    0.000 sec (  0.0%)
V-calculation             :    0.008 sec (  0.0%)
V**(-1/2)                 :    0.158 sec (  0.4%)
Gamma(ia|P)               :    0.000 sec (  0.0%)
Gamma-Trafo               :    0.000 sec (  0.0%)
D(virtual)                :    0.000 sec (  0.0%)
D(internal)               :    0.000 sec (  0.0%)
W(virtual)                :    0.000 sec (  0.0%)
W(internal)               :    0.000 sec (  0.0%)
L(virtual)                :    0.000 sec (  0.0%)
L(internal)               :    0.000 sec (  0.0%)
G(D)                      :    0.000 sec (  0.0%)
G(Z)                      :    0.000 sec (  0.0%)
Z-Vector Solution         :    0.000 sec (  0.0%)
Z-Vector Solution         :    0.000 sec (  0.0%)
3-Index Derivative 
+ Separable RIJ part      :    0.000 sec (  0.0%)
2-Index Derivative 
+ Separable RIJ part      :    0.000 sec (  0.0%)
Separable Gradient (X)    :    0.000 sec (  0.0%)


---------------------------------------
MP2 TOTAL ENERGY:      -39.127311563 Eh
---------------------------------------


-------------------------------------------------------------------------------
                          DFT DISPERSION CORRECTION                            
                                                                               
                              DFTD3 V3.1  Rev 1                                
                          USING Becke-Johnson damping                          
-------------------------------------------------------------------------------
The B2PLYP functional is recognized
Active option DFTDOPT                   ...         4   

molecular C6(AA) [au] = 80.078635 


            DFT-D V3
 parameters
 s6 scaling factor         :     0.6400 
 a1 scaling factor         :     0.3065 
 s8 scaling factor         :     0.9147 
 a2 scaling factor         :     5.0570 
 ad hoc parameters k1-k3   :    16.0000     1.3333    -4.0000 

 Edisp/kcal,au: -0.220846746243  -0.000351941655 
 E6   /kcal   :  -0.135756376 
 E8   /kcal   :  -0.085090370 
 % E8         :  38.529148291 

-------------------------   ----------------
Dispersion correction           -0.000351942
-------------------------   ----------------


-------------------------   --------------------
FINAL SINGLE POINT ENERGY       -39.127663504339
-------------------------   --------------------


                            ***************************************
                            *     ORCA property calculations      *
                            ***************************************


  WARNING: The energy has been calculated at the MP2 level but the densities
           used in the property calculations are still SCF densities
           MP2 response densities have not been calculated 
           use %mp2 Density relaxed end
           or  %mp2 Density unrelaxed end

                                    ---------------------
                                    Active property flags
                                    ---------------------
   (+) Dipole Moment


------------------------------------------------------------------------------
                       ORCA ELECTRIC PROPERTIES CALCULATION
------------------------------------------------------------------------------

Dipole Moment Calculation                       ... on
Quadrupole Moment Calculation                   ... off
Polarizability Calculation                      ... off
GBWName                                         ... CH2.gbw
Electron density file                           ... CH2.scfp
The origin for moment calculation is the CENTER OF MASS  = ( 0.105468,  0.000000  0.044945)

-------------
DIPOLE MOMENT
-------------
                                X             Y             Z
Electronic contribution:     -0.40821       0.00000      -0.17396
Nuclear contribution   :      0.62391       0.00000       0.26588
                        -----------------------------------------
Total Dipole Moment    :      0.21571       0.00000       0.09192
                        -----------------------------------------
Magnitude (a.u.)       :      0.23448
Magnitude (Debye)      :      0.59599



--------------------
Rotational spectrum 
--------------------
 
Rotational constants in cm-1:    54.806134     8.522616     7.375665 
Rotational constants in MHz : 1643046.573679 255501.612999 221116.879072 

 Dipole components along the rotational axes: 
x,y,z [a.u.] :    -0.000000     0.234476    -0.000000 
x,y,z [Debye]:    -0.000000     0.595989    -0.000000 

 

Timings for individual modules:

Sum of individual times         ...      174.499 sec (=   2.908 min)
GTO integral calculation        ...        7.167 sec (=   0.119 min)   4.1 %
SCF iterations                  ...      126.218 sec (=   2.104 min)  72.3 %
MP2 module                      ...       41.114 sec (=   0.685 min)  23.6 %
                             ****ORCA TERMINATED NORMALLY****
TOTAL RUN TIME: 0 days 0 hours 4 minutes 9 seconds 270 msec
