
                                 *****************
                                 * O   R   C   A *
                                 *****************

           --- An Ab Initio, DFT and Semiempirical electronic structure package ---

                  #######################################################
                  #                        -***-                        #
                  #          Department of theory and spectroscopy      #
                  #               Directorship: Frank Neese             #
                  #        Max Planck Institute fuer Kohlenforschung    #
                  #                Kaiser Wilhelm Platz 1               #
                  #                 D-45470 Muelheim/Ruhr               #
                  #                      Germany                        #
                  #                                                     #
                  #                  All rights reserved                #
                  #                        -***-                        #
                  #######################################################


                         Program Version 4.2.0 -  RELEASE  -


 With contributions from (in alphabetic order):
   Daniel Aravena         : Magnetic Suceptibility
   Michael Atanasov       : Ab Initio Ligand Field Theory (pilot matlab implementation)
   Alexander A. Auer      : GIAO ZORA, VPT2
   Ute Becker             : Parallelization
   Giovanni Bistoni       : ED, misc. LED, open-shell LED, HFLED
   Martin Brehm           : Molecular dynamics
   Dmytro Bykov           : SCF Hessian
   Vijay G. Chilkuri      : MRCI spin determinant printing, contributions to CSF-ICE
   Dipayan Datta          : RHF DLPNO-CCSD density
   Achintya Kumar Dutta   : EOM-CC, STEOM-CC
   Dmitry Ganyushin       : Spin-Orbit,Spin-Spin,Magnetic field MRCI
   Miquel Garcia          : C-PCM Hessian, Gaussian charge scheme
   Yang Guo               : DLPNO-NEVPT2, CIM, IAO-localization
   Andreas Hansen         : Spin unrestricted coupled pair/coupled cluster methods
   Benjamin Helmich-Paris : CASSCF linear response (MC-RPA)
   Lee Huntington         : MR-EOM, pCC
   Robert Izsak           : Overlap fitted RIJCOSX, COSX-SCS-MP3, EOM
   Christian Kollmar      : KDIIS, OOCD, Brueckner-CCSD(T), CCSD density
   Simone Kossmann        : Meta GGA functionals, TD-DFT gradient, OOMP2, MP2 Hessian
   Martin Krupicka        : AUTO-CI
   Lucas Lang             : DCDCAS
   Dagmar Lenk            : GEPOL surface, SMD
   Dimitrios Liakos       : Extrapolation schemes; Compound Job, initial MDCI parallelization
   Dimitrios Manganas     : Further ROCIS development; embedding schemes
   Dimitrios Pantazis     : SARC Basis sets
   Taras Petrenko         : DFT Hessian,TD-DFT gradient, ASA, ECA, R-Raman, ABS, FL, XAS/XES, NRVS
   Peter Pinski           : DLPNO-MP2, DLPNO-MP2 Gradient
   Christoph Reimann      : Effective Core Potentials
   Marius Retegan         : Local ZFS, SOC
   Christoph Riplinger    : Optimizer, TS searches, QM/MM, DLPNO-CCSD(T), (RO)-DLPNO pert. Triples
   Tobias Risthaus        : Range-separated hybrids, TD-DFT gradient, RPA, STAB
   Michael Roemelt        : Original ROCIS implementation
   Masaaki Saitow         : Open-shell DLPNO-CCSD energy and density
   Barbara Sandhoefer     : DKH picture change effects
   Avijit Sen             : IP-ROCIS
   Kantharuban Sivalingam : CASSCF convergence, NEVPT2, FIC-MRCI
   Bernardo de Souza      : ESD, SOC TD-DFT
   Georgi Stoychev        : AutoAux, RI-MP2 NMR
   Willem Van den Heuvel  : Paramagnetic NMR
   Boris Wezisla          : Elementary symmetry handling
   Frank Wennmohs         : Technical directorship


 We gratefully acknowledge several colleagues who have allowed us to
 interface, adapt or use parts of their codes:
   Stefan Grimme, W. Hujo, H. Kruse,             : VdW corrections, initial TS optimization,
                  C. Bannwarth                     DFT functionals, gCP, sTDA/sTD-DF
   Ed Valeev, F. Pavosevic, A. Kumar             : LibInt (2-el integral package), F12 methods
   Garnet Chan, S. Sharma, J. Yang, R. Olivares  : DMRG
   Ulf Ekstrom                                   : XCFun DFT Library
   Mihaly Kallay                                 : mrcc  (arbitrary order and MRCC methods)
   Andreas Klamt, Michael Diedenhofen            : otool_cosmo (COSMO solvation model)
   Jiri Pittner, Ondrej Demel                    : Mk-CCSD
   Frank Weinhold                                : gennbo (NPA and NBO analysis)
   Christopher J. Cramer and Donald G. Truhlar   : smd solvation model
   Lars Goerigk                                  : TD-DFT with DH, B97 family of functionals
   V. Asgeirsson, H. Jonsson                     : NEB implementation
   FAccTs GmbH                                   : IRC, NEB, NEB-TS, Multilevel, MM, QM/MM, CI optimization
   S Lehtola, MJT Oliveira, MAL Marques          : LibXC Library


 Your calculation uses the libint2 library for the computation of 2-el integrals
 For citations please refer to: http://libint.valeyev.net

 Your ORCA version has been built with support for libXC version: 4.2.3
 For citations please refer to: https://tddft.org/programs/libxc/

 This ORCA versions uses:
   CBLAS   interface :  Fast vector & matrix operations
   LAPACKE interface :  Fast linear algebra routines
   SCALAPACK package :  Parallel linear algebra routines


Your calculation utilizes the atom-pairwise dispersion correction
with the Becke-Johnson damping scheme (D3BJ)
Cite in your paper:
S.Grimme, S.Ehrlich, L.Goerigk, J Comput Chem, (2011), 32, 1456–1465 
S.Grimme, J.Antony, S.Ehrlich and H.Krieg, J.Chem.Phys., 132, (2010), 154104 
   

----- Orbital basis set information -----
Your calculation utilizes the basis: def2-TZVPPD
   F. Weigend and R. Ahlrichs, Phys. Chem. Chem. Phys. 7, 3297 (2005).
   D. Rappoport and F. Furche, J. Chem. Phys. 133 134105 (2010).

----- AuxC basis set information -----
Your calculation utilizes the auxiliary basis: def2-TZVPPD/C
   A. Hellweg, C. Hattig, S. Hofener and W. Klopper, Theor. Chem. Acc. 117, 587 (2007).

----- AuxJK basis set information -----
Your calculation utilizes the auxiliary basis: def2/JK
   H-Ba, Hf-Rn: F. Weigend, J. Comput. Chem. 29, 167 (2008).

================================================================================
                                        WARNINGS
                       Please study these warnings very carefully!
================================================================================


WARNING: No MP2 level density has been requested!
         To caclulate MP2 level properties use
         %mp2 Density relaxed end
         or
         %mp2 Density unrelaxed end
         Otherwise for double-hybrid DFT only the energy is correct!

WARNING: The frozen-core approximation is turned on by default for 
         the MP2 part of double-hybrid DFT.

INFO   : the flag for use of LIBINT has been found!

================================================================================
                                       INPUT FILE
================================================================================
NAME = cl2o.in
|  1> #
|  2> # cl2o ri-B2PLYP-D3BJ/Def2-TZVPPD
|  3> #
|  4> ! rijk ri-b2plyp d3bj def2-tzvppd def2/jk def2-tzvppd/c grid4 nofinalgrid
|  5> 
|  6> *xyz 0 1
|  7> O          0.00000        0.00000        0.64242
|  8> Cl         1.40117        0.00000       -0.32121
|  9> Cl        -1.40117        0.00000       -0.32121
| 10> *
| 11> 
| 12> %maxcore 5000
| 13> 
| 14> %pal
| 15> nprocs = 28
| 16> end
| 17> 
| 18> 
| 19>                          ****END OF INPUT****
================================================================================

                       ****************************
                       * Single Point Calculation *
                       ****************************

---------------------------------
CARTESIAN COORDINATES (ANGSTROEM)
---------------------------------
  O      0.000000    0.000000    0.642420
  Cl     1.401170    0.000000   -0.321210
  Cl    -1.401170    0.000000   -0.321210

----------------------------
CARTESIAN COORDINATES (A.U.)
----------------------------
  NO LB      ZA    FRAG     MASS         X           Y           Z
   0 O     8.0000    0    15.999    0.000000    0.000000    1.213998
   1 Cl   17.0000    0    35.453    2.647828    0.000000   -0.606999
   2 Cl   17.0000    0    35.453   -2.647828    0.000000   -0.606999

--------------------------------
INTERNAL COORDINATES (ANGSTROEM)
--------------------------------
 O      0   0   0     0.000000000000     0.00000000     0.00000000
 Cl     1   0   0     1.700547013699     0.00000000     0.00000000
 Cl     1   2   0     1.700547013699   110.96487267     0.00000000

---------------------------
INTERNAL COORDINATES (A.U.)
---------------------------
 O      0   0   0     0.000000000000     0.00000000     0.00000000
 Cl     1   0   0     3.213568133748     0.00000000     0.00000000
 Cl     1   2   0     3.213568133748   110.96487267     0.00000000

---------------------
BASIS SET INFORMATION
---------------------
There are 2 groups of distinct atoms

 Group   1 Type O   : 12s7p3d1f contracted to 6s4p3d1f pattern {621111/4111/111/1}
 Group   2 Type Cl  : 15s10p4d1f contracted to 6s6p4d1f pattern {732111/511111/1111/1}

Atom   0O    basis set group =>   1
Atom   1Cl   basis set group =>   2
Atom   2Cl   basis set group =>   2
---------------------------------
AUXILIARY/C BASIS SET INFORMATION
---------------------------------
There are 2 groups of distinct atoms

 Group   1 Type O   : 9s7p6d4f1g contracted to 9s7p5d4f1g pattern {111111111/1111111/21111/1111/1}
 Group   2 Type Cl  : 12s9p8d6f2g contracted to 12s9p8d6f2g pattern {111111111111/111111111/11111111/111111/11}

Atom   0O    basis set group =>   1
Atom   1Cl   basis set group =>   2
Atom   2Cl   basis set group =>   2
----------------------------------
AUXILIARY/JK BASIS SET INFORMATION
----------------------------------
There are 2 groups of distinct atoms

 Group   1 Type O   : 14s10p6d2f1g contracted to 10s8p4d2f1g pattern {5111111111/31111111/3111/11/1}
 Group   2 Type Cl  : 16s12p10d4f1g contracted to 13s11p9d4f1g pattern {4111111111111/21111111111/211111111/1111/1}

Atom   0O    basis set group =>   1
Atom   1Cl   basis set group =>   2
Atom   2Cl   basis set group =>   2


           ************************************************************
           *        Program running with 28 parallel MPI-processes    *
           *              working on a common directory               *
           ************************************************************
------------------------------------------------------------------------------
                           ORCA GTO INTEGRAL CALCULATION
                           -- RI-GTO INTEGRALS CHOSEN --
------------------------------------------------------------------------------

                         BASIS SET STATISTICS AND STARTUP INFO

Gaussian basis set:
 # of primitive gaussian shells          ...   83
 # of primitive gaussian functions       ...  199
 # of contracted shells                  ...   48
 # of contracted basis functions         ...  142
 Highest angular momentum                ...    3
 Maximum contraction depth               ...    7
Auxiliary gaussian basis set:
 # of primitive gaussian shells          ...  119
 # of primitive gaussian functions       ...  375
 # of contracted shells                  ...  101
 # of contracted aux-basis functions     ...  333
 Highest angular momentum                ...    4
 Maximum contraction depth               ...    5
Ratio of auxiliary to basis functions    ...  2.35
Integral package used                  ... LIBINT
 One Electron integrals                  ... done
 Ordering auxiliary basis shells         ... done
 Integral threshhold             Thresh  ...  1.000e-10
 Primitive cut-off               TCut    ...  1.000e-11
 Pre-screening matrix                    ... done
 Shell pair data                         ... 
 Ordering of the shell pairs             ... done (   0.000 sec) 1126 of 1176 pairs
 Determination of significant pairs      ... done (   0.000 sec)
 Creation of shell pair data             ... done (   0.000 sec)
 Storage of shell pair data              ... done (   0.034 sec)
 Shell pair data done in (   0.035 sec)
 Computing two index integrals           ... done
 Cholesky decomposition of the V-matrix  ... done


Timings:
 Total evaluation time                   ...   0.472 sec (  0.008 min)
 One electron matrix time                ...   0.113 sec (  0.002 min) = 24.0%
 Schwartz matrix evaluation time         ...   0.206 sec (  0.003 min) = 43.8%
 Two index repulsion integral time       ...   0.012 sec (  0.000 min) =  2.6%
 Cholesky decomposition of V             ...   0.059 sec (  0.001 min) = 12.6%
 Three index repulsion integral time     ...   0.000 sec (  0.000 min) =  0.0%



           ************************************************************
           *        Program running with 28 parallel MPI-processes    *
           *              working on a common directory               *
           ************************************************************
-------------------------------------------------------------------------------
                                 ORCA SCF
-------------------------------------------------------------------------------

------------
SCF SETTINGS
------------
Hamiltonian:
 Density Functional     Method          .... DFT(GTOs)
 Exchange Functional    Exchange        .... B88
   X-Alpha parameter    XAlpha          ....  0.666667
   Becke's b parameter  XBeta           ....  0.004200
 Correlation Functional Correlation     .... LYP
 LDA part of GGA corr.  LDAOpt          .... VWN-3
 Gradients option       PostSCFGGA      .... off
 Hybrid DFT is turned on
   Fraction HF Exchange ScalHFX         ....  0.530000
   Scaling of DF-GGA-X  ScalDFX         ....  0.470000
   Scaling of DF-GGA-C  ScalDFC         ....  0.730000
   Scaling of DF-LDA-C  ScalLDAC        ....  0.730000
   Perturbative correction              ....  0.270000
   Density functional embedding theory  .... OFF
 RI-approximation to the Coulomb term is turned on
   Number of auxiliary basis functions  .... 333
   RI-JK (J+K treated both via RI)      .... on


General Settings:
 Integral files         IntName         .... cl2o
 Hartree-Fock type      HFTyp           .... RHF
 Total Charge           Charge          ....    0
 Multiplicity           Mult            ....    1
 Number of Electrons    NEL             ....   42
 Basis Dimension        Dim             ....  142
 Nuclear Repulsion      ENuc            ....    139.2141582232 Eh

Convergence Acceleration:
 DIIS                   CNVDIIS         .... on
   Start iteration      DIISMaxIt       ....    12
   Startup error        DIISStart       ....  0.200000
   # of expansion vecs  DIISMaxEq       ....     5
   Bias factor          DIISBfac        ....   1.050
   Max. coefficient     DIISMaxC        ....  10.000
 Newton-Raphson         CNVNR           .... off
 SOSCF                  CNVSOSCF        .... on
   Start iteration      SOSCFMaxIt      ....   150
   Startup grad/error   SOSCFStart      ....  0.003300
 Level Shifting         CNVShift        .... on
   Level shift para.    LevelShift      ....    0.2500
   Turn off err/grad.   ShiftErr        ....    0.0010
 Zerner damping         CNVZerner       .... off
 Static damping         CNVDamp         .... on
   Fraction old density DampFac         ....    0.7000
   Max. Damping (<1)    DampMax         ....    0.9800
   Min. Damping (>=0)   DampMin         ....    0.0000
   Turn off err/grad.   DampErr         ....    0.1000
 Fernandez-Rico         CNVRico         .... off

SCF Procedure:
 Maximum # iterations   MaxIter         ....   125
 SCF integral mode      SCFMode         .... Direct
   Integral package                     .... LIBINT
 Reset frequency        DirectResetFreq ....    20
 Integral Threshold     Thresh          ....  1.000e-10 Eh
 Primitive CutOff       TCut            ....  1.000e-11 Eh

Convergence Tolerance:
 Convergence Check Mode ConvCheckMode   .... Total+1el-Energy
 Convergence forced     ConvForced      .... 0
 Energy Change          TolE            ....  1.000e-06 Eh
 1-El. energy change                    ....  1.000e-03 Eh
 Orbital Gradient       TolG            ....  5.000e-05
 Orbital Rotation angle TolX            ....  5.000e-05
 DIIS Error             TolErr          ....  1.000e-06


Diagonalization of the overlap matrix:
Smallest eigenvalue                        ... 8.850e-04
Time for diagonalization                   ...    0.015 sec
Threshold for overlap eigenvalues          ... 1.000e-08
Number of eigenvalues below threshold      ... 0
Time for construction of square roots      ...    0.072 sec
Total time needed                          ...    0.087 sec

-------------------
DFT GRID GENERATION
-------------------

General Integration Accuracy     IntAcc      ...  4.670
Radial Grid Type                 RadialGrid  ... Gauss-Chebyshev
Angular Grid (max. acc.)         AngularGrid ... Lebedev-302
Angular grid pruning method      GridPruning ... 3 (G Style)
Weight generation scheme         WeightScheme... Becke
Basis function cutoff            BFCut       ...    1.0000e-10
Integration weight cutoff        WCut        ...    1.0000e-14
Grids for H and He will be reduced by one unit

# of grid points (after initial pruning)     ...  19688 (   0.0 sec)
# of grid points (after weights+screening)   ...  19570 (   0.0 sec)
nearest neighbour list constructed           ...    0.0 sec
Grid point re-assignment to atoms done       ...    0.0 sec
Grid point division into batches done        ...    0.1 sec
Reduced shell lists constructed in    0.1 sec

Total number of grid points                  ...    19570
Total number of batches                      ...      307
Average number of points per batch           ...       63
Average number of grid points per atom       ...     6523
Average number of shells per batch           ...    12.83 (26.74%)
Average number of basis functions per batch  ...    36.00 (25.35%)
Average number of large shells per batch     ...     8.92 (69.48%)
Average number of large basis fcns per batch ...    25.58 (71.06%)
Average number of aux-shells per batch       ...    12.83 (12.71%)
Average number of aux functions per batch    ...    36.00 (10.81%)
Maximum spatial batch extension              ...  16.64, 19.35, 14.28 au
Average spatial batch extension              ...   0.44,  0.51,  0.39 au

Time for grid setup =    2.110 sec

------------------------------
INITIAL GUESS: MODEL POTENTIAL
------------------------------
Loading Hartree-Fock densities                     ... done
Calculating cut-offs                               ... done
Setting up the integral package                    ... done
Initializing the effective Hamiltonian             ... done
Starting the Coulomb interaction                   ... done (   0.0 sec)
Reading the grid                                   ... done
Mapping shells                                     ... done
Starting the XC term evaluation                    ... done (   0.0 sec)
  promolecular density results
     # of electrons  =     41.999996843
     EX              =    -63.201976548
     EC              =     -0.610127035
     EX+EC           =    -63.812103583
Transforming the Hamiltonian                       ... done (   0.0 sec)
Diagonalizing the Hamiltonian                      ... done (   0.0 sec)
Back transforming the eigenvectors                 ... done (   0.0 sec)
Now organizing SCF variables                       ... done
                      ------------------
                      INITIAL GUESS DONE (   2.6 sec)
                      ------------------
--------------
SCF ITERATIONS
--------------
ITER       Energy         Delta-E        Max-DP      RMS-DP      [F,P]     Damp
  0   -995.0130039884   0.000000000000 0.02177252  0.00050052  0.1243043 0.7000
  1   -995.0157265489  -0.002722560507 0.01830092  0.00045101  0.0915711 0.7000
                               ***Turning on DIIS***
  2   -995.0230240397  -0.007297490846 0.03632763  0.00097621  0.0439173 0.0000
  3   -995.0380584454  -0.015034405698 0.02045922  0.00047206  0.0528841 0.0000
  4   -995.0421976691  -0.004139223653 0.00595120  0.00016829  0.0132251 0.0000
                      *** Initiating the SOSCF procedure ***
                           *** Shutting down DIIS ***
                      *** Re-Reading the Fockian *** 
                      *** Removing any level shift *** 
ITER      Energy       Delta-E        Grad      Rot      Max-DP    RMS-DP
  5   -995.04254392  -0.0003462469  0.001656  0.001656  0.001509  0.000054
  6   -995.04258049  -0.0000365788  0.000971  0.002855  0.000938  0.000042
  7   -995.04259598  -0.0000154883  0.000471  0.002670  0.001246  0.000035
  8   -995.04259733  -0.0000013453  0.000507  0.000413  0.000364  0.000010
  9   -995.04259898  -0.0000016485  0.000092  0.000265  0.000185  0.000005
 10   -995.04259910  -0.0000001186  0.000028  0.000095  0.000071  0.000002
                 **** Energy Check signals convergence ****
              ***Rediagonalizing the Fockian in SOSCF/NRSCF***

               *****************************************************
               *                     SUCCESS                       *
               *           SCF CONVERGED AFTER  11 CYCLES          *
               *****************************************************


----------------
TOTAL SCF ENERGY
----------------

Total Energy       :         -995.04259912 Eh          -27076.48566 eV

Components:
Nuclear Repulsion  :          139.21415822 Eh            3788.20983 eV
Electronic Energy  :        -1134.25675734 Eh          -30864.69550 eV
One Electron Energy:        -1650.56639090 Eh          -44914.19489 eV
Two Electron Energy:          516.30963356 Eh           14049.49939 eV

Virial components:
Potential Energy   :        -1988.90012905 Eh          -54120.72396 eV
Kinetic Energy     :          993.85752993 Eh           27044.23829 eV
Virial Ratio       :            2.00119239


DFT components:
N(Alpha)           :       21.000010504497 electrons
N(Beta)            :       21.000010504497 electrons
N(Total)           :       42.000021008994 electrons
E(X)               :      -29.745900303924 Eh       
E(C)               :       -1.249437363583 Eh       
E(XC)              :      -30.995337667507 Eh       
DFET-embed. en.    :        0.000000000000 Eh       

---------------
SCF CONVERGENCE
---------------

  Last Energy change         ...   -2.6275e-08  Tolerance :   1.0000e-06
  Last MAX-Density change    ...    1.0088e-05  Tolerance :   1.0000e-05
  Last RMS-Density change    ...    3.4685e-07  Tolerance :   1.0000e-06
  Last Orbital Gradient      ...    7.0258e-06  Tolerance :   5.0000e-05
  Last Orbital Rotation      ...    2.2213e-05  Tolerance :   5.0000e-05

             **** THE GBW FILE WAS UPDATED (cl2o.gbw) ****
             **** DENSITY FILE WAS UPDATED (cl2o.scfp) ****
             **** ENERGY FILE WAS UPDATED (cl2o.en.tmp) ****
             **** THE GBW FILE WAS UPDATED (cl2o.gbw) ****
             **** DENSITY FILE WAS UPDATED (cl2o.scfp) ****
----------------
ORBITAL ENERGIES
----------------

  NO   OCC          E(Eh)            E(eV) 
   0   2.0000    -102.981137     -2802.2592 
   1   2.0000    -102.981135     -2802.2592 
   2   2.0000     -19.869285      -540.6707 
   3   2.0000      -9.981824      -271.6192 
   4   2.0000      -9.981815      -271.6190 
   5   2.0000      -7.624181      -207.4645 
   6   2.0000      -7.624180      -207.4645 
   7   2.0000      -7.614256      -207.1944 
   8   2.0000      -7.614253      -207.1944 
   9   2.0000      -7.613860      -207.1837 
  10   2.0000      -7.613860      -207.1837 
  11   2.0000      -1.253659       -34.1138 
  12   2.0000      -0.983724       -26.7685 
  13   2.0000      -0.878933       -23.9170 
  14   2.0000      -0.592875       -16.1329 
  15   2.0000      -0.559721       -15.2308 
  16   2.0000      -0.555589       -15.1183 
  17   2.0000      -0.418506       -11.3881 
  18   2.0000      -0.410300       -11.1648 
  19   2.0000      -0.397737       -10.8230 
  20   2.0000      -0.360326        -9.8050 
  21   0.0000      -0.069878        -1.9015 
  22   0.0000      -0.000531        -0.0145 
  23   0.0000       0.052492         1.4284 
  24   0.0000       0.053210         1.4479 
  25   0.0000       0.061070         1.6618 
  26   0.0000       0.063436         1.7262 
  27   0.0000       0.087008         2.3676 
  28   0.0000       0.090042         2.4502 
  29   0.0000       0.090378         2.4593 
  30   0.0000       0.141433         3.8486 
  31   0.0000       0.141619         3.8536 
  32   0.0000       0.159092         4.3291 
  33   0.0000       0.198556         5.4030 
  34   0.0000       0.200866         5.4658 
  35   0.0000       0.227729         6.1968 
  36   0.0000       0.236601         6.4382 
  37   0.0000       0.260341         7.0842 
  38   0.0000       0.263904         7.1812 
  39   0.0000       0.291771         7.9395 
  40   0.0000       0.293740         7.9931 
  41   0.0000       0.301623         8.2076 
  42   0.0000       0.311573         8.4783 
  43   0.0000       0.330919         9.0048 
  44   0.0000       0.342990         9.3332 
  45   0.0000       0.464755        12.6466 
  46   0.0000       0.467954        12.7337 
  47   0.0000       0.486493        13.2381 
  48   0.0000       0.505084        13.7440 
  49   0.0000       0.514511        14.0006 
  50   0.0000       0.518615        14.1122 
  51   0.0000       0.539861        14.6904 
  52   0.0000       0.568425        15.4676 
  53   0.0000       0.617009        16.7897 
  54   0.0000       0.647988        17.6326 
  55   0.0000       0.648124        17.6364 
  56   0.0000       0.662407        18.0250 
  57   0.0000       0.663209        18.0468 
  58   0.0000       0.686350        18.6765 
  59   0.0000       0.705364        19.1939 
  60   0.0000       0.724550        19.7160 
  61   0.0000       0.729020        19.8376 
  62   0.0000       0.750771        20.4295 
  63   0.0000       0.773436        21.0463 
  64   0.0000       0.782827        21.3018 
  65   0.0000       0.806582        21.9482 
  66   0.0000       0.876732        23.8571 
  67   0.0000       0.916465        24.9383 
  68   0.0000       1.008954        27.4550 
  69   0.0000       1.023951        27.8631 
  70   0.0000       1.265004        34.4225 
  71   0.0000       1.347815        36.6759 
  72   0.0000       1.671665        45.4883 
  73   0.0000       1.695734        46.1433 
  74   0.0000       1.718416        46.7605 
  75   0.0000       1.938983        52.7624 
  76   0.0000       1.952584        53.1325 
  77   0.0000       1.962608        53.4053 
  78   0.0000       1.974275        53.7227 
  79   0.0000       2.002416        54.4885 
  80   0.0000       2.007157        54.6175 
  81   0.0000       2.012643        54.7668 
  82   0.0000       2.022779        55.0426 
  83   0.0000       2.033932        55.3461 
  84   0.0000       2.040333        55.5203 
  85   0.0000       2.081522        56.6411 
  86   0.0000       2.092667        56.9444 
  87   0.0000       2.161379        58.8141 
  88   0.0000       2.183644        59.4200 
  89   0.0000       2.188020        59.5391 
  90   0.0000       2.189788        59.5871 
  91   0.0000       2.192927        59.6726 
  92   0.0000       2.212993        60.2186 
  93   0.0000       2.248871        61.1949 
  94   0.0000       2.347200        63.8705 
  95   0.0000       2.377291        64.6894 
  96   0.0000       2.385532        64.9136 
  97   0.0000       2.390343        65.0445 
  98   0.0000       2.406835        65.4933 
  99   0.0000       2.464144        67.0528 
 100   0.0000       2.484340        67.6023 
 101   0.0000       2.518419        68.5297 
 102   0.0000       2.556579        69.5680 
 103   0.0000       2.628667        71.5297 
 104   0.0000       2.790176        75.9245 
 105   0.0000       2.887758        78.5799 
 106   0.0000       2.934171        79.8428 
 107   0.0000       3.004564        81.7583 
 108   0.0000       3.230321        87.9015 
 109   0.0000       3.988713       108.5384 
 110   0.0000       4.125995       112.2740 
 111   0.0000       5.249777       142.8537 
 112   0.0000       5.311970       144.5461 
 113   0.0000       5.440842       148.0528 
 114   0.0000       5.453329       148.3926 
 115   0.0000       5.494260       149.5064 
 116   0.0000       5.553476       151.1178 
 117   0.0000       5.780425       157.2934 
 118   0.0000       6.596706       179.5055 
 119   0.0000       6.684605       181.8974 
 120   0.0000       6.696841       182.2303 
 121   0.0000       6.973954       189.7709 
 122   0.0000       7.128898       193.9872 
 123   0.0000       8.314322       226.2442 
 124   0.0000       8.320070       226.4006 
 125   0.0000       8.334718       226.7992 
 126   0.0000       8.336788       226.8555 
 127   0.0000       8.357328       227.4145 
 128   0.0000       8.358697       227.4517 
 129   0.0000       8.373463       227.8535 
 130   0.0000       8.413673       228.9477 
 131   0.0000       8.505267       231.4401 
 132   0.0000       8.570381       233.2119 
 133   0.0000      11.012824       299.6742 
 134   0.0000      11.024779       299.9995 
 135   0.0000      11.035969       300.3040 
 136   0.0000      11.106925       302.2348 
 137   0.0000      11.407854       310.4235 
 138   0.0000      11.498205       312.8821 
 139   0.0000      25.410565       691.4566 
 140   0.0000      25.584921       696.2011 
 141   0.0000      44.223954      1203.3950 

                    ********************************
                    * MULLIKEN POPULATION ANALYSIS *
                    ********************************

-----------------------
MULLIKEN ATOMIC CHARGES
-----------------------
   0 O :   -0.125763
   1 Cl:    0.062882
   2 Cl:    0.062881
Sum of atomic charges:   -0.0000000

--------------------------------
MULLIKEN REDUCED ORBITAL CHARGES
--------------------------------
  0 O s       :     3.781320  s :     3.781320
      pz      :     1.333531  p :     4.284052
      px      :     1.014342
      py      :     1.936179
      dz2     :     0.019633  d :     0.058513
      dxz     :     0.011504
      dyz     :     0.007429
      dx2y2   :     0.006963
      dxy     :     0.012983
      f0      :     0.000101  f :     0.001878
      f+1     :     0.000361
      f-1     :     0.000028
      f+2     :     0.000569
      f-2     :     0.000193
      f+3     :     0.000403
      f-3     :     0.000222
  1 Cls       :     6.013992  s :     6.013992
      pz      :     3.652339  p :    10.830814
      px      :     3.187022
      py      :     3.991453
      dz2     :     0.006825  d :     0.082064
      dxz     :     0.029679
      dyz     :     0.009744
      dx2y2   :     0.018631
      dxy     :     0.017185
      f0      :     0.000958  f :     0.010248
      f+1     :     0.001839
      f-1     :     0.000072
      f+2     :     0.002849
      f-2     :     0.001669
      f+3     :     0.001501
      f-3     :     0.001359
  2 Cls       :     6.013993  s :     6.013993
      pz      :     3.652339  p :    10.830814
      px      :     3.187022
      py      :     3.991453
      dz2     :     0.006825  d :     0.082064
      dxz     :     0.029679
      dyz     :     0.009744
      dx2y2   :     0.018631
      dxy     :     0.017185
      f0      :     0.000958  f :     0.010248
      f+1     :     0.001839
      f-1     :     0.000072
      f+2     :     0.002849
      f-2     :     0.001669
      f+3     :     0.001501
      f-3     :     0.001359


                     *******************************
                     * LOEWDIN POPULATION ANALYSIS *
                     *******************************

----------------------
LOEWDIN ATOMIC CHARGES
----------------------
   0 O :   -1.115196
   1 Cl:    0.557598
   2 Cl:    0.557598

-------------------------------
LOEWDIN REDUCED ORBITAL CHARGES
-------------------------------
  0 O s       :     3.617079  s :     3.617079
      pz      :     1.465916  p :     4.649414
      px      :     1.300054
      py      :     1.883444
      dz2     :     0.151557  d :     0.841620
      dxz     :     0.266260
      dyz     :     0.080162
      dx2y2   :     0.174266
      dxy     :     0.169375
      f0      :     0.000718  f :     0.007082
      f+1     :     0.001816
      f-1     :     0.000057
      f+2     :     0.001901
      f-2     :     0.000959
      f+3     :     0.000936
      f-3     :     0.000696
  1 Cls       :     5.532289  s :     5.532289
      pz      :     3.541002  p :    10.548845
      px      :     3.183202
      py      :     3.824641
      dz2     :     0.047684  d :     0.335488
      dxz     :     0.107810
      dyz     :     0.031877
      dx2y2   :     0.079560
      dxy     :     0.068557
      f0      :     0.002370  f :     0.025780
      f+1     :     0.005005
      f-1     :     0.000135
      f+2     :     0.007553
      f-2     :     0.004132
      f+3     :     0.003274
      f-3     :     0.003312
  2 Cls       :     5.532289  s :     5.532289
      pz      :     3.541002  p :    10.548845
      px      :     3.183202
      py      :     3.824641
      dz2     :     0.047684  d :     0.335488
      dxz     :     0.107810
      dyz     :     0.031877
      dx2y2   :     0.079560
      dxy     :     0.068557
      f0      :     0.002370  f :     0.025780
      f+1     :     0.005005
      f-1     :     0.000135
      f+2     :     0.007553
      f-2     :     0.004132
      f+3     :     0.003274
      f-3     :     0.003312


                      *****************************
                      * MAYER POPULATION ANALYSIS *
                      *****************************

  NA   - Mulliken gross atomic population
  ZA   - Total nuclear charge
  QA   - Mulliken gross atomic charge
  VA   - Mayer's total valence
  BVA  - Mayer's bonded valence
  FA   - Mayer's free valence

  ATOM       NA         ZA         QA         VA         BVA        FA
  0 O      8.1258     8.0000    -0.1258     1.8969     1.8969     0.0000
  1 Cl    16.9371    17.0000     0.0629     1.0021     1.0021    -0.0000
  2 Cl    16.9371    17.0000     0.0629     1.0021     1.0021    -0.0000

  Mayer bond orders larger than 0.100000
B(  0-O ,  1-Cl) :   0.9485 B(  0-O ,  2-Cl) :   0.9485 

-------
TIMINGS
-------

Total SCF time: 0 days 0 hours 2 min 46 sec 

Total time                  ....     166.998 sec
Sum of individual times     ....     165.968 sec  ( 99.4%)

Fock matrix formation       ....     161.670 sec  ( 96.8%)
  XC integration            ....     156.791 sec  ( 97.0% of F)
    Basis function eval.    ....       0.037 sec  (  0.0% of XC)
    Density eval.           ....       0.024 sec  (  0.0% of XC)
    XC-Functional eval.     ....       0.016 sec  (  0.0% of XC)
    XC-Potential eval.      ....       0.044 sec  (  0.0% of XC)
Diagonalization             ....       1.173 sec  (  0.7%)
Density matrix formation    ....       0.012 sec  (  0.0%)
Population analysis         ....       0.353 sec  (  0.2%)
Initial guess               ....       0.453 sec  (  0.3%)
Orbital Transformation      ....       0.000 sec  (  0.0%)
Orbital Orthonormalization  ....       0.000 sec  (  0.0%)
DIIS solution               ....       0.044 sec  (  0.0%)
SOSCF solution              ....       0.152 sec  (  0.1%)
Grid generation             ....       2.110 sec  (  1.3%)


           ************************************************************
           *        Program running with 28 parallel MPI-processes    *
           *              working on a common directory               *
           ************************************************************

------------------------------------------------------------------------------
                                ORCA  MP2 
------------------------------------------------------------------------------

Freezing NCore=22 chemical core electrons

-------------
RI-MP2 ENERGY
-------------
Dimension of the basis                    ...  142
Memory devoted to MP2                     ... 5000 MB   
Data format for buffers                   ... DOUBLE
Compression type for matrix containers    ... UNCOMPRESSED
Overall scaling of the MP2 energy         ...   2.700e-01
Calculating two index integrals           ... done (    0.009 sec)
Cholesky decomposition of V**-1           ... done (    0.173 sec)

-----------------
RI-TRANSFORMATION (AUX index driven)
-----------------

Dimension of the orbital-basis         ... 142
Dimension of the aux-basis             ... 370
Transformation of internal/external MOs...   11-  20 to   21- 141
Number Format for Storage              ... Double (8 Byte)
Integral mode                          ... Direct

First Phase: integral generation and transformation of MO indices
  Aux angular momentum 0               ... done (    0.001 sec)
  Aux angular momentum 1               ... done (    0.001 sec)
  Aux angular momentum 2               ... done (    0.002 sec)
  Aux angular momentum 3               ... done (    0.002 sec)
  Aux angular momentum 4               ... done (    0.003 sec)
Closing buffer VIA ( 0.00 GB; CompressionRatio= 1.00)
  Phase 1 completed in     4.639 sec
Second Phase: sorting and transformation of aux index

IA-Transformation
Memory available                       ... 4998 MB 
Max. # MO pairs treated in a batch     ... 1    
# of internal orbitals                 ... 10
# batches for internal orbitals        ... 1
Closing buffer IAV ( 0.00 GB; CompressionRatio= 1.00)
(ia|v) transformation done in     0.499 sec

  Phase 2 completed in     5.127 sec
RI-Integral transformation completed in    11.229 sec
Opening buffers                              ... done

Starting loop over batches of integrals:

Operator 0  - window                       ... ( 11- 20)x( 21-141)
Operator 0  - Memory available             ...  5000 MB
Operator 0  - Memory needed per MO         ...   0.3 MB
Operator 0  - Number of orbitals per batch ... 1
Operator 0  - Number of batches            ... 1

OPERATOR  0   PASS   0:  MOs    11 ...   11 +   12 ...   12 +   13 ...   13 +   14 ...   14
                            +   15 ...   15 +   16 ...   16 +   17 ...   17 +   18 ...   18
                            +   19 ...   19 +   20 ...   20
  Reading integrals       ... ok
Time spent in pair loops =     0.006 sec
Deleting buffer (Ka|jb)[aa] ...done

-----------------------------------------------
 RI-MP2 CORRELATION ENERGY:     -0.208973969 Eh
-----------------------------------------------


-------
TIMINGS
-------

Total time                :   12.503 sec
Integral trafo            :   11.250 sec ( 90.0%)
I/O of integrals          :    0.004 sec (  0.0%)
K(i,j) Operators          :    0.001 sec (  0.0%)
T(i,j) pair energies      :    0.000 sec (  0.0%)
V-calculation             :    0.009 sec (  0.1%)
V**(-1/2)                 :    0.173 sec (  1.4%)
Gamma(ia|P)               :    0.000 sec (  0.0%)
Gamma-Trafo               :    0.000 sec (  0.0%)
D(virtual)                :    0.000 sec (  0.0%)
D(internal)               :    0.000 sec (  0.0%)
W(virtual)                :    0.000 sec (  0.0%)
W(internal)               :    0.000 sec (  0.0%)
L(virtual)                :    0.000 sec (  0.0%)
L(internal)               :    0.000 sec (  0.0%)
G(D)                      :    0.000 sec (  0.0%)
G(Z)                      :    0.000 sec (  0.0%)
Z-Vector Solution         :    0.000 sec (  0.0%)
Z-Vector Solution         :    0.000 sec (  0.0%)
3-Index Derivative 
+ Separable RIJ part      :    0.000 sec (  0.0%)
2-Index Derivative 
+ Separable RIJ part      :    0.000 sec (  0.0%)
Separable Gradient (X)    :    0.000 sec (  0.0%)


---------------------------------------
MP2 TOTAL ENERGY:     -995.251573091 Eh
---------------------------------------


-------------------------------------------------------------------------------
                          DFT DISPERSION CORRECTION                            
                                                                               
                              DFTD3 V3.1  Rev 1                                
                          USING Becke-Johnson damping                          
-------------------------------------------------------------------------------
The B2PLYP functional is recognized
Active option DFTDOPT                   ...         4   

molecular C6(AA) [au] = 491.067589 


            DFT-D V3
 parameters
 s6 scaling factor         :     0.6400 
 a1 scaling factor         :     0.3065 
 s8 scaling factor         :     0.9147 
 a2 scaling factor         :     5.0570 
 ad hoc parameters k1-k3   :    16.0000     1.3333    -4.0000 

 Edisp/kcal,au: -1.079947762585  -0.001721006123 
 E6   /kcal   :  -0.512286330 
 E8   /kcal   :  -0.567661432 
 % E8         :  52.563786130 

-------------------------   ----------------
Dispersion correction           -0.001721006
-------------------------   ----------------


-------------------------   --------------------
FINAL SINGLE POINT ENERGY      -995.253294096991
-------------------------   --------------------


                            ***************************************
                            *     ORCA property calculations      *
                            ***************************************


  WARNING: The energy has been calculated at the MP2 level but the densities
           used in the property calculations are still SCF densities
           MP2 response densities have not been calculated 
           use %mp2 Density relaxed end
           or  %mp2 Density unrelaxed end

                                    ---------------------
                                    Active property flags
                                    ---------------------
   (+) Dipole Moment


------------------------------------------------------------------------------
                       ORCA ELECTRIC PROPERTIES CALCULATION
------------------------------------------------------------------------------

Dipole Moment Calculation                       ... on
Quadrupole Moment Calculation                   ... off
Polarizability Calculation                      ... off
GBWName                                         ... cl2o.gbw
Electron density file                           ... cl2o.scfp
The origin for moment calculation is the CENTER OF MASS  = ( 0.000000,  0.000000 -0.271758)

-------------
DIPOLE MOMENT
-------------
                                X             Y             Z
Electronic contribution:     -0.00000       0.00000      -0.73741
Nuclear contribution   :      0.00000       0.00000       0.48785
                        -----------------------------------------
Total Dipole Moment    :     -0.00000       0.00000      -0.24956
                        -----------------------------------------
Magnitude (a.u.)       :      0.24956
Magnitude (Debye)      :      0.63434



--------------------
Rotational spectrum 
--------------------
 
Rotational constants in cm-1:     1.390738     0.121097     0.111397 
Rotational constants in MHz : 41693.266231  3630.387283  3339.596254 

 Dipole components along the rotational axes: 
x,y,z [a.u.] :    -0.000000    -0.249562     0.000000 
x,y,z [Debye]:    -0.000000    -0.634337     0.000000 

 

Timings for individual modules:

Sum of individual times         ...      192.391 sec (=   3.207 min)
GTO integral calculation        ...        6.142 sec (=   0.102 min)   3.2 %
SCF iterations                  ...      170.108 sec (=   2.835 min)  88.4 %
MP2 module                      ...       16.141 sec (=   0.269 min)   8.4 %
                             ****ORCA TERMINATED NORMALLY****
TOTAL RUN TIME: 0 days 0 hours 4 minutes 6 seconds 825 msec
