
                                 *****************
                                 * O   R   C   A *
                                 *****************

           --- An Ab Initio, DFT and Semiempirical electronic structure package ---

                  #######################################################
                  #                        -***-                        #
                  #          Department of theory and spectroscopy      #
                  #               Directorship: Frank Neese             #
                  #        Max Planck Institute fuer Kohlenforschung    #
                  #                Kaiser Wilhelm Platz 1               #
                  #                 D-45470 Muelheim/Ruhr               #
                  #                      Germany                        #
                  #                                                     #
                  #                  All rights reserved                #
                  #                        -***-                        #
                  #######################################################


                         Program Version 4.2.0 -  RELEASE  -


 With contributions from (in alphabetic order):
   Daniel Aravena         : Magnetic Suceptibility
   Michael Atanasov       : Ab Initio Ligand Field Theory (pilot matlab implementation)
   Alexander A. Auer      : GIAO ZORA, VPT2
   Ute Becker             : Parallelization
   Giovanni Bistoni       : ED, misc. LED, open-shell LED, HFLED
   Martin Brehm           : Molecular dynamics
   Dmytro Bykov           : SCF Hessian
   Vijay G. Chilkuri      : MRCI spin determinant printing, contributions to CSF-ICE
   Dipayan Datta          : RHF DLPNO-CCSD density
   Achintya Kumar Dutta   : EOM-CC, STEOM-CC
   Dmitry Ganyushin       : Spin-Orbit,Spin-Spin,Magnetic field MRCI
   Miquel Garcia          : C-PCM Hessian, Gaussian charge scheme
   Yang Guo               : DLPNO-NEVPT2, CIM, IAO-localization
   Andreas Hansen         : Spin unrestricted coupled pair/coupled cluster methods
   Benjamin Helmich-Paris : CASSCF linear response (MC-RPA)
   Lee Huntington         : MR-EOM, pCC
   Robert Izsak           : Overlap fitted RIJCOSX, COSX-SCS-MP3, EOM
   Christian Kollmar      : KDIIS, OOCD, Brueckner-CCSD(T), CCSD density
   Simone Kossmann        : Meta GGA functionals, TD-DFT gradient, OOMP2, MP2 Hessian
   Martin Krupicka        : AUTO-CI
   Lucas Lang             : DCDCAS
   Dagmar Lenk            : GEPOL surface, SMD
   Dimitrios Liakos       : Extrapolation schemes; Compound Job, initial MDCI parallelization
   Dimitrios Manganas     : Further ROCIS development; embedding schemes
   Dimitrios Pantazis     : SARC Basis sets
   Taras Petrenko         : DFT Hessian,TD-DFT gradient, ASA, ECA, R-Raman, ABS, FL, XAS/XES, NRVS
   Peter Pinski           : DLPNO-MP2, DLPNO-MP2 Gradient
   Christoph Reimann      : Effective Core Potentials
   Marius Retegan         : Local ZFS, SOC
   Christoph Riplinger    : Optimizer, TS searches, QM/MM, DLPNO-CCSD(T), (RO)-DLPNO pert. Triples
   Tobias Risthaus        : Range-separated hybrids, TD-DFT gradient, RPA, STAB
   Michael Roemelt        : Original ROCIS implementation
   Masaaki Saitow         : Open-shell DLPNO-CCSD energy and density
   Barbara Sandhoefer     : DKH picture change effects
   Avijit Sen             : IP-ROCIS
   Kantharuban Sivalingam : CASSCF convergence, NEVPT2, FIC-MRCI
   Bernardo de Souza      : ESD, SOC TD-DFT
   Georgi Stoychev        : AutoAux, RI-MP2 NMR
   Willem Van den Heuvel  : Paramagnetic NMR
   Boris Wezisla          : Elementary symmetry handling
   Frank Wennmohs         : Technical directorship


 We gratefully acknowledge several colleagues who have allowed us to
 interface, adapt or use parts of their codes:
   Stefan Grimme, W. Hujo, H. Kruse,             : VdW corrections, initial TS optimization,
                  C. Bannwarth                     DFT functionals, gCP, sTDA/sTD-DF
   Ed Valeev, F. Pavosevic, A. Kumar             : LibInt (2-el integral package), F12 methods
   Garnet Chan, S. Sharma, J. Yang, R. Olivares  : DMRG
   Ulf Ekstrom                                   : XCFun DFT Library
   Mihaly Kallay                                 : mrcc  (arbitrary order and MRCC methods)
   Andreas Klamt, Michael Diedenhofen            : otool_cosmo (COSMO solvation model)
   Jiri Pittner, Ondrej Demel                    : Mk-CCSD
   Frank Weinhold                                : gennbo (NPA and NBO analysis)
   Christopher J. Cramer and Donald G. Truhlar   : smd solvation model
   Lars Goerigk                                  : TD-DFT with DH, B97 family of functionals
   V. Asgeirsson, H. Jonsson                     : NEB implementation
   FAccTs GmbH                                   : IRC, NEB, NEB-TS, Multilevel, MM, QM/MM, CI optimization
   S Lehtola, MJT Oliveira, MAL Marques          : LibXC Library


 Your calculation uses the libint2 library for the computation of 2-el integrals
 For citations please refer to: http://libint.valeyev.net

 Your ORCA version has been built with support for libXC version: 4.2.3
 For citations please refer to: https://tddft.org/programs/libxc/

 This ORCA versions uses:
   CBLAS   interface :  Fast vector & matrix operations
   LAPACKE interface :  Fast linear algebra routines
   SCALAPACK package :  Parallel linear algebra routines


Your calculation utilizes the atom-pairwise dispersion correction
with the Becke-Johnson damping scheme (D3BJ)
Cite in your paper:
S.Grimme, S.Ehrlich, L.Goerigk, J Comput Chem, (2011), 32, 1456–1465 
S.Grimme, J.Antony, S.Ehrlich and H.Krieg, J.Chem.Phys., 132, (2010), 154104 
   

----- Orbital basis set information -----
Your calculation utilizes the basis: def2-TZVPPD
   F. Weigend and R. Ahlrichs, Phys. Chem. Chem. Phys. 7, 3297 (2005).
   D. Rappoport and F. Furche, J. Chem. Phys. 133 134105 (2010).

----- AuxC basis set information -----
Your calculation utilizes the auxiliary basis: def2-TZVPPD/C
   A. Hellweg, C. Hattig, S. Hofener and W. Klopper, Theor. Chem. Acc. 117, 587 (2007).

----- AuxJK basis set information -----
Your calculation utilizes the auxiliary basis: def2/JK
   H-Ba, Hf-Rn: F. Weigend, J. Comput. Chem. 29, 167 (2008).

================================================================================
                                        WARNINGS
                       Please study these warnings very carefully!
================================================================================


WARNING: your system is open-shell and RHF/RKS was chosen
  ===> : WILL SWITCH to UHF/UKS


WARNING: No MP2 level density has been requested!
         To caclulate MP2 level properties use
         %mp2 Density relaxed end
         or
         %mp2 Density unrelaxed end
         Otherwise for double-hybrid DFT only the energy is correct!

WARNING: The frozen-core approximation is turned on by default for 
         the MP2 part of double-hybrid DFT.

INFO   : the flag for use of LIBINT has been found!

================================================================================
                                       INPUT FILE
================================================================================
NAME = Fe.in
|  1> #
|  2> # Fe ri-B2PLYP-D3BJ/Def2-TZVPPD
|  3> #
|  4> ! rijk ri-b2plyp d3bj def2-tzvppd def2/jk def2-tzvppd/c grid4 nofinalgrid
|  5> 
|  6> *xyz 0 5
|  7> Fe         0.00000        0.00000        0.00000
|  8> *
|  9> 
| 10> %maxcore 5000
| 11> 
| 12> %pal
| 13> nprocs = 28
| 14> end
| 15> 
| 16> 
| 17>                          ****END OF INPUT****
================================================================================

                       ****************************
                       * Single Point Calculation *
                       ****************************

---------------------------------
CARTESIAN COORDINATES (ANGSTROEM)
---------------------------------
  Fe     0.000000    0.000000    0.000000

----------------------------
CARTESIAN COORDINATES (A.U.)
----------------------------
  NO LB      ZA    FRAG     MASS         X           Y           Z
   0 Fe   26.0000    0    55.850    0.000000    0.000000    0.000000

--------------------------------
INTERNAL COORDINATES (ANGSTROEM)
--------------------------------
 Fe     0   0   0     0.000000000000     0.00000000     0.00000000

---------------------------
INTERNAL COORDINATES (A.U.)
---------------------------
 Fe     0   0   0     0.000000000000     0.00000000     0.00000000

---------------------
BASIS SET INFORMATION
---------------------
There are 1 groups of distinct atoms

 Group   1 Type Fe  : 17s13p7d2f1g contracted to 6s6p4d2f1g pattern {842111/631111/4111/11/1}

Atom   0Fe   basis set group =>   1
---------------------------------
AUXILIARY/C BASIS SET INFORMATION
---------------------------------
There are 1 groups of distinct atoms

 Group   1 Type Fe  : 10s10p9d7f5g3h1i contracted to 10s10p9d7f5g3h1i pattern {1111111111/1111111111/111111111/1111111/11111/111/1}

Atom   0Fe   basis set group =>   1
----------------------------------
AUXILIARY/JK BASIS SET INFORMATION
----------------------------------
There are 1 groups of distinct atoms

 Group   1 Type Fe  : 19s14p12d10f7g3h1i contracted to 16s13p11d9f5g3h1i pattern {4111111111111111/2111111111111/21111111111/211111111/31111/111/1}

Atom   0Fe   basis set group =>   1


           ************************************************************
           *        Program running with 28 parallel MPI-processes    *
           *              working on a common directory               *
           ************************************************************
------------------------------------------------------------------------------
                           ORCA GTO INTEGRAL CALCULATION
                           -- RI-GTO INTEGRALS CHOSEN --
------------------------------------------------------------------------------

                         BASIS SET STATISTICS AND STARTUP INFO

Gaussian basis set:
 # of primitive gaussian shells          ...   40
 # of primitive gaussian functions       ...  114
 # of contracted shells                  ...   19
 # of contracted basis functions         ...   67
 Highest angular momentum                ...    4
 Maximum contraction depth               ...    8
Auxiliary gaussian basis set:
 # of primitive gaussian shells          ...   66
 # of primitive gaussian functions       ...  300
 # of contracted shells                  ...   58
 # of contracted aux-basis functions     ...  264
 Highest angular momentum                ...    6
 Maximum contraction depth               ...    4
Ratio of auxiliary to basis functions    ...  3.94
Integral package used                  ... LIBINT
 One Electron integrals                  ... done
 Ordering auxiliary basis shells         ... done
 Integral threshhold             Thresh  ...  1.000e-10
 Primitive cut-off               TCut    ...  1.000e-11
 Pre-screening matrix                    ... done
 Shell pair data                         ... 
 Ordering of the shell pairs             ... done (   0.000 sec) 190 of 190 pairs
 Determination of significant pairs      ... done (   0.000 sec)
 Creation of shell pair data             ... done (   0.000 sec)
 Storage of shell pair data              ... done (   0.043 sec)
 Shell pair data done in (   0.043 sec)
 Computing two index integrals           ... done
 Cholesky decomposition of the V-matrix  ... done


Timings:
 Total evaluation time                   ...   0.570 sec (  0.009 min)
 One electron matrix time                ...   0.122 sec (  0.002 min) = 21.4%
 Schwartz matrix evaluation time         ...   0.130 sec (  0.002 min) = 22.8%
 Two index repulsion integral time       ...   0.101 sec (  0.002 min) = 17.8%
 Cholesky decomposition of V             ...   0.093 sec (  0.002 min) = 16.3%
 Three index repulsion integral time     ...   0.000 sec (  0.000 min) =  0.0%



           ************************************************************
           *        Program running with 28 parallel MPI-processes    *
           *              working on a common directory               *
           ************************************************************
-------------------------------------------------------------------------------
                                 ORCA SCF
-------------------------------------------------------------------------------

------------
SCF SETTINGS
------------
Hamiltonian:
 Density Functional     Method          .... DFT(GTOs)
 Exchange Functional    Exchange        .... B88
   X-Alpha parameter    XAlpha          ....  0.666667
   Becke's b parameter  XBeta           ....  0.004200
 Correlation Functional Correlation     .... LYP
 LDA part of GGA corr.  LDAOpt          .... VWN-3
 Gradients option       PostSCFGGA      .... off
 Hybrid DFT is turned on
   Fraction HF Exchange ScalHFX         ....  0.530000
   Scaling of DF-GGA-X  ScalDFX         ....  0.470000
   Scaling of DF-GGA-C  ScalDFC         ....  0.730000
   Scaling of DF-LDA-C  ScalLDAC        ....  0.730000
   Perturbative correction              ....  0.270000
   Density functional embedding theory  .... OFF
 RI-approximation to the Coulomb term is turned on
   Number of auxiliary basis functions  .... 264
   RI-JK (J+K treated both via RI)      .... on


General Settings:
 Integral files         IntName         .... Fe
 Hartree-Fock type      HFTyp           .... UHF
 Total Charge           Charge          ....    0
 Multiplicity           Mult            ....    5
 Number of Electrons    NEL             ....   26
 Basis Dimension        Dim             ....   67
 Nuclear Repulsion      ENuc            ....      0.0000000000 Eh

Convergence Acceleration:
 DIIS                   CNVDIIS         .... on
   Start iteration      DIISMaxIt       ....    12
   Startup error        DIISStart       ....  0.200000
   # of expansion vecs  DIISMaxEq       ....     5
   Bias factor          DIISBfac        ....   1.050
   Max. coefficient     DIISMaxC        ....  10.000
 Newton-Raphson         CNVNR           .... off
 SOSCF                  CNVSOSCF        .... off
 Level Shifting         CNVShift        .... on
   Level shift para.    LevelShift      ....    0.2500
   Turn off err/grad.   ShiftErr        ....    0.0010
 Zerner damping         CNVZerner       .... off
 Static damping         CNVDamp         .... on
   Fraction old density DampFac         ....    0.7000
   Max. Damping (<1)    DampMax         ....    0.9800
   Min. Damping (>=0)   DampMin         ....    0.0000
   Turn off err/grad.   DampErr         ....    0.1000
 Fernandez-Rico         CNVRico         .... off

SCF Procedure:
 Maximum # iterations   MaxIter         ....   125
 SCF integral mode      SCFMode         .... Direct
   Integral package                     .... LIBINT
 Reset frequency        DirectResetFreq ....    20
 Integral Threshold     Thresh          ....  1.000e-10 Eh
 Primitive CutOff       TCut            ....  1.000e-11 Eh

Convergence Tolerance:
 Convergence Check Mode ConvCheckMode   .... Total+1el-Energy
 Convergence forced     ConvForced      .... 0
 Energy Change          TolE            ....  1.000e-06 Eh
 1-El. energy change                    ....  1.000e-03 Eh
 DIIS Error             TolErr          ....  1.000e-06


Diagonalization of the overlap matrix:
Smallest eigenvalue                        ... 4.159e-02
Time for diagonalization                   ...    0.047 sec
Threshold for overlap eigenvalues          ... 1.000e-08
Number of eigenvalues below threshold      ... 0
Time for construction of square roots      ...    0.009 sec
Total time needed                          ...    0.056 sec

-------------------
DFT GRID GENERATION
-------------------

General Integration Accuracy     IntAcc      ...  4.670
Radial Grid Type                 RadialGrid  ... Gauss-Chebyshev
Angular Grid (max. acc.)         AngularGrid ... Lebedev-302
Angular grid pruning method      GridPruning ... 3 (G Style)
Weight generation scheme         WeightScheme... Becke
Basis function cutoff            BFCut       ...    1.0000e-10
Integration weight cutoff        WCut        ...    1.0000e-14
Grids for H and He will be reduced by one unit

# of grid points (after initial pruning)     ...   9640 (   0.0 sec)
# of grid points (after weights+screening)   ...   9640 (   0.0 sec)
Grid point division into batches done        ...    0.1 sec
Reduced shell lists constructed in    0.1 sec

Total number of grid points                  ...     9640
Total number of batches                      ...      151
Average number of points per batch           ...       63
Average number of grid points per atom       ...     9640
Average number of shells per batch           ...     3.43 (18.05%)
Average number of basis functions per batch  ...    10.29 (15.35%)
Average number of large shells per batch     ...     1.71 (50.00%)
Average number of large basis fcns per batch ...     3.43 (33.33%)
Average number of aux-shells per batch       ...     3.43 ( 5.91%)
Average number of aux functions per batch    ...    10.29 ( 3.90%)
Maximum spatial batch extension              ...  22.27, 22.27, 22.27 au
Average spatial batch extension              ...   0.78,  0.77,  0.74 au

Time for grid setup =    0.973 sec

------------------------------
INITIAL GUESS: MODEL POTENTIAL
------------------------------
Loading Hartree-Fock densities                     ... done
Calculating cut-offs                               ... done
Setting up the integral package                    ... done
Initializing the effective Hamiltonian             ... done
Starting the Coulomb interaction                   ... done (   0.0 sec)
Reading the grid                                   ... done
Mapping shells                                     ... done
Starting the XC term evaluation                    ... done (   0.0 sec)
  promolecular density results
     # of electrons  =     25.999994076
     EX              =    -54.327894673
     EC              =     -0.440174941
     EX+EC           =    -54.768069614
Transforming the Hamiltonian                       ... done (   0.1 sec)
Diagonalizing the Hamiltonian                      ... done (   0.0 sec)
Back transforming the eigenvectors                 ... done (   0.0 sec)
Now organizing SCF variables                       ... done
                      ------------------
                      INITIAL GUESS DONE (   2.0 sec)
                      ------------------
--------------
SCF ITERATIONS
--------------
ITER       Energy         Delta-E        Max-DP      RMS-DP      [F,P]     Damp
  0  -1263.2696974536   0.000000000000 0.03495589  0.00073296  0.1540662 0.7000
  1  -1263.1842651348   0.085432318803 0.04066230  0.00066261  0.0960131 0.7000
                               ***Turning on DIIS***
  2  -1263.2186526371  -0.034387502299 0.11156191  0.00159434  0.0275883 0.0000
  3  -1263.2914580825  -0.072805445435 0.00733170  0.00032410  0.0548766 0.0000
  4  -1263.2940865409  -0.002628458395 0.00772958  0.00017839  0.0074407 0.0000
  5  -1263.2943279506  -0.000241409658 0.00865022  0.00014251  0.0023871 0.0000
  6  -1263.2944240958  -0.000096145220 0.00566346  0.00009772  0.0021860 0.0000
  7  -1263.2944906854  -0.000066589596 0.00376323  0.00008025  0.0019454 0.0000
  8  -1263.2945568804  -0.000066194994 0.00320463  0.00008414  0.0017146 0.0000
  9  -1263.2946316544  -0.000074774009 0.00261435  0.00006619  0.0014650 0.0000
 10  -1263.2946817688  -0.000050114425 0.00325908  0.00007945  0.0011978 0.0000
 11  -1263.2947291288  -0.000047359942 0.00368081  0.00009441  0.0009165 0.0000
 12  -1263.2947665034  -0.000037374685 0.00373367  0.00009201  0.0004002 0.0000
 13  -1263.2947792301  -0.000012726667 0.00027136  0.00000797  0.0000993 0.0000
                 **** Energy Check signals convergence ****

               *****************************************************
               *                     SUCCESS                       *
               *           SCF CONVERGED AFTER  14 CYCLES          *
               *****************************************************


----------------
TOTAL SCF ENERGY
----------------

Total Energy       :        -1263.29477937 Eh          -34375.99859 eV

Components:
Nuclear Repulsion  :            0.00000000 Eh               0.00000 eV
Electronic Energy  :        -1263.29477937 Eh          -34375.99859 eV
One Electron Energy:        -1748.84682742 Eh          -47588.54153 eV
Two Electron Energy:          485.55204806 Eh           13212.54294 eV

Virial components:
Potential Energy   :        -2525.16704998 Eh          -68713.28875 eV
Kinetic Energy     :         1261.87227061 Eh           34337.29016 eV
Virial Ratio       :            2.00112730


DFT components:
N(Alpha)           :       15.000000545868 electrons
N(Beta)            :       11.000000547753 electrons
N(Total)           :       26.000001093620 electrons
E(X)               :      -25.692793692434 Eh       
E(C)               :       -0.848564689991 Eh       
E(XC)              :      -26.541358382425 Eh       
DFET-embed. en.    :        0.000000000000 Eh       

---------------
SCF CONVERGENCE
---------------

  Last Energy change         ...   -1.3634e-07  Tolerance :   1.0000e-06
  Last MAX-Density change    ...    1.0356e-04  Tolerance :   1.0000e-05
  Last RMS-Density change    ...    2.0689e-06  Tolerance :   1.0000e-06
  Last DIIS Error            ...    5.0539e-05  Tolerance :   1.0000e-06

             **** THE GBW FILE WAS UPDATED (Fe.gbw) ****
             **** DENSITY FILE WAS UPDATED (Fe.scfp) ****
             **** ENERGY FILE WAS UPDATED (Fe.en.tmp) ****
----------------------
UHF SPIN CONTAMINATION
----------------------

Warning: in a DFT calculation there is little theoretical justification to 
         calculate <S**2> as in Hartree-Fock theory. We will do it anyways
         but you should keep in mind that the values have only limited relevance

Expectation value of <S**2>     :     6.005035
Ideal value S*(S+1) for S=2.0   :     6.000000
Deviation                       :     0.005035

             **** THE GBW FILE WAS UPDATED (Fe.gbw) ****
             **** DENSITY FILE WAS UPDATED (Fe.scfp) ****
----------------
ORBITAL ENERGIES
----------------
                 SPIN UP ORBITALS
  NO   OCC          E(Eh)            E(eV) 
   0   1.0000    -258.159926     -7024.8887 
   1   1.0000     -30.687888      -835.0599 
   2   1.0000     -26.389127      -718.0847 
   3   1.0000     -26.389060      -718.0828 
   4   1.0000     -26.389005      -718.0813 
   5   1.0000      -3.689075      -100.3848 
   6   1.0000      -2.398062       -65.2546 
   7   1.0000      -2.397921       -65.2508 
   8   1.0000      -2.397786       -65.2471 
   9   1.0000      -0.332772        -9.0552 
  10   1.0000      -0.332705        -9.0534 
  11   1.0000      -0.332660        -9.0521 
  12   1.0000      -0.292919        -7.9707 
  13   1.0000      -0.292899        -7.9702 
  14   1.0000      -0.201527        -5.4838 
  15   0.0000       0.006792         0.1848 
  16   0.0000       0.006799         0.1850 
  17   0.0000       0.006823         0.1857 
  18   0.0000       0.143267         3.8985 
  19   0.0000       0.143274         3.8987 
  20   0.0000       0.143304         3.8995 
  21   0.0000       0.159958         4.3527 
  22   0.0000       0.224505         6.1091 
  23   0.0000       0.224525         6.1096 
  24   0.0000       0.224527         6.1097 
  25   0.0000       0.227126         6.1804 
  26   0.0000       0.227143         6.1809 
  27   0.0000       0.622548        16.9404 
  28   0.0000       0.622550        16.9405 
  29   0.0000       0.622617        16.9423 
  30   0.0000       0.988556        26.9000 
  31   0.0000       0.988607        26.9014 
  32   0.0000       0.988609        26.9014 
  33   0.0000       1.003006        27.2932 
  34   0.0000       1.003040        27.2941 
  35   0.0000       2.473465        67.3064 
  36   0.0000       2.489381        67.7395 
  37   0.0000       2.489457        67.7416 
  38   0.0000       2.489530        67.7435 
  39   0.0000       2.500652        68.0462 
  40   0.0000       2.500656        68.0463 
  41   0.0000       2.500711        68.0478 
  42   0.0000       2.585643        70.3589 
  43   0.0000       2.585681        70.3600 
  44   0.0000       2.585789        70.3629 
  45   0.0000       2.725146        74.1550 
  46   0.0000       3.692829       100.4870 
  47   0.0000       3.692886       100.4885 
  48   0.0000       3.692916       100.4893 
  49   0.0000       3.721352       101.2631 
  50   0.0000       3.721373       101.2637 
  51   0.0000       8.782258       238.9774 
  52   0.0000       8.782305       238.9787 
  53   0.0000       8.782364       238.9803 
  54   0.0000       8.803918       239.5668 
  55   0.0000       8.803927       239.5670 
  56   0.0000       8.811350       239.7690 
  57   0.0000       8.811362       239.7693 
  58   0.0000       8.811377       239.7697 
  59   0.0000       8.821361       240.0414 
  60   0.0000       9.493035       258.3186 
  61   0.0000       9.521823       259.1020 
  62   0.0000       9.521954       259.1055 
  63   0.0000       9.522083       259.1091 
  64   0.0000       9.545085       259.7350 
  65   0.0000       9.545158       259.7370 
  66   0.0000       9.545211       259.7384 

                 SPIN DOWN ORBITALS
  NO   OCC          E(Eh)            E(eV) 
   0   1.0000    -258.157133     -7024.8127 
   1   1.0000     -30.619848      -833.2084 
   2   1.0000     -26.328160      -716.4257 
   3   1.0000     -26.328136      -716.4250 
   4   1.0000     -26.328130      -716.4248 
   5   1.0000      -3.502896       -95.3187 
   6   1.0000      -2.188375       -59.5487 
   7   1.0000      -2.188343       -59.5478 
   8   1.0000      -2.188289       -59.5464 
   9   1.0000      -0.218391        -5.9427 
  10   1.0000      -0.218345        -5.9415 
  11   0.0000      -0.046386        -1.2622 
  12   0.0000       0.026128         0.7110 
  13   0.0000       0.026149         0.7115 
  14   0.0000       0.026167         0.7120 
  15   0.0000       0.146153         3.9770 
  16   0.0000       0.146182         3.9778 
  17   0.0000       0.146249         3.9796 
  18   0.0000       0.168836         4.5942 
  19   0.0000       0.168853         4.5947 
  20   0.0000       0.168874         4.5953 
  21   0.0000       0.197614         5.3774 
  22   0.0000       0.237464         6.4617 
  23   0.0000       0.237476         6.4621 
  24   0.0000       0.303132         8.2486 
  25   0.0000       0.303162         8.2495 
  26   0.0000       0.303224         8.2511 
  27   0.0000       0.657566        17.8933 
  28   0.0000       0.657586        17.8938 
  29   0.0000       0.657595        17.8941 
  30   0.0000       1.033234        28.1157 
  31   0.0000       1.033238        28.1158 
  32   0.0000       1.093097        29.7447 
  33   0.0000       1.093152        29.7462 
  34   0.0000       1.093201        29.7475 
  35   0.0000       2.562945        69.7413 
  36   0.0000       2.562978        69.7422 
  37   0.0000       2.563024        69.7434 
  38   0.0000       2.584637        70.3316 
  39   0.0000       2.584647        70.3318 
  40   0.0000       2.584668        70.3324 
  41   0.0000       2.611473        71.0618 
  42   0.0000       2.656209        72.2791 
  43   0.0000       2.656230        72.2797 
  44   0.0000       2.656266        72.2807 
  45   0.0000       2.812063        76.5201 
  46   0.0000       3.767017       102.5058 
  47   0.0000       3.767025       102.5060 
  48   0.0000       3.830979       104.2462 
  49   0.0000       3.831041       104.2479 
  50   0.0000       3.831095       104.2494 
  51   0.0000       8.882085       241.6938 
  52   0.0000       8.885885       241.7972 
  53   0.0000       8.885915       241.7981 
  54   0.0000       8.885934       241.7986 
  55   0.0000       8.892048       241.9649 
  56   0.0000       8.892051       241.9650 
  57   0.0000       8.907225       242.3779 
  58   0.0000       8.907233       242.3781 
  59   0.0000       8.907244       242.3784 
  60   0.0000       9.650102       262.5926 
  61   0.0000       9.650157       262.5941 
  62   0.0000       9.650208       262.5955 
  63   0.0000       9.679321       263.3877 
  64   0.0000       9.679338       263.3882 
  65   0.0000       9.679364       263.3889 
  66   0.0000       9.720752       264.5151 

                    ********************************
                    * MULLIKEN POPULATION ANALYSIS *
                    ********************************

--------------------------------------------
MULLIKEN ATOMIC CHARGES AND SPIN POPULATIONS
--------------------------------------------
   0 Fe:   -0.000000    4.000000
Sum of atomic charges         :   -0.0000000
Sum of atomic spin populations:    4.0000000

-----------------------------------------------------
MULLIKEN REDUCED ORBITAL CHARGES AND SPIN POPULATIONS
-----------------------------------------------------
CHARGE
  0 Fes       :     6.999980  s :     6.999980
      pz      :     3.999854  p :    11.999561
      px      :     3.999853
      py      :     3.999854
      dz2     :     1.987500  d :     6.999968
      dxz     :     1.014472
      dyz     :     1.002153
      dx2y2   :     1.911493
      dxy     :     1.084350
      f0      :     0.000144  f :     0.000439
      f+1     :     0.000056
      f-1     :     0.000055
      f+2     :     0.000002
      f-2     :     0.000000
      f+3     :     0.000091
      f-3     :     0.000091
      g0      :     0.000017  g :     0.000051
      g+1     :     0.000001
      g-1     :     0.000000
      g+2     :     0.000012
      g-2     :     0.000002
      g+3     :     0.000001
      g-3     :     0.000001
      g+4     :     0.000011
      g-4     :     0.000005

SPIN
  0 Fes       :     1.000005  s :     1.000005
      pz      :     0.000119  p :     0.000358
      px      :     0.000119
      py      :     0.000119
      dz2     :     0.012490  d :     3.000003
      dxz     :     0.985525
      dyz     :     0.997844
      dx2y2   :     0.088497
      dxy     :     0.915646
      f0      :    -0.000118  f :    -0.000358
      f+1     :    -0.000045
      f-1     :    -0.000045
      f+2     :    -0.000002
      f-2     :    -0.000000
      f+3     :    -0.000074
      f-3     :    -0.000074
      g0      :    -0.000005  g :    -0.000008
      g+1     :    -0.000000
      g-1     :     0.000000
      g+2     :    -0.000002
      g-2     :     0.000001
      g+3     :     0.000001
      g-3     :     0.000001
      g+4     :    -0.000003
      g-4     :    -0.000001


                     *******************************
                     * LOEWDIN POPULATION ANALYSIS *
                     *******************************

-------------------------------------------
LOEWDIN ATOMIC CHARGES AND SPIN POPULATIONS
-------------------------------------------
   0 Fe:   -0.000000    4.000000

----------------------------------------------------
LOEWDIN REDUCED ORBITAL CHARGES AND SPIN POPULATIONS
----------------------------------------------------
CHARGE
  0 Fes       :     6.999980  s :     6.999980
      pz      :     3.999854  p :    11.999561
      px      :     3.999853
      py      :     3.999854
      dz2     :     1.987500  d :     6.999968
      dxz     :     1.014472
      dyz     :     1.002153
      dx2y2   :     1.911493
      dxy     :     1.084350
      f0      :     0.000144  f :     0.000439
      f+1     :     0.000056
      f-1     :     0.000055
      f+2     :     0.000002
      f-2     :     0.000000
      f+3     :     0.000091
      f-3     :     0.000091
      g0      :     0.000017  g :     0.000051
      g+1     :     0.000001
      g-1     :     0.000000
      g+2     :     0.000012
      g-2     :     0.000002
      g+3     :     0.000001
      g-3     :     0.000001
      g+4     :     0.000011
      g-4     :     0.000005

SPIN
  0 Fes       :     1.000005  s :     1.000005
      pz      :     0.000119  p :     0.000358
      px      :     0.000119
      py      :     0.000119
      dz2     :     0.012490  d :     3.000003
      dxz     :     0.985525
      dyz     :     0.997844
      dx2y2   :     0.088497
      dxy     :     0.915646
      f0      :    -0.000118  f :    -0.000358
      f+1     :    -0.000045
      f-1     :    -0.000045
      f+2     :    -0.000002
      f-2     :    -0.000000
      f+3     :    -0.000074
      f-3     :    -0.000074
      g0      :    -0.000005  g :    -0.000008
      g+1     :    -0.000000
      g-1     :     0.000000
      g+2     :    -0.000002
      g-2     :     0.000001
      g+3     :     0.000001
      g-3     :     0.000001
      g+4     :    -0.000003
      g-4     :    -0.000001


                      *****************************
                      * MAYER POPULATION ANALYSIS *
                      *****************************

  NA   - Mulliken gross atomic population
  ZA   - Total nuclear charge
  QA   - Mulliken gross atomic charge
  VA   - Mayer's total valence
  BVA  - Mayer's bonded valence
  FA   - Mayer's free valence

  ATOM       NA         ZA         QA         VA         BVA        FA
  0 Fe    26.0000    26.0000    -0.0000     4.0101     0.0000     4.0101

  Mayer bond orders larger than 0.100000


-------
TIMINGS
-------

Total SCF time: 0 days 0 hours 3 min 19 sec 

Total time                  ....     199.557 sec
Sum of individual times     ....     198.343 sec  ( 99.4%)

Fock matrix formation       ....     192.762 sec  ( 96.6%)
  XC integration            ....     186.338 sec  ( 96.7% of F)
    Basis function eval.    ....       0.010 sec  (  0.0% of XC)
    Density eval.           ....       0.010 sec  (  0.0% of XC)
    XC-Functional eval.     ....       0.018 sec  (  0.0% of XC)
    XC-Potential eval.      ....       0.016 sec  (  0.0% of XC)
Diagonalization             ....       2.710 sec  (  1.4%)
Density matrix formation    ....       0.010 sec  (  0.0%)
Population analysis         ....       0.685 sec  (  0.3%)
Initial guess               ....       1.023 sec  (  0.5%)
Orbital Transformation      ....       0.000 sec  (  0.0%)
Orbital Orthonormalization  ....       0.000 sec  (  0.0%)
DIIS solution               ....       0.181 sec  (  0.1%)
Grid generation             ....       0.973 sec  (  0.5%)


           ************************************************************
           *        Program running with 28 parallel MPI-processes    *
           *              working on a common directory               *
           ************************************************************

------------------------------------------------------------------------------
                                ORCA  MP2 
------------------------------------------------------------------------------

Freezing NCore=10 chemical core electrons

-------------
RI-MP2 ENERGY
-------------
Dimension of the basis                    ...   67
Memory devoted to MP2                     ... 5000 MB   
Data format for buffers                   ... DOUBLE
Compression type for matrix containers    ... UNCOMPRESSED
Overall scaling of the MP2 energy         ...   2.700e-01
Calculating two index integrals           ... done (    0.014 sec)
Cholesky decomposition of V**-1           ... done (    0.125 sec)

-----------------
RI-TRANSFORMATION (AUX index driven)
-----------------

Dimension of the orbital-basis         ... 67
Dimension of the aux-basis             ... 225
Transformation of internal/external MOs...    5-  14 to   15-  66
Number Format for Storage              ... Double (8 Byte)
Integral mode                          ... Direct

First Phase: integral generation and transformation of MO indices
  Aux angular momentum 0               ... done (    0.001 sec)
  Aux angular momentum 1               ... done (    0.002 sec)
  Aux angular momentum 2               ... done (    0.001 sec)
  Aux angular momentum 3               ... done (    0.001 sec)
  Aux angular momentum 4               ... done (    0.001 sec)
  Aux angular momentum 5               ... done (    0.002 sec)
  Aux angular momentum 6               ... done (    0.003 sec)
Closing buffer VIA ( 0.00 GB; CompressionRatio= 1.00)
  Phase 1 completed in     3.900 sec
Second Phase: sorting and transformation of aux index

IA-Transformation
Memory available                       ... 5000 MB 
Max. # MO pairs treated in a batch     ... 1    
# of internal orbitals                 ... 10
# batches for internal orbitals        ... 1
Closing buffer IAV ( 0.00 GB; CompressionRatio= 1.00)
(ia|v) transformation done in     0.105 sec

  Phase 2 completed in     3.400 sec
RI-Integral transformation completed in     8.275 sec

-----------------
RI-TRANSFORMATION (AUX index driven)
-----------------

Dimension of the orbital-basis         ... 67
Dimension of the aux-basis             ... 225
Transformation of internal/external MOs...    5-  10 to   11-  66
Number Format for Storage              ... Double (8 Byte)
Integral mode                          ... Direct

First Phase: integral generation and transformation of MO indices
  Aux angular momentum 0               ... done (    0.000 sec)
  Aux angular momentum 1               ... done (    0.002 sec)
  Aux angular momentum 2               ... done (    0.001 sec)
  Aux angular momentum 3               ... done (    0.001 sec)
  Aux angular momentum 4               ... done (    0.001 sec)
  Aux angular momentum 5               ... done (    0.002 sec)
  Aux angular momentum 6               ... done (    0.003 sec)
Closing buffer VIA ( 0.00 GB; CompressionRatio= 1.00)
  Phase 1 completed in     2.212 sec
Second Phase: sorting and transformation of aux index

IA-Transformation
Memory available                       ... 5000 MB 
Max. # MO pairs treated in a batch     ... 1    
# of internal orbitals                 ... 6
# batches for internal orbitals        ... 1
Closing buffer IAV ( 0.00 GB; CompressionRatio= 1.00)
(ia|v) transformation done in     0.698 sec

  Phase 2 completed in     2.082 sec
RI-Integral transformation completed in     4.999 sec
Opening buffers                              ... done

Starting loop over batches of integrals:

Operator 0  - window                       ... (  5- 14)x( 15- 66)
Operator 0  - Memory available             ...  5000 MB
Operator 0  - Memory needed per MO         ...   0.1 MB
Operator 0  - Number of orbitals per batch ... 1
Operator 0  - Number of batches            ... 1

OPERATOR  0   PASS   0:  MOs     5 ...    5 +    6 ...    6 +    7 ...    7 +    8 ...    8
                            +    9 ...    9 +   10 ...   10 +   11 ...   11 +   12 ...   12
                            +   13 ...   13 +   14 ...   14
  Reading integrals       ... ok

Operator 1  - window                       ... (  5- 10)x( 11- 66)
Operator 1  - Memory available             ...  5000 MB
Operator 1  - Memory needed per MO         ...   0.1 MB
Operator 1  - Number of orbitals per batch ... 1
Operator 1  - Number of batches            ... 1

OPERATOR  1   PASS   0:  MOs     5 ...    5 +    6 ...    6 +    7 ...    7 +    8 ...    8
                            +    9 ...    9 +   10 ...   10
  Reading integrals       ... ok
Time spent in pair loops =     0.327 sec
Deleting buffer (Ka|jb)[aa] ...done
Deleting buffer (Ka|jb)[ab] ...done
Deleting buffer (Ka|jb)[ba] ...done
Deleting buffer (Ka|jb)[bb] ...done

Correlation energy components}
 E2 and T2 for alpha/alpha pairs :     -0.046809047 Eh      0.000000000
 E2 and T2 for beta/beta   pairs :     -0.016019384 Eh      0.000000000
 E2 and T2 for alpha/beta  pairs :     -0.117893463 Eh      0.000000000


-----------------------------------------------
 RI-MP2 CORRELATION ENERGY:     -0.180721895 Eh
-----------------------------------------------


-------
TIMINGS
-------

Total time                :   15.420 sec
Integral trafo            :   13.306 sec ( 86.3%)
I/O of integrals          :    0.001 sec (  0.0%)
K(i,j) Operators          :    0.001 sec (  0.0%)
T(i,j) pair energies      :    0.000 sec (  0.0%)
V-calculation             :    0.014 sec (  0.1%)
V**(-1/2)                 :    0.125 sec (  0.8%)
Gamma(ia|P)               :    0.000 sec (  0.0%)
Gamma-Trafo               :    0.000 sec (  0.0%)
D(virtual)                :    0.000 sec (  0.0%)
D(internal)               :    0.000 sec (  0.0%)
W(virtual)                :    0.000 sec (  0.0%)
W(internal)               :    0.000 sec (  0.0%)
L(virtual)                :    0.000 sec (  0.0%)
L(internal)               :    0.000 sec (  0.0%)
G(D)                      :    0.000 sec (  0.0%)
G(Z)                      :    0.000 sec (  0.0%)
Z-Vector Solution         :    0.000 sec (  0.0%)
Z-Vector Solution         :    0.000 sec (  0.0%)
3-Index Derivative 
+ Separable RIJ part      :    0.000 sec (  0.0%)
2-Index Derivative 
+ Separable RIJ part      :    0.000 sec (  0.0%)
Separable Gradient (X)    :    0.000 sec (  0.0%)


---------------------------------------
MP2 TOTAL ENERGY:    -1263.475501261 Eh
---------------------------------------


-------------------------------------------------------------------------------
                          DFT DISPERSION CORRECTION                            
                                                                               
                              DFTD3 V3.1  Rev 1                                
                          USING Becke-Johnson damping                          
-------------------------------------------------------------------------------
The B2PLYP functional is recognized
Active option DFTDOPT                   ...         4   

molecular C6(AA) [au] = 491.327720 


            DFT-D V3
 parameters
 s6 scaling factor         :     0.6400 
 a1 scaling factor         :     0.3065 
 s8 scaling factor         :     0.9147 
 a2 scaling factor         :     5.0570 
 ad hoc parameters k1-k3   :    16.0000     1.3333    -4.0000 

 Edisp/kcal,au: -0.000000000000  -0.000000000000 
 E6   /kcal   :  -0.000000000 
 E8   /kcal   :  -0.000000000 
 % E8         :          -nan 

-------------------------   ----------------
Dispersion correction            0.000000000
-------------------------   ----------------


-------------------------   --------------------
FINAL SINGLE POINT ENERGY     -1263.475501261017
-------------------------   --------------------


                            ***************************************
                            *     ORCA property calculations      *
                            ***************************************


  WARNING: The energy has been calculated at the MP2 level but the densities
           used in the property calculations are still SCF densities
           MP2 response densities have not been calculated 
           use %mp2 Density relaxed end
           or  %mp2 Density unrelaxed end

                                    ---------------------
                                    Active property flags
                                    ---------------------
   (+) Dipole Moment


------------------------------------------------------------------------------
                       ORCA ELECTRIC PROPERTIES CALCULATION
------------------------------------------------------------------------------

Dipole Moment Calculation                       ... on
Quadrupole Moment Calculation                   ... off
Polarizability Calculation                      ... off
GBWName                                         ... Fe.gbw
Electron density file                           ... Fe.scfp
The origin for moment calculation is the CENTER OF MASS  = ( 0.000000,  0.000000  0.000000)

-------------
DIPOLE MOMENT
-------------
                                X             Y             Z
Electronic contribution:      0.00000       0.00000       0.00000
Nuclear contribution   :      0.00000       0.00000       0.00000
                        -----------------------------------------
Total Dipole Moment    :      0.00000       0.00000       0.00000
                        -----------------------------------------
Magnitude (a.u.)       :      0.00000
Magnitude (Debye)      :      0.00000



--------------------
Rotational spectrum 
--------------------
 
Rotational constants in cm-1:     0.000000     0.000000     0.000000 
Rotational constants in MHz :     0.000000     0.000000     0.000000 

 Dipole components along the rotational axes: 
x,y,z [a.u.] :     0.000000     0.000000     0.000000 
x,y,z [Debye]:     0.000000     0.000000     0.000000 

 

Timings for individual modules:

Sum of individual times         ...      228.339 sec (=   3.806 min)
GTO integral calculation        ...        6.257 sec (=   0.104 min)   2.7 %
SCF iterations                  ...      202.721 sec (=   3.379 min)  88.8 %
MP2 module                      ...       19.362 sec (=   0.323 min)   8.5 %
                             ****ORCA TERMINATED NORMALLY****
TOTAL RUN TIME: 0 days 0 hours 4 minutes 9 seconds 149 msec
