
                                 *****************
                                 * O   R   C   A *
                                 *****************

           --- An Ab Initio, DFT and Semiempirical electronic structure package ---

                  #######################################################
                  #                        -***-                        #
                  #          Department of theory and spectroscopy      #
                  #               Directorship: Frank Neese             #
                  #        Max Planck Institute fuer Kohlenforschung    #
                  #                Kaiser Wilhelm Platz 1               #
                  #                 D-45470 Muelheim/Ruhr               #
                  #                      Germany                        #
                  #                                                     #
                  #                  All rights reserved                #
                  #                        -***-                        #
                  #######################################################


                         Program Version 4.2.0 -  RELEASE  -


 With contributions from (in alphabetic order):
   Daniel Aravena         : Magnetic Suceptibility
   Michael Atanasov       : Ab Initio Ligand Field Theory (pilot matlab implementation)
   Alexander A. Auer      : GIAO ZORA, VPT2
   Ute Becker             : Parallelization
   Giovanni Bistoni       : ED, misc. LED, open-shell LED, HFLED
   Martin Brehm           : Molecular dynamics
   Dmytro Bykov           : SCF Hessian
   Vijay G. Chilkuri      : MRCI spin determinant printing, contributions to CSF-ICE
   Dipayan Datta          : RHF DLPNO-CCSD density
   Achintya Kumar Dutta   : EOM-CC, STEOM-CC
   Dmitry Ganyushin       : Spin-Orbit,Spin-Spin,Magnetic field MRCI
   Miquel Garcia          : C-PCM Hessian, Gaussian charge scheme
   Yang Guo               : DLPNO-NEVPT2, CIM, IAO-localization
   Andreas Hansen         : Spin unrestricted coupled pair/coupled cluster methods
   Benjamin Helmich-Paris : CASSCF linear response (MC-RPA)
   Lee Huntington         : MR-EOM, pCC
   Robert Izsak           : Overlap fitted RIJCOSX, COSX-SCS-MP3, EOM
   Christian Kollmar      : KDIIS, OOCD, Brueckner-CCSD(T), CCSD density
   Simone Kossmann        : Meta GGA functionals, TD-DFT gradient, OOMP2, MP2 Hessian
   Martin Krupicka        : AUTO-CI
   Lucas Lang             : DCDCAS
   Dagmar Lenk            : GEPOL surface, SMD
   Dimitrios Liakos       : Extrapolation schemes; Compound Job, initial MDCI parallelization
   Dimitrios Manganas     : Further ROCIS development; embedding schemes
   Dimitrios Pantazis     : SARC Basis sets
   Taras Petrenko         : DFT Hessian,TD-DFT gradient, ASA, ECA, R-Raman, ABS, FL, XAS/XES, NRVS
   Peter Pinski           : DLPNO-MP2, DLPNO-MP2 Gradient
   Christoph Reimann      : Effective Core Potentials
   Marius Retegan         : Local ZFS, SOC
   Christoph Riplinger    : Optimizer, TS searches, QM/MM, DLPNO-CCSD(T), (RO)-DLPNO pert. Triples
   Tobias Risthaus        : Range-separated hybrids, TD-DFT gradient, RPA, STAB
   Michael Roemelt        : Original ROCIS implementation
   Masaaki Saitow         : Open-shell DLPNO-CCSD energy and density
   Barbara Sandhoefer     : DKH picture change effects
   Avijit Sen             : IP-ROCIS
   Kantharuban Sivalingam : CASSCF convergence, NEVPT2, FIC-MRCI
   Bernardo de Souza      : ESD, SOC TD-DFT
   Georgi Stoychev        : AutoAux, RI-MP2 NMR
   Willem Van den Heuvel  : Paramagnetic NMR
   Boris Wezisla          : Elementary symmetry handling
   Frank Wennmohs         : Technical directorship


 We gratefully acknowledge several colleagues who have allowed us to
 interface, adapt or use parts of their codes:
   Stefan Grimme, W. Hujo, H. Kruse,             : VdW corrections, initial TS optimization,
                  C. Bannwarth                     DFT functionals, gCP, sTDA/sTD-DF
   Ed Valeev, F. Pavosevic, A. Kumar             : LibInt (2-el integral package), F12 methods
   Garnet Chan, S. Sharma, J. Yang, R. Olivares  : DMRG
   Ulf Ekstrom                                   : XCFun DFT Library
   Mihaly Kallay                                 : mrcc  (arbitrary order and MRCC methods)
   Andreas Klamt, Michael Diedenhofen            : otool_cosmo (COSMO solvation model)
   Jiri Pittner, Ondrej Demel                    : Mk-CCSD
   Frank Weinhold                                : gennbo (NPA and NBO analysis)
   Christopher J. Cramer and Donald G. Truhlar   : smd solvation model
   Lars Goerigk                                  : TD-DFT with DH, B97 family of functionals
   V. Asgeirsson, H. Jonsson                     : NEB implementation
   FAccTs GmbH                                   : IRC, NEB, NEB-TS, Multilevel, MM, QM/MM, CI optimization
   S Lehtola, MJT Oliveira, MAL Marques          : LibXC Library


 Your calculation uses the libint2 library for the computation of 2-el integrals
 For citations please refer to: http://libint.valeyev.net

 Your ORCA version has been built with support for libXC version: 4.2.3
 For citations please refer to: https://tddft.org/programs/libxc/

 This ORCA versions uses:
   CBLAS   interface :  Fast vector & matrix operations
   LAPACKE interface :  Fast linear algebra routines
   SCALAPACK package :  Parallel linear algebra routines


Your calculation utilizes the atom-pairwise dispersion correction
with the Becke-Johnson damping scheme (D3BJ)
Cite in your paper:
S.Grimme, S.Ehrlich, L.Goerigk, J Comput Chem, (2011), 32, 1456–1465 
S.Grimme, J.Antony, S.Ehrlich and H.Krieg, J.Chem.Phys., 132, (2010), 154104 
   

----- Orbital basis set information -----
Your calculation utilizes the basis: def2-TZVPPD
   F. Weigend and R. Ahlrichs, Phys. Chem. Chem. Phys. 7, 3297 (2005).
   D. Rappoport and F. Furche, J. Chem. Phys. 133 134105 (2010).

----- AuxC basis set information -----
Your calculation utilizes the auxiliary basis: def2-TZVPPD/C
   A. Hellweg, C. Hattig, S. Hofener and W. Klopper, Theor. Chem. Acc. 117, 587 (2007).

----- AuxJK basis set information -----
Your calculation utilizes the auxiliary basis: def2/JK
   H-Ba, Hf-Rn: F. Weigend, J. Comput. Chem. 29, 167 (2008).

================================================================================
                                        WARNINGS
                       Please study these warnings very carefully!
================================================================================


WARNING: No MP2 level density has been requested!
         To caclulate MP2 level properties use
         %mp2 Density relaxed end
         or
         %mp2 Density unrelaxed end
         Otherwise for double-hybrid DFT only the energy is correct!

WARNING: The frozen-core approximation is turned on by default for 
         the MP2 part of double-hybrid DFT.

INFO   : the flag for use of LIBINT has been found!

================================================================================
                                       INPUT FILE
================================================================================
NAME = FeCO5.in
|  1> #
|  2> # FeCO5 ri-B2PLYP-D3BJ/Def2-TZVPPD
|  3> #
|  4> ! rijk ri-b2plyp d3bj def2-tzvppd def2/jk def2-tzvppd/c grid4 nofinalgrid
|  5> 
|  6> *xyz 0 1
|  7> Fe        -0.20173       -0.07205       -0.00000
|  8> C          1.72826       -0.07205        0.00000
|  9> O          2.84367       -0.07205        0.00000
| 10> C         -0.20170       -0.07205       -1.93000
| 11> O         -0.20173       -0.07205       -3.04540
| 12> C         -0.20170       -0.07205        1.93000
| 13> O         -0.20173       -0.07205        3.04540
| 14> C         -1.16675       -1.74347        0.00000
| 15> O         -1.72443       -2.70944        0.00000
| 16> C         -1.16675        1.59938        0.00000
| 17> O         -1.72443        2.56535        0.00000
| 18> *
| 19> 
| 20> %maxcore 5000
| 21> 
| 22> %pal
| 23> nprocs = 28
| 24> end
| 25> 
| 26> 
| 27>                          ****END OF INPUT****
================================================================================

                       ****************************
                       * Single Point Calculation *
                       ****************************

---------------------------------
CARTESIAN COORDINATES (ANGSTROEM)
---------------------------------
  Fe    -0.201730   -0.072050   -0.000000
  C      1.728260   -0.072050    0.000000
  O      2.843670   -0.072050    0.000000
  C     -0.201700   -0.072050   -1.930000
  O     -0.201730   -0.072050   -3.045400
  C     -0.201700   -0.072050    1.930000
  O     -0.201730   -0.072050    3.045400
  C     -1.166750   -1.743470    0.000000
  O     -1.724430   -2.709440    0.000000
  C     -1.166750    1.599380    0.000000
  O     -1.724430    2.565350    0.000000

----------------------------
CARTESIAN COORDINATES (A.U.)
----------------------------
  NO LB      ZA    FRAG     MASS         X           Y           Z
   0 Fe   26.0000    0    55.850   -0.381214   -0.136155   -0.000000
   1 C     6.0000    0    12.011    3.265938   -0.136155    0.000000
   2 O     8.0000    0    15.999    5.373758   -0.136155    0.000000
   3 C     6.0000    0    12.011   -0.381158   -0.136155   -3.647171
   4 O     8.0000    0    15.999   -0.381214   -0.136155   -5.754972
   5 C     6.0000    0    12.011   -0.381158   -0.136155    3.647171
   6 O     8.0000    0    15.999   -0.381214   -0.136155    5.754972
   7 C     6.0000    0    12.011   -2.204838   -3.294681    0.000000
   8 O     8.0000    0    15.999   -3.258700   -5.120100    0.000000
   9 C     6.0000    0    12.011   -2.204838    3.022390    0.000000
  10 O     8.0000    0    15.999   -3.258700    4.847809    0.000000

--------------------------------
INTERNAL COORDINATES (ANGSTROEM)
--------------------------------
 Fe     0   0   0     0.000000000000     0.00000000     0.00000000
 C      1   0   0     1.929990000000     0.00000000     0.00000000
 O      2   1   0     1.115410000000   180.00000000     0.00000000
 C      1   2   3     1.930000000233    89.99910939     0.00000000
 O      4   1   2     1.115400000403   179.99756835   180.00000000
 C      1   2   3     1.930000000233    89.99910939     0.00000000
 O      6   1   2     1.115400000403   179.99756835   180.00000000
 C      1   2   3     1.930002180517   120.00064822     0.00000000
 O      8   1   2     1.115394559472   179.99832684     0.00000000
 C      1   2   3     1.930010840721   120.00049978     0.00000000
 O     10   1   2     1.115394559472   179.99847528     0.00000000

---------------------------
INTERNAL COORDINATES (A.U.)
---------------------------
 Fe     0   0   0     0.000000000000     0.00000000     0.00000000
 C      1   0   0     3.647152541207     0.00000000     0.00000000
 O      2   1   0     2.107819427037   180.00000000     0.00000000
 C      1   2   3     3.647171438909    89.99910939     0.00000000
 O      4   1   2     2.107800530538   179.99756835   180.00000000
 C      1   2   3     3.647171438909    89.99910939     0.00000000
 O      6   1   2     2.107800530538   179.99756835   180.00000000
 C      1   2   3     3.647175559048   120.00064822     0.00000000
 O      8   1   2     2.107790248668   179.99832684     0.00000000
 C      1   2   3     3.647191924462   120.00049978     0.00000000
 O     10   1   2     2.107790248668   179.99847528     0.00000000

---------------------
BASIS SET INFORMATION
---------------------
There are 3 groups of distinct atoms

 Group   1 Type Fe  : 17s13p7d2f1g contracted to 6s6p4d2f1g pattern {842111/631111/4111/11/1}
 Group   2 Type C   : 12s6p3d1f contracted to 6s3p3d1f pattern {621111/411/111/1}
 Group   3 Type O   : 12s7p3d1f contracted to 6s4p3d1f pattern {621111/4111/111/1}

Atom   0Fe   basis set group =>   1
Atom   1C    basis set group =>   2
Atom   2O    basis set group =>   3
Atom   3C    basis set group =>   2
Atom   4O    basis set group =>   3
Atom   5C    basis set group =>   2
Atom   6O    basis set group =>   3
Atom   7C    basis set group =>   2
Atom   8O    basis set group =>   3
Atom   9C    basis set group =>   2
Atom  10O    basis set group =>   3
---------------------------------
AUXILIARY/C BASIS SET INFORMATION
---------------------------------
There are 3 groups of distinct atoms

 Group   1 Type Fe  : 10s10p9d7f5g3h1i contracted to 10s10p9d7f5g3h1i pattern {1111111111/1111111111/111111111/1111111/11111/111/1}
 Group   2 Type C   : 9s7p6d4f1g contracted to 9s7p5d4f1g pattern {111111111/1111111/21111/1111/1}
 Group   3 Type O   : 9s7p6d4f1g contracted to 9s7p5d4f1g pattern {111111111/1111111/21111/1111/1}

Atom   0Fe   basis set group =>   1
Atom   1C    basis set group =>   2
Atom   2O    basis set group =>   3
Atom   3C    basis set group =>   2
Atom   4O    basis set group =>   3
Atom   5C    basis set group =>   2
Atom   6O    basis set group =>   3
Atom   7C    basis set group =>   2
Atom   8O    basis set group =>   3
Atom   9C    basis set group =>   2
Atom  10O    basis set group =>   3
----------------------------------
AUXILIARY/JK BASIS SET INFORMATION
----------------------------------
There are 3 groups of distinct atoms

 Group   1 Type Fe  : 19s14p12d10f7g3h1i contracted to 16s13p11d9f5g3h1i pattern {4111111111111111/2111111111111/21111111111/211111111/31111/111/1}
 Group   2 Type C   : 14s10p6d2f1g contracted to 10s8p5d1f1g pattern {5111111111/31111111/21111/2/1}
 Group   3 Type O   : 14s10p6d2f1g contracted to 10s8p4d2f1g pattern {5111111111/31111111/3111/11/1}

Atom   0Fe   basis set group =>   1
Atom   1C    basis set group =>   2
Atom   2O    basis set group =>   3
Atom   3C    basis set group =>   2
Atom   4O    basis set group =>   3
Atom   5C    basis set group =>   2
Atom   6O    basis set group =>   3
Atom   7C    basis set group =>   2
Atom   8O    basis set group =>   3
Atom   9C    basis set group =>   2
Atom  10O    basis set group =>   3


           ************************************************************
           *        Program running with 28 parallel MPI-processes    *
           *              working on a common directory               *
           ************************************************************
------------------------------------------------------------------------------
                           ORCA GTO INTEGRAL CALCULATION
                           -- RI-GTO INTEGRALS CHOSEN --
------------------------------------------------------------------------------

                         BASIS SET STATISTICS AND STARTUP INFO

Gaussian basis set:
 # of primitive gaussian shells          ...  265
 # of primitive gaussian functions       ...  649
 # of contracted shells                  ...  154
 # of contracted basis functions         ...  452
 Highest angular momentum                ...    4
 Maximum contraction depth               ...    8
Auxiliary gaussian basis set:
 # of primitive gaussian shells          ...  396
 # of primitive gaussian functions       ... 1270
 # of contracted shells                  ...  308
 # of contracted aux-basis functions     ... 1024
 Highest angular momentum                ...    6
 Maximum contraction depth               ...    5
Ratio of auxiliary to basis functions    ...  2.27
Integral package used                  ... LIBINT
 One Electron integrals                  ... done
 Ordering auxiliary basis shells         ... done
 Integral threshhold             Thresh  ...  1.000e-10
 Primitive cut-off               TCut    ...  1.000e-11
 Pre-screening matrix                    ... done
 Shell pair data                         ... 
 Ordering of the shell pairs             ... done (   0.002 sec) 10556 of 11935 pairs
 Determination of significant pairs      ... done (   0.000 sec)
 Creation of shell pair data             ... done (   0.001 sec)
 Storage of shell pair data              ... done (   0.057 sec)
 Shell pair data done in (   0.060 sec)
 Computing two index integrals           ... done
 Cholesky decomposition of the V-matrix  ... done


Timings:
 Total evaluation time                   ...   0.901 sec (  0.015 min)
 One electron matrix time                ...   0.179 sec (  0.003 min) = 19.8%
 Schwartz matrix evaluation time         ...   0.331 sec (  0.006 min) = 36.7%
 Two index repulsion integral time       ...   0.093 sec (  0.002 min) = 10.4%
 Cholesky decomposition of V             ...   0.121 sec (  0.002 min) = 13.4%
 Three index repulsion integral time     ...   0.000 sec (  0.000 min) =  0.0%



           ************************************************************
           *        Program running with 28 parallel MPI-processes    *
           *              working on a common directory               *
           ************************************************************
-------------------------------------------------------------------------------
                                 ORCA SCF
-------------------------------------------------------------------------------

------------
SCF SETTINGS
------------
Hamiltonian:
 Density Functional     Method          .... DFT(GTOs)
 Exchange Functional    Exchange        .... B88
   X-Alpha parameter    XAlpha          ....  0.666667
   Becke's b parameter  XBeta           ....  0.004200
 Correlation Functional Correlation     .... LYP
 LDA part of GGA corr.  LDAOpt          .... VWN-3
 Gradients option       PostSCFGGA      .... off
 Hybrid DFT is turned on
   Fraction HF Exchange ScalHFX         ....  0.530000
   Scaling of DF-GGA-X  ScalDFX         ....  0.470000
   Scaling of DF-GGA-C  ScalDFC         ....  0.730000
   Scaling of DF-LDA-C  ScalLDAC        ....  0.730000
   Perturbative correction              ....  0.270000
   Density functional embedding theory  .... OFF
 RI-approximation to the Coulomb term is turned on
   Number of auxiliary basis functions  .... 1024
   RI-JK (J+K treated both via RI)      .... on


General Settings:
 Integral files         IntName         .... FeCO5
 Hartree-Fock type      HFTyp           .... RHF
 Total Charge           Charge          ....    0
 Multiplicity           Mult            ....    1
 Number of Electrons    NEL             ....   96
 Basis Dimension        Dim             ....  452
 Nuclear Repulsion      ENuc            ....    774.1815765639 Eh

Convergence Acceleration:
 DIIS                   CNVDIIS         .... on
   Start iteration      DIISMaxIt       ....    12
   Startup error        DIISStart       ....  0.200000
   # of expansion vecs  DIISMaxEq       ....     5
   Bias factor          DIISBfac        ....   1.050
   Max. coefficient     DIISMaxC        ....  10.000
 Newton-Raphson         CNVNR           .... off
 SOSCF                  CNVSOSCF        .... off
 Level Shifting         CNVShift        .... on
   Level shift para.    LevelShift      ....    0.2500
   Turn off err/grad.   ShiftErr        ....    0.0010
 Zerner damping         CNVZerner       .... off
 Static damping         CNVDamp         .... on
   Fraction old density DampFac         ....    0.7000
   Max. Damping (<1)    DampMax         ....    0.9800
   Min. Damping (>=0)   DampMin         ....    0.0000
   Turn off err/grad.   DampErr         ....    0.1000
 Fernandez-Rico         CNVRico         .... off

SCF Procedure:
 Maximum # iterations   MaxIter         ....   125
 SCF integral mode      SCFMode         .... Direct
   Integral package                     .... LIBINT
 Reset frequency        DirectResetFreq ....    20
 Integral Threshold     Thresh          ....  1.000e-10 Eh
 Primitive CutOff       TCut            ....  1.000e-11 Eh

Convergence Tolerance:
 Convergence Check Mode ConvCheckMode   .... Total+1el-Energy
 Convergence forced     ConvForced      .... 0
 Energy Change          TolE            ....  1.000e-06 Eh
 1-El. energy change                    ....  1.000e-03 Eh
 DIIS Error             TolErr          ....  1.000e-06


Diagonalization of the overlap matrix:
Smallest eigenvalue                        ... 5.177e-06
Time for diagonalization                   ...    0.040 sec
Threshold for overlap eigenvalues          ... 1.000e-08
Number of eigenvalues below threshold      ... 0
Time for construction of square roots      ...    0.101 sec
Total time needed                          ...    0.141 sec

-------------------
DFT GRID GENERATION
-------------------

General Integration Accuracy     IntAcc      ...  4.670
Radial Grid Type                 RadialGrid  ... Gauss-Chebyshev
Angular Grid (max. acc.)         AngularGrid ... Lebedev-302
Angular grid pruning method      GridPruning ... 3 (G Style)
Weight generation scheme         WeightScheme... Becke
Basis function cutoff            BFCut       ...    1.0000e-10
Integration weight cutoff        WCut        ...    1.0000e-14
Grids for H and He will be reduced by one unit

# of grid points (after initial pruning)     ...  71760 (   0.0 sec)
# of grid points (after weights+screening)   ...  68008 (   0.0 sec)
nearest neighbour list constructed           ...    0.0 sec
Grid point re-assignment to atoms done       ...    0.0 sec
Grid point division into batches done        ...    0.4 sec
Reduced shell lists constructed in    0.6 sec

Total number of grid points                  ...    68008
Total number of batches                      ...     1068
Average number of points per batch           ...       63
Average number of grid points per atom       ...     6183
Average number of shells per batch           ...   115.20 (74.81%)
Average number of basis functions per batch  ...   355.60 (78.67%)
Average number of large shells per batch     ...    98.40 (85.42%)
Average number of large basis fcns per batch ...   302.80 (85.15%)
Average number of aux-shells per batch       ...   115.20 (37.40%)
Average number of aux functions per batch    ...   355.60 (34.73%)
Maximum spatial batch extension              ...   1.61,  1.83,  2.58 au
Average spatial batch extension              ...   0.05,  0.05,  0.05 au

Time for grid setup =    2.437 sec

------------------------------
INITIAL GUESS: MODEL POTENTIAL
------------------------------
Loading Hartree-Fock densities                     ... done
Calculating cut-offs                               ... done
Setting up the integral package                    ... done
Initializing the effective Hamiltonian             ... done
Starting the Coulomb interaction                   ... done (   0.0 sec)
Reading the grid                                   ... done
Mapping shells                                     ... done
Starting the XC term evaluation                    ... done (   0.1 sec)
  promolecular density results
     # of electrons  =     96.000025319
     EX              =   -120.998234904
     EC              =     -1.291234974
     EX+EC           =   -122.289469878
Transforming the Hamiltonian                       ... done (   0.0 sec)
Diagonalizing the Hamiltonian                      ... done (   0.0 sec)
Back transforming the eigenvectors                 ... done (   0.0 sec)
Now organizing SCF variables                       ... done
                      ------------------
                      INITIAL GUESS DONE (   3.1 sec)
                      ------------------
--------------
SCF ITERATIONS
--------------
ITER       Energy         Delta-E        Max-DP      RMS-DP      [F,P]     Damp
  0  -1829.0011089060   0.000000000000 0.18935109  0.00110235  0.1926099 0.7000
  1  -1828.7776866656   0.223422240455 0.14845095  0.00084217  0.1440679 0.7000
                               ***Turning on DIIS***
  2  -1828.9006897571  -0.123003091482 0.31882845  0.00172476  0.0615182 0.0000
  3  -1829.1758853177  -0.275195560626 0.06961184  0.00057121  0.0915486 0.0000
  4  -1829.2173375960  -0.041452278324 0.02654666  0.00025125  0.0315613 0.0000
  5  -1829.2183147863  -0.000977190299 0.02253860  0.00018254  0.0596761 0.0000
  6  -1829.2218410782  -0.003526291879 0.01361089  0.00011434  0.0100298 0.0000
  7  -1829.2224284917  -0.000587413528 0.00516841  0.00004729  0.0043870 0.0000
  8  -1829.2225545863  -0.000126094617 0.00261312  0.00002383  0.0021673 0.0000
  9  -1829.2226180181  -0.000063431776 0.00175908  0.00001798  0.0012228 0.0000
 10  -1829.2226439195  -0.000025901386 0.00213332  0.00002138  0.0008557 0.0000
 11  -1829.2226574269  -0.000013507409 0.00058408  0.00000486  0.0011678 0.0000
 12  -1829.2226593628  -0.000001935838 0.00065735  0.00000813  0.0006643 0.0000
 13  -1829.2226607558  -0.000001393079 0.00025706  0.00000415  0.0001823 0.0000
 14  -1829.2226608913  -0.000000135441 0.00014380  0.00000227  0.0002684 0.0000
                 **** Energy Check signals convergence ****

               *****************************************************
               *                     SUCCESS                       *
               *           SCF CONVERGED AFTER  15 CYCLES          *
               *****************************************************


----------------
TOTAL SCF ENERGY
----------------

Total Energy       :        -1829.22266099 Eh          -49775.67915 eV

Components:
Nuclear Repulsion  :          774.18157656 Eh           21066.55170 eV
Electronic Energy  :        -2603.40423756 Eh          -70842.23085 eV
One Electron Energy:        -4059.91853776 Eh         -110475.99990 eV
Two Electron Energy:         1456.51430021 Eh           39633.76905 eV

Virial components:
Potential Energy   :        -3655.50271047 Eh          -99471.28577 eV
Kinetic Energy     :         1826.28004948 Eh           49695.60662 eV
Virial Ratio       :            2.00161126


DFT components:
N(Alpha)           :       48.000029196867 electrons
N(Beta)            :       48.000029196867 electrons
N(Total)           :       96.000058393735 electrons
E(X)               :      -57.208222396346 Eh       
E(C)               :       -2.705963708394 Eh       
E(XC)              :      -59.914186104740 Eh       
DFET-embed. en.    :        0.000000000000 Eh       

---------------
SCF CONVERGENCE
---------------

  Last Energy change         ...   -1.0211e-07  Tolerance :   1.0000e-06
  Last MAX-Density change    ...    5.4692e-04  Tolerance :   1.0000e-05
  Last RMS-Density change    ...    5.7910e-06  Tolerance :   1.0000e-06
  Last DIIS Error            ...    5.4690e-05  Tolerance :   1.0000e-06

             **** THE GBW FILE WAS UPDATED (FeCO5.gbw) ****
             **** DENSITY FILE WAS UPDATED (FeCO5.scfp) ****
             **** ENERGY FILE WAS UPDATED (FeCO5.en.tmp) ****
             **** THE GBW FILE WAS UPDATED (FeCO5.gbw) ****
             **** DENSITY FILE WAS UPDATED (FeCO5.scfp) ****
----------------
ORBITAL ENERGIES
----------------

  NO   OCC          E(Eh)            E(eV) 
   0   2.0000    -258.287778     -7028.3677 
   1   2.0000     -30.815117      -838.5219 
   2   2.0000     -26.528685      -721.8822 
   3   2.0000     -26.511008      -721.4012 
   4   2.0000     -26.511006      -721.4011 
   5   2.0000     -19.841632      -539.9183 
   6   2.0000     -19.841630      -539.9182 
   7   2.0000     -19.823057      -539.4128 
   8   2.0000     -19.823056      -539.4128 
   9   2.0000     -19.823049      -539.4126 
  10   2.0000     -10.762881      -292.8729 
  11   2.0000     -10.762877      -292.8728 
  12   2.0000     -10.747802      -292.4626 
  13   2.0000     -10.747802      -292.4625 
  14   2.0000     -10.747797      -292.4624 
  15   2.0000      -3.714501      -101.0767 
  16   2.0000      -2.422619       -65.9228 
  17   2.0000      -2.398221       -65.2589 
  18   2.0000      -2.398217       -65.2588 
  19   2.0000      -1.336583       -36.3703 
  20   2.0000      -1.336523       -36.3686 
  21   2.0000      -1.319777       -35.9129 
  22   2.0000      -1.319696       -35.9108 
  23   2.0000      -1.319684       -35.9104 
  24   2.0000      -0.706331       -19.2202 
  25   2.0000      -0.688994       -18.7485 
  26   2.0000      -0.674345       -18.3499 
  27   2.0000      -0.673360       -18.3231 
  28   2.0000      -0.673356       -18.3229 
  29   2.0000      -0.599574       -16.3152 
  30   2.0000      -0.576418       -15.6851 
  31   2.0000      -0.576417       -15.6851 
  32   2.0000      -0.572992       -15.5919 
  33   2.0000      -0.572992       -15.5919 
  34   2.0000      -0.565263       -15.3816 
  35   2.0000      -0.556095       -15.1321 
  36   2.0000      -0.556087       -15.1319 
  37   2.0000      -0.551668       -15.0117 
  38   2.0000      -0.550132       -14.9698 
  39   2.0000      -0.550124       -14.9696 
  40   2.0000      -0.513345       -13.9688 
  41   2.0000      -0.513343       -13.9688 
  42   2.0000      -0.509906       -13.8753 
  43   2.0000      -0.494815       -13.4646 
  44   2.0000      -0.343841        -9.3564 
  45   2.0000      -0.343838        -9.3563 
  46   2.0000      -0.264856        -7.2071 
  47   2.0000      -0.264849        -7.2069 
  48   0.0000       0.015016         0.4086 
  49   0.0000       0.015018         0.4087 
  50   0.0000       0.018725         0.5095 
  51   0.0000       0.026834         0.7302 
  52   0.0000       0.026839         0.7303 
  53   0.0000       0.030846         0.8394 
  54   0.0000       0.043411         1.1813 
  55   0.0000       0.043413         1.1813 
  56   0.0000       0.045388         1.2351 
  57   0.0000       0.048282         1.3138 
  58   0.0000       0.048282         1.3138 
  59   0.0000       0.048453         1.3185 
  60   0.0000       0.058671         1.5965 
  61   0.0000       0.075929         2.0661 
  62   0.0000       0.075936         2.0663 
  63   0.0000       0.077694         2.1142 
  64   0.0000       0.077698         2.1143 
  65   0.0000       0.091149         2.4803 
  66   0.0000       0.091159         2.4806 
  67   0.0000       0.093125         2.5341 
  68   0.0000       0.093184         2.5357 
  69   0.0000       0.100287         2.7289 
  70   0.0000       0.108262         2.9460 
  71   0.0000       0.108267         2.9461 
  72   0.0000       0.114516         3.1162 
  73   0.0000       0.135285         3.6813 
  74   0.0000       0.135290         3.6814 
  75   0.0000       0.144367         3.9284 
  76   0.0000       0.150488         4.0950 
  77   0.0000       0.150492         4.0951 
  78   0.0000       0.163569         4.4509 
  79   0.0000       0.164407         4.4737 
  80   0.0000       0.177409         4.8276 
  81   0.0000       0.177425         4.8280 
  82   0.0000       0.205477         5.5913 
  83   0.0000       0.206812         5.6276 
  84   0.0000       0.206825         5.6280 
  85   0.0000       0.234089         6.3699 
  86   0.0000       0.240137         6.5345 
  87   0.0000       0.240174         6.5355 
  88   0.0000       0.247175         6.7260 
  89   0.0000       0.265314         7.2196 
  90   0.0000       0.265327         7.2199 
  91   0.0000       0.271627         7.3913 
  92   0.0000       0.281298         7.6545 
  93   0.0000       0.281305         7.6547 
  94   0.0000       0.283326         7.7097 
  95   0.0000       0.283327         7.7097 
  96   0.0000       0.288787         7.8583 
  97   0.0000       0.301726         8.2104 
  98   0.0000       0.324034         8.8174 
  99   0.0000       0.330202         8.9853 
 100   0.0000       0.330224         8.9859 
 101   0.0000       0.336882         9.1670 
 102   0.0000       0.338469         9.2102 
 103   0.0000       0.343982         9.3602 
 104   0.0000       0.343995         9.3606 
 105   0.0000       0.357681         9.7330 
 106   0.0000       0.357682         9.7330 
 107   0.0000       0.379927        10.3384 
 108   0.0000       0.389313        10.5938 
 109   0.0000       0.389329        10.5942 
 110   0.0000       0.389969        10.6116 
 111   0.0000       0.389983        10.6120 
 112   0.0000       0.403696        10.9851 
 113   0.0000       0.416284        11.3277 
 114   0.0000       0.426651        11.6098 
 115   0.0000       0.426653        11.6098 
 116   0.0000       0.443169        12.0592 
 117   0.0000       0.491104        13.3636 
 118   0.0000       0.491112        13.3638 
 119   0.0000       0.497230        13.5303 
 120   0.0000       0.497244        13.5307 
 121   0.0000       0.505787        13.7632 
 122   0.0000       0.505828        13.7643 
 123   0.0000       0.506763        13.7897 
 124   0.0000       0.529480        14.4079 
 125   0.0000       0.543054        14.7772 
 126   0.0000       0.543116        14.7789 
 127   0.0000       0.544766        14.8238 
 128   0.0000       0.556788        15.1510 
 129   0.0000       0.566927        15.4269 
 130   0.0000       0.566952        15.4275 
 131   0.0000       0.575948        15.6724 
 132   0.0000       0.575969        15.6729 
 133   0.0000       0.582384        15.8475 
 134   0.0000       0.582540        15.8517 
 135   0.0000       0.583990        15.8912 
 136   0.0000       0.610905        16.6236 
 137   0.0000       0.616150        16.7663 
 138   0.0000       0.620324        16.8799 
 139   0.0000       0.620347        16.8805 
 140   0.0000       0.621620        16.9152 
 141   0.0000       0.627011        17.0618 
 142   0.0000       0.627014        17.0619 
 143   0.0000       0.653033        17.7699 
 144   0.0000       0.659099        17.9350 
 145   0.0000       0.659177        17.9371 
 146   0.0000       0.662170        18.0185 
 147   0.0000       0.662175        18.0187 
 148   0.0000       0.675875        18.3915 
 149   0.0000       0.682938        18.5837 
 150   0.0000       0.683018        18.5859 
 151   0.0000       0.684335        18.6217 
 152   0.0000       0.693519        18.8716 
 153   0.0000       0.693574        18.8731 
 154   0.0000       0.708758        19.2863 
 155   0.0000       0.721496        19.6329 
 156   0.0000       0.742132        20.1945 
 157   0.0000       0.742155        20.1951 
 158   0.0000       0.743058        20.2196 
 159   0.0000       0.743070        20.2200 
 160   0.0000       0.755513        20.5586 
 161   0.0000       0.765430        20.8284 
 162   0.0000       0.765433        20.8285 
 163   0.0000       0.784283        21.3414 
 164   0.0000       0.797042        21.6886 
 165   0.0000       0.797067        21.6893 
 166   0.0000       0.834223        22.7004 
 167   0.0000       0.863179        23.4883 
 168   0.0000       0.891441        24.2573 
 169   0.0000       0.896588        24.3974 
 170   0.0000       0.905045        24.6275 
 171   0.0000       0.905049        24.6276 
 172   0.0000       0.908960        24.7341 
 173   0.0000       0.916828        24.9482 
 174   0.0000       0.916899        24.9501 
 175   0.0000       0.921951        25.0876 
 176   0.0000       0.921956        25.0877 
 177   0.0000       0.934269        25.4227 
 178   0.0000       0.952179        25.9101 
 179   0.0000       0.952179        25.9101 
 180   0.0000       0.957706        26.0605 
 181   0.0000       0.970507        26.4088 
 182   0.0000       0.970516        26.4091 
 183   0.0000       0.980228        26.6734 
 184   0.0000       0.980232        26.6735 
 185   0.0000       0.987036        26.8586 
 186   0.0000       1.002715        27.2853 
 187   0.0000       1.002729        27.2856 
 188   0.0000       1.026399        27.9297 
 189   0.0000       1.027976        27.9727 
 190   0.0000       1.027988        27.9730 
 191   0.0000       1.061276        28.8788 
 192   0.0000       1.061344        28.8806 
 193   0.0000       1.070300        29.1243 
 194   0.0000       1.088601        29.6223 
 195   0.0000       1.118743        30.4426 
 196   0.0000       1.148970        31.2651 
 197   0.0000       1.149048        31.2672 
 198   0.0000       1.157806        31.5055 
 199   0.0000       1.157968        31.5099 
 200   0.0000       1.169389        31.8207 
 201   0.0000       1.169632        31.8273 
 202   0.0000       1.201313        32.6894 
 203   0.0000       1.284893        34.9637 
 204   0.0000       1.290509        35.1165 
 205   0.0000       1.290556        35.1178 
 206   0.0000       1.301008        35.4022 
 207   0.0000       1.301384        35.4125 
 208   0.0000       1.354729        36.8641 
 209   0.0000       1.354876        36.8681 
 210   0.0000       1.354972        36.8707 
 211   0.0000       1.355987        36.8983 
 212   0.0000       1.381448        37.5911 
 213   0.0000       1.400706        38.1151 
 214   0.0000       1.400712        38.1153 
 215   0.0000       1.565846        42.6088 
 216   0.0000       1.565858        42.6092 
 217   0.0000       1.574595        42.8469 
 218   0.0000       1.606940        43.7271 
 219   0.0000       1.606955        43.7275 
 220   0.0000       1.782075        48.4927 
 221   0.0000       1.795797        48.8661 
 222   0.0000       1.798532        48.9405 
 223   0.0000       1.809773        49.2464 
 224   0.0000       1.809780        49.2466 
 225   0.0000       1.819479        49.5105 
 226   0.0000       1.819500        49.5111 
 227   0.0000       1.833546        49.8933 
 228   0.0000       1.833551        49.8935 
 229   0.0000       1.849373        50.3240 
 230   0.0000       1.849392        50.3245 
 231   0.0000       1.857523        50.5458 
 232   0.0000       1.860828        50.6357 
 233   0.0000       1.864403        50.7330 
 234   0.0000       1.864439        50.7340 
 235   0.0000       1.878542        51.1177 
 236   0.0000       1.878568        51.1184 
 237   0.0000       1.883165        51.2435 
 238   0.0000       1.892589        51.5000 
 239   0.0000       1.892593        51.5001 
 240   0.0000       1.902402        51.7670 
 241   0.0000       1.902437        51.7679 
 242   0.0000       1.920449        52.2581 
 243   0.0000       1.940352        52.7997 
 244   0.0000       1.952041        53.1177 
 245   0.0000       1.952074        53.1186 
 246   0.0000       1.956822        53.2478 
 247   0.0000       2.020160        54.9714 
 248   0.0000       2.027160        55.1618 
 249   0.0000       2.027176        55.1623 
 250   0.0000       2.105203        57.2855 
 251   0.0000       2.113841        57.5205 
 252   0.0000       2.138157        58.1822 
 253   0.0000       2.217617        60.3444 
 254   0.0000       2.217629        60.3447 
 255   0.0000       2.224840        60.5410 
 256   0.0000       2.224848        60.5412 
 257   0.0000       2.327690        63.3397 
 258   0.0000       2.327698        63.3399 
 259   0.0000       2.368417        64.4479 
 260   0.0000       2.376339        64.6635 
 261   0.0000       2.376343        64.6636 
 262   0.0000       2.488957        67.7280 
 263   0.0000       2.512394        68.3657 
 264   0.0000       2.520697        68.5917 
 265   0.0000       2.528241        68.7969 
 266   0.0000       2.528249        68.7972 
 267   0.0000       2.600966        70.7759 
 268   0.0000       2.601016        70.7773 
 269   0.0000       2.674733        72.7832 
 270   0.0000       2.674737        72.7833 
 271   0.0000       2.720840        74.0378 
 272   0.0000       2.738114        74.5079 
 273   0.0000       2.746138        74.7262 
 274   0.0000       2.778492        75.6066 
 275   0.0000       2.793267        76.0087 
 276   0.0000       2.793284        76.0091 
 277   0.0000       2.795627        76.0729 
 278   0.0000       2.795632        76.0730 
 279   0.0000       2.806461        76.3677 
 280   0.0000       2.831805        77.0573 
 281   0.0000       2.840512        77.2943 
 282   0.0000       2.905880        79.0730 
 283   0.0000       2.944722        80.1300 
 284   0.0000       2.944733        80.1303 
 285   0.0000       2.949373        80.2565 
 286   0.0000       2.951815        80.3230 
 287   0.0000       2.951816        80.3230 
 288   0.0000       2.976051        80.9825 
 289   0.0000       2.976052        80.9825 
 290   0.0000       2.985620        81.2429 
 291   0.0000       3.022700        82.2518 
 292   0.0000       3.022708        82.2521 
 293   0.0000       3.056953        83.1839 
 294   0.0000       3.059080        83.2418 
 295   0.0000       3.059178        83.2445 
 296   0.0000       3.080565        83.8264 
 297   0.0000       3.116189        84.7958 
 298   0.0000       3.116197        84.7960 
 299   0.0000       3.150618        85.7327 
 300   0.0000       3.150632        85.7331 
 301   0.0000       3.155895        85.8763 
 302   0.0000       3.155897        85.8763 
 303   0.0000       3.177704        86.4697 
 304   0.0000       3.183620        86.6307 
 305   0.0000       3.183638        86.6312 
 306   0.0000       3.196890        86.9918 
 307   0.0000       3.238713        88.1298 
 308   0.0000       3.238720        88.1300 
 309   0.0000       3.259767        88.7028 
 310   0.0000       3.259801        88.7037 
 311   0.0000       3.280132        89.2569 
 312   0.0000       3.280144        89.2572 
 313   0.0000       3.320325        90.3506 
 314   0.0000       3.322705        90.4154 
 315   0.0000       3.322711        90.4156 
 316   0.0000       3.347932        91.1019 
 317   0.0000       3.347935        91.1019 
 318   0.0000       3.353708        91.2590 
 319   0.0000       3.376525        91.8799 
 320   0.0000       3.383877        92.0800 
 321   0.0000       3.383913        92.0810 
 322   0.0000       3.391547        92.2887 
 323   0.0000       3.414980        92.9263 
 324   0.0000       3.455710        94.0346 
 325   0.0000       3.455753        94.0358 
 326   0.0000       3.520539        95.7987 
 327   0.0000       3.520584        95.8000 
 328   0.0000       3.543397        96.4207 
 329   0.0000       3.549199        96.5786 
 330   0.0000       3.549914        96.5981 
 331   0.0000       3.549918        96.5982 
 332   0.0000       3.574309        97.2619 
 333   0.0000       3.603176        98.0474 
 334   0.0000       3.642985        99.1307 
 335   0.0000       3.643002        99.1311 
 336   0.0000       3.730556       101.5136 
 337   0.0000       3.730558       101.5136 
 338   0.0000       3.785144       102.9990 
 339   0.0000       3.809281       103.6558 
 340   0.0000       3.809283       103.6559 
 341   0.0000       3.866823       105.2216 
 342   0.0000       3.910304       106.4048 
 343   0.0000       3.917460       106.5995 
 344   0.0000       3.917473       106.5999 
 345   0.0000       3.954545       107.6086 
 346   0.0000       4.015255       109.2606 
 347   0.0000       4.015260       109.2608 
 348   0.0000       4.066969       110.6679 
 349   0.0000       4.075741       110.9065 
 350   0.0000       4.075750       110.9068 
 351   0.0000       4.160936       113.2248 
 352   0.0000       4.160958       113.2254 
 353   0.0000       4.321239       117.5869 
 354   0.0000       4.321241       117.5869 
 355   0.0000       4.342529       118.1662 
 356   0.0000       4.483465       122.0013 
 357   0.0000       4.533294       123.3572 
 358   0.0000       4.596682       125.0821 
 359   0.0000       4.596688       125.0823 
 360   0.0000       4.681293       127.3845 
 361   0.0000       4.782487       130.1381 
 362   0.0000       4.949707       134.6884 
 363   0.0000       4.949728       134.6890 
 364   0.0000       4.951818       134.7458 
 365   0.0000       5.072904       138.0407 
 366   0.0000       5.248150       142.8094 
 367   0.0000       5.248367       142.8153 
 368   0.0000       5.249866       142.8561 
 369   0.0000       5.252436       142.9260 
 370   0.0000       5.263972       143.2400 
 371   0.0000       5.264996       143.2678 
 372   0.0000       5.265002       143.2680 
 373   0.0000       5.265113       143.2710 
 374   0.0000       5.265116       143.2711 
 375   0.0000       5.267296       143.3304 
 376   0.0000       5.697812       155.0454 
 377   0.0000       5.697815       155.0454 
 378   0.0000       5.704005       155.2139 
 379   0.0000       5.714140       155.4896 
 380   0.0000       5.714143       155.4897 
 381   0.0000       5.724513       155.7719 
 382   0.0000       5.724523       155.7722 
 383   0.0000       5.736808       156.1065 
 384   0.0000       5.736831       156.1071 
 385   0.0000       5.774101       157.1213 
 386   0.0000       6.465705       175.9408 
 387   0.0000       6.465709       175.9409 
 388   0.0000       6.518713       177.3832 
 389   0.0000       6.526264       177.5887 
 390   0.0000       6.537410       177.8920 
 391   0.0000       6.537428       177.8925 
 392   0.0000       6.584025       179.1604 
 393   0.0000       6.584054       179.1612 
 394   0.0000       6.589658       179.3137 
 395   0.0000       6.589666       179.3139 
 396   0.0000       6.599693       179.5868 
 397   0.0000       6.599698       179.5869 
 398   0.0000       6.603459       179.6893 
 399   0.0000       6.603467       179.6895 
 400   0.0000       6.610142       179.8711 
 401   0.0000       6.626621       180.3195 
 402   0.0000       6.626627       180.3197 
 403   0.0000       6.641525       180.7251 
 404   0.0000       6.641807       180.7328 
 405   0.0000       6.641812       180.7329 
 406   0.0000       6.893040       187.5691 
 407   0.0000       6.916584       188.2098 
 408   0.0000       6.929793       188.5693 
 409   0.0000       6.946992       189.0373 
 410   0.0000       6.947019       189.0380 
 411   0.0000       7.013608       190.8500 
 412   0.0000       7.013613       190.8501 
 413   0.0000       7.027942       191.2400 
 414   0.0000       7.027951       191.2403 
 415   0.0000       7.033397       191.3884 
 416   0.0000       7.066063       192.2774 
 417   0.0000       7.066070       192.2775 
 418   0.0000       7.067572       192.3184 
 419   0.0000       7.067575       192.3185 
 420   0.0000       7.075378       192.5308 
 421   0.0000       7.414440       201.7572 
 422   0.0000       7.420203       201.9140 
 423   0.0000       7.439436       202.4373 
 424   0.0000       7.442779       202.5283 
 425   0.0000       7.442793       202.5287 
 426   0.0000       8.782866       238.9939 
 427   0.0000       8.825254       240.1474 
 428   0.0000       8.825286       240.1483 
 429   0.0000       8.845331       240.6937 
 430   0.0000       8.849750       240.8139 
 431   0.0000       8.849753       240.8140 
 432   0.0000       8.960520       243.8282 
 433   0.0000       8.960536       243.8286 
 434   0.0000       9.117979       248.1128 
 435   0.0000       9.650889       262.6140 
 436   0.0000       9.650919       262.6148 
 437   0.0000       9.785568       266.2788 
 438   0.0000       9.940443       270.4932 
 439   0.0000       9.940456       270.4936 
 440   0.0000      10.144362       276.0421 
 441   0.0000      10.161158       276.4992 
 442   0.0000      23.402028       636.8016 
 443   0.0000      23.441130       637.8656 
 444   0.0000      23.809154       647.8800 
 445   0.0000      23.925179       651.0372 
 446   0.0000      23.925219       651.0383 
 447   0.0000      44.736391      1217.3391 
 448   0.0000      44.853122      1220.5155 
 449   0.0000      44.856378      1220.6041 
 450   0.0000      44.858688      1220.6670 
 451   0.0000      44.858702      1220.6673 

                    ********************************
                    * MULLIKEN POPULATION ANALYSIS *
                    ********************************

-----------------------
MULLIKEN ATOMIC CHARGES
-----------------------
   0 Fe:    0.952129
   1 C :   -0.011625
   2 O :   -0.257217
   3 C :    0.155102
   4 O :   -0.225981
   5 C :    0.155018
   6 O :   -0.225980
   7 C :   -0.013522
   8 O :   -0.257157
   9 C :   -0.013644
  10 O :   -0.257123
Sum of atomic charges:   -0.0000000

--------------------------------
MULLIKEN REDUCED ORBITAL CHARGES
--------------------------------
  0 Fes       :     6.513970  s :     6.513970
      pz      :     3.939607  p :    11.878461
      px      :     3.969350
      py      :     3.969504
      dz2     :     0.410510  d :     6.649570
      dxz     :     1.685936
      dyz     :     1.685981
      dx2y2   :     1.433611
      dxy     :     1.433532
      f0      :     0.002248  f :     0.005795
      f+1     :     0.000741
      f-1     :     0.000741
      f+2     :     0.000116
      f-2     :     0.000116
      f+3     :     0.001619
      f-3     :     0.000214
      g0      :     0.000026  g :     0.000076
      g+1     :     0.000014
      g-1     :     0.000014
      g+2     :     0.000002
      g-2     :     0.000002
      g+3     :     0.000001
      g-3     :     0.000000
      g+4     :     0.000008
      g-4     :     0.000008
  1 C s       :     3.751943  s :     3.751943
      pz      :     0.566666  p :     2.079251
      px      :     0.884393
      py      :     0.628193
      dz2     :     0.006972  d :     0.162403
      dxz     :     0.065449
      dyz     :     0.002827
      dx2y2   :     0.008300
      dxy     :     0.078855
      f0      :     0.002259  f :     0.018029
      f+1     :     0.001847
      f-1     :     0.000329
      f+2     :     0.004168
      f-2     :     0.000076
      f+3     :     0.003256
      f-3     :     0.006094
  2 O s       :     3.908081  s :     3.908081
      pz      :     1.462369  p :     4.301761
      px      :     1.330799
      py      :     1.508593
      dz2     :     0.002802  d :     0.045428
      dxz     :     0.016085
      dyz     :    -0.000113
      dx2y2   :     0.010935
      dxy     :     0.015718
      f0      :     0.000281  f :     0.001947
      f+1     :     0.000139
      f-1     :     0.000041
      f+2     :     0.000506
      f-2     :     0.000000
      f+3     :     0.000257
      f-3     :     0.000724
  3 C s       :     3.512471  s :     3.512471
      pz      :     0.954945  p :     2.141560
      px      :     0.593284
      py      :     0.593330
      dz2     :     0.001656  d :     0.172420
      dxz     :     0.080336
      dyz     :     0.080337
      dx2y2   :     0.005046
      dxy     :     0.005045
      f0      :     0.004882  f :     0.018447
      f+1     :     0.006662
      f-1     :     0.006662
      f+2     :     0.000116
      f-2     :     0.000116
      f+3     :     0.000008
      f-3     :     0.000002
  4 O s       :     3.878860  s :     3.878860
      pz      :     1.338919  p :     4.295503
      px      :     1.478295
      py      :     1.478289
      dz2     :     0.018062  d :     0.049660
      dxz     :     0.016006
      dyz     :     0.016004
      dx2y2   :    -0.000206
      dxy     :    -0.000206
      f0      :     0.000393  f :     0.001958
      f+1     :     0.000782
      f-1     :     0.000782
      f+2     :     0.000000
      f-2     :     0.000000
      f+3     :    -0.000000
      f-3     :    -0.000000
  5 C s       :     3.512520  s :     3.512520
      pz      :     0.954977  p :     2.141590
      px      :     0.593281
      py      :     0.593332
      dz2     :     0.001657  d :     0.172425
      dxz     :     0.080339
      dyz     :     0.080338
      dx2y2   :     0.005046
      dxy     :     0.005045
      f0      :     0.004882  f :     0.018447
      f+1     :     0.006662
      f-1     :     0.006662
      f+2     :     0.000116
      f-2     :     0.000116
      f+3     :     0.000008
      f-3     :     0.000002
  6 O s       :     3.878861  s :     3.878861
      pz      :     1.338920  p :     4.295504
      px      :     1.478295
      py      :     1.478289
      dz2     :     0.018060  d :     0.049658
      dxz     :     0.016006
      dyz     :     0.016004
      dx2y2   :    -0.000206
      dxy     :    -0.000206
      f0      :     0.000393  f :     0.001958
      f+1     :     0.000782
      f-1     :     0.000782
      f+2     :     0.000000
      f-2     :     0.000000
      f+3     :    -0.000000
      f-3     :    -0.000000
  7 C s       :     3.753251  s :     3.753251
      pz      :     0.566682  p :     2.079857
      px      :     0.692341
      py      :     0.820835
      dz2     :     0.006972  d :     0.162383
      dxz     :     0.018460
      dyz     :     0.049757
      dx2y2   :     0.061233
      dxy     :     0.025960
      f0      :     0.002259  f :     0.018030
      f+1     :     0.000708
      f-1     :     0.001467
      f+2     :     0.001099
      f-2     :     0.003145
      f+3     :     0.003256
      f-3     :     0.006094
  8 O s       :     3.908060  s :     3.908060
      pz      :     1.462354  p :     4.301724
      px      :     1.464146
      py      :     1.375225
      dz2     :     0.002803  d :     0.045425
      dxz     :     0.003937
      dyz     :     0.012035
      dx2y2   :     0.014515
      dxy     :     0.012136
      f0      :     0.000281  f :     0.001947
      f+1     :     0.000066
      f-1     :     0.000115
      f+2     :     0.000127
      f-2     :     0.000379
      f+3     :     0.000257
      f-3     :     0.000724
  9 C s       :     3.753338  s :     3.753338
      pz      :     0.566682  p :     2.079891
      px      :     0.692359
      py      :     0.820851
      dz2     :     0.006975  d :     0.162385
      dxz     :     0.018460
      dyz     :     0.049757
      dx2y2   :     0.061231
      dxy     :     0.025962
      f0      :     0.002259  f :     0.018030
      f+1     :     0.000708
      f-1     :     0.001467
      f+2     :     0.001099
      f-2     :     0.003145
      f+3     :     0.003256
      f-3     :     0.006094
 10 O s       :     3.908027  s :     3.908027
      pz      :     1.462353  p :     4.301723
      px      :     1.464147
      py      :     1.375224
      dz2     :     0.002802  d :     0.045425
      dxz     :     0.003937
      dyz     :     0.012035
      dx2y2   :     0.014515
      dxy     :     0.012136
      f0      :     0.000281  f :     0.001947
      f+1     :     0.000066
      f-1     :     0.000115
      f+2     :     0.000127
      f-2     :     0.000379
      f+3     :     0.000257
      f-3     :     0.000724


                     *******************************
                     * LOEWDIN POPULATION ANALYSIS *
                     *******************************

----------------------
LOEWDIN ATOMIC CHARGES
----------------------
   0 Fe:   -0.463030
   1 C :   -0.062444
   2 O :    0.148114
   3 C :   -0.069016
   4 O :    0.171996
   5 C :   -0.069016
   6 O :    0.171996
   7 C :   -0.062440
   8 O :    0.148138
   9 C :   -0.062436
  10 O :    0.148138

-------------------------------
LOEWDIN REDUCED ORBITAL CHARGES
-------------------------------
  0 Fes       :     6.038588  s :     6.038588
      pz      :     4.334325  p :    13.051495
      px      :     4.358587
      py      :     4.358584
      dz2     :     0.787976  d :     7.352042
      dxz     :     1.689851
      dyz     :     1.689867
      dx2y2   :     1.592197
      dxy     :     1.592150
      f0      :     0.008614  f :     0.020732
      f+1     :     0.002332
      f-1     :     0.002332
      f+2     :     0.000162
      f-2     :     0.000162
      f+3     :     0.006709
      f-3     :     0.000420
      g0      :     0.000070  g :     0.000173
      g+1     :     0.000011
      g-1     :     0.000011
      g+2     :     0.000014
      g-2     :     0.000014
      g+3     :     0.000001
      g-3     :     0.000000
      g+4     :     0.000026
      g-4     :     0.000026
  1 C s       :     2.946269  s :     2.946269
      pz      :     0.554702  p :     2.247219
      px      :     1.090761
      py      :     0.601756
      dz2     :     0.073405  d :     0.775444
      dxz     :     0.237263
      dyz     :     0.007091
      dx2y2   :     0.202447
      dxy     :     0.255239
      f0      :     0.011878  f :     0.093511
      f+1     :     0.010576
      f-1     :     0.001979
      f+2     :     0.020090
      f-2     :     0.000293
      f+3     :     0.018126
      f-3     :     0.030570
  2 O s       :     3.377811  s :     3.377811
      pz      :     1.307995  p :     4.283903
      px      :     1.622883
      py      :     1.353025
      dz2     :     0.028583  d :     0.183177
      dxz     :     0.028982
      dyz     :     0.000010
      dx2y2   :     0.082860
      dxy     :     0.042743
      f0      :     0.000503  f :     0.006994
      f+1     :     0.001496
      f-1     :     0.000095
      f+2     :     0.000865
      f-2     :     0.000001
      f+3     :     0.002530
      f-3     :     0.001504
  3 C s       :     2.938789  s :     2.938789
      pz      :     1.109006  p :     2.248020
      px      :     0.569504
      py      :     0.569509
      dz2     :     0.247628  d :     0.788390
      dxz     :     0.252686
      dyz     :     0.252682
      dx2y2   :     0.017696
      dxy     :     0.017698
      f0      :     0.027538  f :     0.093817
      f+1     :     0.032797
      f-1     :     0.032797
      f+2     :     0.000328
      f-2     :     0.000328
      f+3     :     0.000027
      f-3     :     0.000003
  4 O s       :     3.372535  s :     3.372535
      pz      :     1.620005  p :     4.269893
      px      :     1.324944
      py      :     1.324944
      dz2     :     0.112362  d :     0.178653
      dxz     :     0.033120
      dyz     :     0.033121
      dx2y2   :     0.000025
      dxy     :     0.000025
      f0      :     0.004034  f :     0.006923
      f+1     :     0.001443
      f-1     :     0.001443
      f+2     :     0.000001
      f-2     :     0.000001
      f+3     :     0.000000
      f-3     :     0.000000
  5 C s       :     2.938789  s :     2.938789
      pz      :     1.109006  p :     2.248020
      px      :     0.569504
      py      :     0.569509
      dz2     :     0.247628  d :     0.788390
      dxz     :     0.252686
      dyz     :     0.252682
      dx2y2   :     0.017696
      dxy     :     0.017698
      f0      :     0.027538  f :     0.093817
      f+1     :     0.032797
      f-1     :     0.032797
      f+2     :     0.000328
      f-2     :     0.000328
      f+3     :     0.000027
      f-3     :     0.000003
  6 O s       :     3.372535  s :     3.372535
      pz      :     1.620005  p :     4.269893
      px      :     1.324944
      py      :     1.324944
      dz2     :     0.112362  d :     0.178653
      dxz     :     0.033120
      dyz     :     0.033121
      dx2y2   :     0.000025
      dxy     :     0.000025
      f0      :     0.004034  f :     0.006923
      f+1     :     0.001443
      f-1     :     0.001443
      f+2     :     0.000001
      f-2     :     0.000001
      f+3     :     0.000000
      f-3     :     0.000000
  7 C s       :     2.946276  s :     2.946276
      pz      :     0.554707  p :     2.247228
      px      :     0.723994
      py      :     0.968526
      dz2     :     0.073405  d :     0.775422
      dxz     :     0.064629
      dyz     :     0.179711
      dx2y2   :     0.242035
      dxy     :     0.215643
      f0      :     0.011878  f :     0.093514
      f+1     :     0.004128
      f-1     :     0.008427
      f+2     :     0.005243
      f-2     :     0.015141
      f+3     :     0.018126
      f-3     :     0.030571
  8 O s       :     3.377804  s :     3.377804
      pz      :     1.307985  p :     4.283887
      px      :     1.420477
      py      :     1.555425
      dz2     :     0.028583  d :     0.183177
      dxz     :     0.007252
      dyz     :     0.021739
      dx2y2   :     0.052773
      dxy     :     0.072829
      f0      :     0.000503  f :     0.006995
      f+1     :     0.000446
      f-1     :     0.001146
      f+2     :     0.000217
      f-2     :     0.000649
      f+3     :     0.002530
      f-3     :     0.001504
  9 C s       :     2.946279  s :     2.946279
      pz      :     0.554707  p :     2.247227
      px      :     0.723993
      py      :     0.968527
      dz2     :     0.073404  d :     0.775417
      dxz     :     0.064628
      dyz     :     0.179710
      dx2y2   :     0.242034
      dxy     :     0.215642
      f0      :     0.011878  f :     0.093514
      f+1     :     0.004128
      f-1     :     0.008427
      f+2     :     0.005243
      f-2     :     0.015141
      f+3     :     0.018125
      f-3     :     0.030571
 10 O s       :     3.377804  s :     3.377804
      pz      :     1.307985  p :     4.283886
      px      :     1.420476
      py      :     1.555426
      dz2     :     0.028583  d :     0.183177
      dxz     :     0.007252
      dyz     :     0.021739
      dx2y2   :     0.052772
      dxy     :     0.072829
      f0      :     0.000503  f :     0.006995
      f+1     :     0.000446
      f-1     :     0.001146
      f+2     :     0.000217
      f-2     :     0.000649
      f+3     :     0.002530
      f-3     :     0.001504


                      *****************************
                      * MAYER POPULATION ANALYSIS *
                      *****************************

  NA   - Mulliken gross atomic population
  ZA   - Total nuclear charge
  QA   - Mulliken gross atomic charge
  VA   - Mayer's total valence
  BVA  - Mayer's bonded valence
  FA   - Mayer's free valence

  ATOM       NA         ZA         QA         VA         BVA        FA
  0 Fe    25.0479    26.0000     0.9521     2.8067     2.8067     0.0000
  1 C      6.0116     6.0000    -0.0116     2.8364     2.8364    -0.0000
  2 O      8.2572     8.0000    -0.2572     2.2661     2.2661     0.0000
  3 C      5.8449     6.0000     0.1551     3.2901     3.2901    -0.0000
  4 O      8.2260     8.0000    -0.2260     2.3229     2.3229     0.0000
  5 C      5.8450     6.0000     0.1550     3.2899     3.2899    -0.0000
  6 O      8.2260     8.0000    -0.2260     2.3230     2.3230    -0.0000
  7 C      6.0135     6.0000    -0.0135     2.8354     2.8354    -0.0000
  8 O      8.2572     8.0000    -0.2572     2.2661     2.2661     0.0000
  9 C      6.0136     6.0000    -0.0136     2.8350     2.8350     0.0000
 10 O      8.2571     8.0000    -0.2571     2.2661     2.2661     0.0000

  Mayer bond orders larger than 0.100000
B(  0-Fe,  1-C ) :   0.4420 B(  0-Fe,  3-C ) :   0.7299 B(  0-Fe,  5-C ) :   0.7297 
B(  0-Fe,  7-C ) :   0.4406 B(  0-Fe,  9-C ) :   0.4403 B(  1-C ,  2-O ) :   2.2557 
B(  3-C ,  4-O ) :   2.2604 B(  5-C ,  6-O ) :   2.2605 B(  7-C ,  8-O ) :   2.2557 
B(  9-C , 10-O ) :   2.2557 

-------
TIMINGS
-------

Total SCF time: 0 days 0 hours 3 min 32 sec 

Total time                  ....     212.924 sec
Sum of individual times     ....     211.702 sec  ( 99.4%)

Fock matrix formation       ....     202.994 sec  ( 95.3%)
  XC integration            ....     180.432 sec  ( 88.9% of F)
    Basis function eval.    ....       0.358 sec  (  0.2% of XC)
    Density eval.           ....       0.340 sec  (  0.2% of XC)
    XC-Functional eval.     ....       0.034 sec  (  0.0% of XC)
    XC-Potential eval.      ....       0.608 sec  (  0.3% of XC)
Diagonalization             ....       3.566 sec  (  1.7%)
Density matrix formation    ....       0.113 sec  (  0.1%)
Population analysis         ....       0.280 sec  (  0.1%)
Initial guess               ....       0.653 sec  (  0.3%)
Orbital Transformation      ....       0.000 sec  (  0.0%)
Orbital Orthonormalization  ....       0.000 sec  (  0.0%)
DIIS solution               ....       1.659 sec  (  0.8%)
Grid generation             ....       2.437 sec  (  1.1%)


           ************************************************************
           *        Program running with 28 parallel MPI-processes    *
           *              working on a common directory               *
           ************************************************************

------------------------------------------------------------------------------
                                ORCA  MP2 
------------------------------------------------------------------------------

Freezing NCore=30 chemical core electrons

-------------
RI-MP2 ENERGY
-------------
Dimension of the basis                    ...  452
Memory devoted to MP2                     ... 5000 MB   
Data format for buffers                   ... DOUBLE
Compression type for matrix containers    ... UNCOMPRESSED
Overall scaling of the MP2 energy         ...   2.700e-01
Calculating two index integrals           ... done (    0.016 sec)
Cholesky decomposition of V**-1           ... done (    0.300 sec)

-----------------
RI-TRANSFORMATION (AUX index driven)
-----------------

Dimension of the orbital-basis         ... 452
Dimension of the aux-basis             ... 1145
Transformation of internal/external MOs...   15-  47 to   48- 451
Number Format for Storage              ... Double (8 Byte)
Integral mode                          ... Direct

First Phase: integral generation and transformation of MO indices
  Aux angular momentum 0               ... done (    0.026 sec)
  Aux angular momentum 1               ... done (    0.040 sec)
  Aux angular momentum 2               ... done (    0.065 sec)
  Aux angular momentum 3               ... done (    0.061 sec)
  Aux angular momentum 4               ... done (    0.045 sec)
  Aux angular momentum 5               ... done (    0.072 sec)
  Aux angular momentum 6               ... done (    0.099 sec)
Closing buffer VIA ( 0.11 GB; CompressionRatio= 1.00)
  Phase 1 completed in     2.362 sec
Second Phase: sorting and transformation of aux index

IA-Transformation
Memory available                       ... 4975 MB 
Max. # MO pairs treated in a batch     ... 2    
# of internal orbitals                 ... 33
# batches for internal orbitals        ... 1
Closing buffer IAV ( 0.01 GB; CompressionRatio= 1.00)
(ia|v) transformation done in     0.413 sec

  Phase 2 completed in     2.118 sec
RI-Integral transformation completed in     5.031 sec
Opening buffers                              ... done

Starting loop over batches of integrals:

Operator 0  - window                       ... ( 15- 47)x( 48-451)
Operator 0  - Memory available             ...  5000 MB
Operator 0  - Memory needed per MO         ...   3.5 MB
Operator 0  - Number of orbitals per batch ... 2
Operator 0  - Number of batches            ... 1

OPERATOR  0   PASS   0:  MOs    15 ...   16 +   17 ...   18 +   19 ...   20 +   21 ...   22
                            +   23 ...   24 +   25 ...   26 +   27 ...   28 +   29 ...   30
                            +   31 ...   32 +   33 ...   34 +   35 ...   36 +   37 ...   38
                            +   39 ...   40 +   41 ...   42 +   43 ...   44 +   45 ...   46
                            +   47 ...   47
  Reading integrals       ... ok
Time spent in pair loops =     0.054 sec
Deleting buffer (Ka|jb)[aa] ...done

-----------------------------------------------
 RI-MP2 CORRELATION ENERGY:     -1.002316746 Eh
-----------------------------------------------


-------
TIMINGS
-------

Total time                :    7.011 sec
Integral trafo            :    5.044 sec ( 71.9%)
I/O of integrals          :    0.007 sec (  0.1%)
K(i,j) Operators          :    0.036 sec (  0.5%)
T(i,j) pair energies      :    0.004 sec (  0.1%)
V-calculation             :    0.016 sec (  0.2%)
V**(-1/2)                 :    0.300 sec (  4.3%)
Gamma(ia|P)               :    0.000 sec (  0.0%)
Gamma-Trafo               :    0.000 sec (  0.0%)
D(virtual)                :    0.000 sec (  0.0%)
D(internal)               :    0.000 sec (  0.0%)
W(virtual)                :    0.000 sec (  0.0%)
W(internal)               :    0.000 sec (  0.0%)
L(virtual)                :    0.000 sec (  0.0%)
L(internal)               :    0.000 sec (  0.0%)
G(D)                      :    0.000 sec (  0.0%)
G(Z)                      :    0.000 sec (  0.0%)
Z-Vector Solution         :    0.000 sec (  0.0%)
Z-Vector Solution         :    0.000 sec (  0.0%)
3-Index Derivative 
+ Separable RIJ part      :    0.000 sec (  0.0%)
2-Index Derivative 
+ Separable RIJ part      :    0.000 sec (  0.0%)
Separable Gradient (X)    :    0.000 sec (  0.0%)


---------------------------------------
MP2 TOTAL ENERGY:    -1830.224977740 Eh
---------------------------------------


-------------------------------------------------------------------------------
                          DFT DISPERSION CORRECTION                            
                                                                               
                              DFTD3 V3.1  Rev 1                                
                          USING Becke-Johnson damping                          
-------------------------------------------------------------------------------
The B2PLYP functional is recognized
Active option DFTDOPT                   ...         4   

molecular C6(AA) [au] = 3441.509033 


            DFT-D V3
 parameters
 s6 scaling factor         :     0.6400 
 a1 scaling factor         :     0.3065 
 s8 scaling factor         :     0.9147 
 a2 scaling factor         :     5.0570 
 ad hoc parameters k1-k3   :    16.0000     1.3333    -4.0000 

 Edisp/kcal,au: -7.785549628259  -0.012407061757 
 E6   /kcal   :  -3.754288710 
 E8   /kcal   :  -4.031260919 
 % E8         :  51.778758227 

-------------------------   ----------------
Dispersion correction           -0.012407062
-------------------------   ----------------


-------------------------   --------------------
FINAL SINGLE POINT ENERGY     -1830.237384801537
-------------------------   --------------------


                            ***************************************
                            *     ORCA property calculations      *
                            ***************************************


  WARNING: The energy has been calculated at the MP2 level but the densities
           used in the property calculations are still SCF densities
           MP2 response densities have not been calculated 
           use %mp2 Density relaxed end
           or  %mp2 Density unrelaxed end

                                    ---------------------
                                    Active property flags
                                    ---------------------
   (+) Dipole Moment


------------------------------------------------------------------------------
                       ORCA ELECTRIC PROPERTIES CALCULATION
------------------------------------------------------------------------------

Dipole Moment Calculation                       ... on
Quadrupole Moment Calculation                   ... off
Polarizability Calculation                      ... off
GBWName                                         ... FeCO5.gbw
Electron density file                           ... FeCO5.scfp
The origin for moment calculation is the CENTER OF MASS  = (-0.381213, -0.136152 -0.000000)

-------------
DIPOLE MOMENT
-------------
                                X             Y             Z
Electronic contribution:     -0.00015       0.00001       0.00000
Nuclear contribution   :      0.00000       0.00001       0.00000
                        -----------------------------------------
Total Dipole Moment    :     -0.00015       0.00001       0.00000
                        -----------------------------------------
Magnitude (a.u.)       :      0.00015
Magnitude (Debye)      :      0.00038



--------------------
Rotational spectrum 
--------------------
 
Rotational constants in cm-1:     0.029097     0.024940     0.024940 
Rotational constants in MHz :   872.297468   747.684312   747.683291 

 Dipole components along the rotational axes: 
x,y,z [a.u.] :     0.000000    -0.000140    -0.000055 
x,y,z [Debye]:     0.000000    -0.000357    -0.000139 

 

Timings for individual modules:

Sum of individual times         ...      233.934 sec (=   3.899 min)
GTO integral calculation        ...        7.117 sec (=   0.119 min)   3.0 %
SCF iterations                  ...      215.753 sec (=   3.596 min)  92.2 %
MP2 module                      ...       11.063 sec (=   0.184 min)   4.7 %
                             ****ORCA TERMINATED NORMALLY****
TOTAL RUN TIME: 0 days 0 hours 4 minutes 8 seconds 819 msec
