
                                 *****************
                                 * O   R   C   A *
                                 *****************

           --- An Ab Initio, DFT and Semiempirical electronic structure package ---

                  #######################################################
                  #                        -***-                        #
                  #          Department of theory and spectroscopy      #
                  #               Directorship: Frank Neese             #
                  #        Max Planck Institute fuer Kohlenforschung    #
                  #                Kaiser Wilhelm Platz 1               #
                  #                 D-45470 Muelheim/Ruhr               #
                  #                      Germany                        #
                  #                                                     #
                  #                  All rights reserved                #
                  #                        -***-                        #
                  #######################################################


                         Program Version 4.2.0 -  RELEASE  -


 With contributions from (in alphabetic order):
   Daniel Aravena         : Magnetic Suceptibility
   Michael Atanasov       : Ab Initio Ligand Field Theory (pilot matlab implementation)
   Alexander A. Auer      : GIAO ZORA, VPT2
   Ute Becker             : Parallelization
   Giovanni Bistoni       : ED, misc. LED, open-shell LED, HFLED
   Martin Brehm           : Molecular dynamics
   Dmytro Bykov           : SCF Hessian
   Vijay G. Chilkuri      : MRCI spin determinant printing, contributions to CSF-ICE
   Dipayan Datta          : RHF DLPNO-CCSD density
   Achintya Kumar Dutta   : EOM-CC, STEOM-CC
   Dmitry Ganyushin       : Spin-Orbit,Spin-Spin,Magnetic field MRCI
   Miquel Garcia          : C-PCM Hessian, Gaussian charge scheme
   Yang Guo               : DLPNO-NEVPT2, CIM, IAO-localization
   Andreas Hansen         : Spin unrestricted coupled pair/coupled cluster methods
   Benjamin Helmich-Paris : CASSCF linear response (MC-RPA)
   Lee Huntington         : MR-EOM, pCC
   Robert Izsak           : Overlap fitted RIJCOSX, COSX-SCS-MP3, EOM
   Christian Kollmar      : KDIIS, OOCD, Brueckner-CCSD(T), CCSD density
   Simone Kossmann        : Meta GGA functionals, TD-DFT gradient, OOMP2, MP2 Hessian
   Martin Krupicka        : AUTO-CI
   Lucas Lang             : DCDCAS
   Dagmar Lenk            : GEPOL surface, SMD
   Dimitrios Liakos       : Extrapolation schemes; Compound Job, initial MDCI parallelization
   Dimitrios Manganas     : Further ROCIS development; embedding schemes
   Dimitrios Pantazis     : SARC Basis sets
   Taras Petrenko         : DFT Hessian,TD-DFT gradient, ASA, ECA, R-Raman, ABS, FL, XAS/XES, NRVS
   Peter Pinski           : DLPNO-MP2, DLPNO-MP2 Gradient
   Christoph Reimann      : Effective Core Potentials
   Marius Retegan         : Local ZFS, SOC
   Christoph Riplinger    : Optimizer, TS searches, QM/MM, DLPNO-CCSD(T), (RO)-DLPNO pert. Triples
   Tobias Risthaus        : Range-separated hybrids, TD-DFT gradient, RPA, STAB
   Michael Roemelt        : Original ROCIS implementation
   Masaaki Saitow         : Open-shell DLPNO-CCSD energy and density
   Barbara Sandhoefer     : DKH picture change effects
   Avijit Sen             : IP-ROCIS
   Kantharuban Sivalingam : CASSCF convergence, NEVPT2, FIC-MRCI
   Bernardo de Souza      : ESD, SOC TD-DFT
   Georgi Stoychev        : AutoAux, RI-MP2 NMR
   Willem Van den Heuvel  : Paramagnetic NMR
   Boris Wezisla          : Elementary symmetry handling
   Frank Wennmohs         : Technical directorship


 We gratefully acknowledge several colleagues who have allowed us to
 interface, adapt or use parts of their codes:
   Stefan Grimme, W. Hujo, H. Kruse,             : VdW corrections, initial TS optimization,
                  C. Bannwarth                     DFT functionals, gCP, sTDA/sTD-DF
   Ed Valeev, F. Pavosevic, A. Kumar             : LibInt (2-el integral package), F12 methods
   Garnet Chan, S. Sharma, J. Yang, R. Olivares  : DMRG
   Ulf Ekstrom                                   : XCFun DFT Library
   Mihaly Kallay                                 : mrcc  (arbitrary order and MRCC methods)
   Andreas Klamt, Michael Diedenhofen            : otool_cosmo (COSMO solvation model)
   Jiri Pittner, Ondrej Demel                    : Mk-CCSD
   Frank Weinhold                                : gennbo (NPA and NBO analysis)
   Christopher J. Cramer and Donald G. Truhlar   : smd solvation model
   Lars Goerigk                                  : TD-DFT with DH, B97 family of functionals
   V. Asgeirsson, H. Jonsson                     : NEB implementation
   FAccTs GmbH                                   : IRC, NEB, NEB-TS, Multilevel, MM, QM/MM, CI optimization
   S Lehtola, MJT Oliveira, MAL Marques          : LibXC Library


 Your calculation uses the libint2 library for the computation of 2-el integrals
 For citations please refer to: http://libint.valeyev.net

 Your ORCA version has been built with support for libXC version: 4.2.3
 For citations please refer to: https://tddft.org/programs/libxc/

 This ORCA versions uses:
   CBLAS   interface :  Fast vector & matrix operations
   LAPACKE interface :  Fast linear algebra routines
   SCALAPACK package :  Parallel linear algebra routines


Your calculation utilizes the atom-pairwise dispersion correction
with the Becke-Johnson damping scheme (D3BJ)
Cite in your paper:
S.Grimme, S.Ehrlich, L.Goerigk, J Comput Chem, (2011), 32, 1456–1465 
S.Grimme, J.Antony, S.Ehrlich and H.Krieg, J.Chem.Phys., 132, (2010), 154104 
   

----- Orbital basis set information -----
Your calculation utilizes the basis: def2-TZVPPD
   F. Weigend and R. Ahlrichs, Phys. Chem. Chem. Phys. 7, 3297 (2005).
   D. Rappoport and F. Furche, J. Chem. Phys. 133 134105 (2010).

----- AuxC basis set information -----
Your calculation utilizes the auxiliary basis: def2-TZVPPD/C
   A. Hellweg, C. Hattig, S. Hofener and W. Klopper, Theor. Chem. Acc. 117, 587 (2007).

----- AuxJK basis set information -----
Your calculation utilizes the auxiliary basis: def2/JK
   H-Ba, Hf-Rn: F. Weigend, J. Comput. Chem. 29, 167 (2008).

================================================================================
                                        WARNINGS
                       Please study these warnings very carefully!
================================================================================


WARNING: your system is open-shell and RHF/RKS was chosen
  ===> : WILL SWITCH to UHF/UKS


WARNING: No MP2 level density has been requested!
         To caclulate MP2 level properties use
         %mp2 Density relaxed end
         or
         %mp2 Density unrelaxed end
         Otherwise for double-hybrid DFT only the energy is correct!

WARNING: The frozen-core approximation is turned on by default for 
         the MP2 part of double-hybrid DFT.

INFO   : the flag for use of LIBINT has been found!

================================================================================
                                       INPUT FILE
================================================================================
NAME = Ni+.in
|  1> #
|  2> # Ni+ ri-B2PLYP-D3BJ/Def2-TZVPPD
|  3> #
|  4> ! rijk ri-b2plyp d3bj def2-tzvppd def2/jk def2-tzvppd/c grid4 nofinalgrid
|  5> 
|  6> *xyz 1 2
|  7> Ni         0.00000        0.00000        0.00000
|  8> *
|  9> 
| 10> %maxcore 5000
| 11> 
| 12> %pal
| 13> nprocs = 28
| 14> end
| 15> 
| 16> 
| 17>                          ****END OF INPUT****
================================================================================

                       ****************************
                       * Single Point Calculation *
                       ****************************

---------------------------------
CARTESIAN COORDINATES (ANGSTROEM)
---------------------------------
  Ni     0.000000    0.000000    0.000000

----------------------------
CARTESIAN COORDINATES (A.U.)
----------------------------
  NO LB      ZA    FRAG     MASS         X           Y           Z
   0 Ni   28.0000    0    58.700    0.000000    0.000000    0.000000

--------------------------------
INTERNAL COORDINATES (ANGSTROEM)
--------------------------------
 Ni     0   0   0     0.000000000000     0.00000000     0.00000000

---------------------------
INTERNAL COORDINATES (A.U.)
---------------------------
 Ni     0   0   0     0.000000000000     0.00000000     0.00000000

---------------------
BASIS SET INFORMATION
---------------------
There are 1 groups of distinct atoms

 Group   1 Type Ni  : 17s13p7d2f1g contracted to 6s6p4d2f1g pattern {842111/631111/4111/11/1}

Atom   0Ni   basis set group =>   1
---------------------------------
AUXILIARY/C BASIS SET INFORMATION
---------------------------------
There are 1 groups of distinct atoms

 Group   1 Type Ni  : 10s10p9d7f5g3h1i contracted to 10s10p9d7f5g3h1i pattern {1111111111/1111111111/111111111/1111111/11111/111/1}

Atom   0Ni   basis set group =>   1
----------------------------------
AUXILIARY/JK BASIS SET INFORMATION
----------------------------------
There are 1 groups of distinct atoms

 Group   1 Type Ni  : 19s14p12d10f7g3h1i contracted to 16s13p11d9f5g3h1i pattern {4111111111111111/2111111111111/21111111111/211111111/31111/111/1}

Atom   0Ni   basis set group =>   1


           ************************************************************
           *        Program running with 28 parallel MPI-processes    *
           *              working on a common directory               *
           ************************************************************
------------------------------------------------------------------------------
                           ORCA GTO INTEGRAL CALCULATION
                           -- RI-GTO INTEGRALS CHOSEN --
------------------------------------------------------------------------------

                         BASIS SET STATISTICS AND STARTUP INFO

Gaussian basis set:
 # of primitive gaussian shells          ...   40
 # of primitive gaussian functions       ...  114
 # of contracted shells                  ...   19
 # of contracted basis functions         ...   67
 Highest angular momentum                ...    4
 Maximum contraction depth               ...    8
Auxiliary gaussian basis set:
 # of primitive gaussian shells          ...   66
 # of primitive gaussian functions       ...  300
 # of contracted shells                  ...   58
 # of contracted aux-basis functions     ...  264
 Highest angular momentum                ...    6
 Maximum contraction depth               ...    4
Ratio of auxiliary to basis functions    ...  3.94
Integral package used                  ... LIBINT
 One Electron integrals                  ... done
 Ordering auxiliary basis shells         ... done
 Integral threshhold             Thresh  ...  1.000e-10
 Primitive cut-off               TCut    ...  1.000e-11
 Pre-screening matrix                    ... done
 Shell pair data                         ... 
 Ordering of the shell pairs             ... done (   0.000 sec) 190 of 190 pairs
 Determination of significant pairs      ... done (   0.000 sec)
 Creation of shell pair data             ... done (   0.000 sec)
 Storage of shell pair data              ... done (   0.061 sec)
 Shell pair data done in (   0.062 sec)
 Computing two index integrals           ... done
 Cholesky decomposition of the V-matrix  ... done


Timings:
 Total evaluation time                   ...   0.666 sec (  0.011 min)
 One electron matrix time                ...   0.160 sec (  0.003 min) = 24.0%
 Schwartz matrix evaluation time         ...   0.200 sec (  0.003 min) = 30.0%
 Two index repulsion integral time       ...   0.073 sec (  0.001 min) = 10.9%
 Cholesky decomposition of V             ...   0.102 sec (  0.002 min) = 15.3%
 Three index repulsion integral time     ...   0.000 sec (  0.000 min) =  0.0%



           ************************************************************
           *        Program running with 28 parallel MPI-processes    *
           *              working on a common directory               *
           ************************************************************
-------------------------------------------------------------------------------
                                 ORCA SCF
-------------------------------------------------------------------------------

------------
SCF SETTINGS
------------
Hamiltonian:
 Density Functional     Method          .... DFT(GTOs)
 Exchange Functional    Exchange        .... B88
   X-Alpha parameter    XAlpha          ....  0.666667
   Becke's b parameter  XBeta           ....  0.004200
 Correlation Functional Correlation     .... LYP
 LDA part of GGA corr.  LDAOpt          .... VWN-3
 Gradients option       PostSCFGGA      .... off
 Hybrid DFT is turned on
   Fraction HF Exchange ScalHFX         ....  0.530000
   Scaling of DF-GGA-X  ScalDFX         ....  0.470000
   Scaling of DF-GGA-C  ScalDFC         ....  0.730000
   Scaling of DF-LDA-C  ScalLDAC        ....  0.730000
   Perturbative correction              ....  0.270000
   Density functional embedding theory  .... OFF
 RI-approximation to the Coulomb term is turned on
   Number of auxiliary basis functions  .... 264
   RI-JK (J+K treated both via RI)      .... on


General Settings:
 Integral files         IntName         .... Ni+
 Hartree-Fock type      HFTyp           .... UHF
 Total Charge           Charge          ....    1
 Multiplicity           Mult            ....    2
 Number of Electrons    NEL             ....   27
 Basis Dimension        Dim             ....   67
 Nuclear Repulsion      ENuc            ....      0.0000000000 Eh

Convergence Acceleration:
 DIIS                   CNVDIIS         .... on
   Start iteration      DIISMaxIt       ....    12
   Startup error        DIISStart       ....  0.200000
   # of expansion vecs  DIISMaxEq       ....     5
   Bias factor          DIISBfac        ....   1.050
   Max. coefficient     DIISMaxC        ....  10.000
 Newton-Raphson         CNVNR           .... off
 SOSCF                  CNVSOSCF        .... off
 Level Shifting         CNVShift        .... on
   Level shift para.    LevelShift      ....    0.2500
   Turn off err/grad.   ShiftErr        ....    0.0010
 Zerner damping         CNVZerner       .... off
 Static damping         CNVDamp         .... on
   Fraction old density DampFac         ....    0.7000
   Max. Damping (<1)    DampMax         ....    0.9800
   Min. Damping (>=0)   DampMin         ....    0.0000
   Turn off err/grad.   DampErr         ....    0.1000
 Fernandez-Rico         CNVRico         .... off

SCF Procedure:
 Maximum # iterations   MaxIter         ....   125
 SCF integral mode      SCFMode         .... Direct
   Integral package                     .... LIBINT
 Reset frequency        DirectResetFreq ....    20
 Integral Threshold     Thresh          ....  1.000e-10 Eh
 Primitive CutOff       TCut            ....  1.000e-11 Eh

Convergence Tolerance:
 Convergence Check Mode ConvCheckMode   .... Total+1el-Energy
 Convergence forced     ConvForced      .... 0
 Energy Change          TolE            ....  1.000e-06 Eh
 1-El. energy change                    ....  1.000e-03 Eh
 DIIS Error             TolErr          ....  1.000e-06


Diagonalization of the overlap matrix:
Smallest eigenvalue                        ... 4.474e-02
Time for diagonalization                   ...    0.009 sec
Threshold for overlap eigenvalues          ... 1.000e-08
Number of eigenvalues below threshold      ... 0
Time for construction of square roots      ...    0.059 sec
Total time needed                          ...    0.068 sec

-------------------
DFT GRID GENERATION
-------------------

General Integration Accuracy     IntAcc      ...  4.670
Radial Grid Type                 RadialGrid  ... Gauss-Chebyshev
Angular Grid (max. acc.)         AngularGrid ... Lebedev-302
Angular grid pruning method      GridPruning ... 3 (G Style)
Weight generation scheme         WeightScheme... Becke
Basis function cutoff            BFCut       ...    1.0000e-10
Integration weight cutoff        WCut        ...    1.0000e-14
Grids for H and He will be reduced by one unit

# of grid points (after initial pruning)     ...   9664 (   0.0 sec)
# of grid points (after weights+screening)   ...   9664 (   0.0 sec)
Grid point division into batches done        ...    0.1 sec
Reduced shell lists constructed in    0.1 sec

Total number of grid points                  ...     9664
Total number of batches                      ...      152
Average number of points per batch           ...       63
Average number of grid points per atom       ...     9664
Average number of shells per batch           ...     3.43 (18.05%)
Average number of basis functions per batch  ...    10.29 (15.35%)
Average number of large shells per batch     ...     1.71 (50.00%)
Average number of large basis fcns per batch ...     3.43 (33.33%)
Average number of aux-shells per batch       ...     3.43 ( 5.91%)
Average number of aux functions per batch    ...    10.29 ( 3.90%)
Maximum spatial batch extension              ...  20.42, 20.42, 20.42 au
Average spatial batch extension              ...   0.71,  0.70,  0.68 au

Time for grid setup =    2.245 sec

------------------------------
INITIAL GUESS: MODEL POTENTIAL
------------------------------
Loading Hartree-Fock densities                     ... done
Calculating cut-offs                               ... done
Setting up the integral package                    ... done
Initializing the effective Hamiltonian             ... done
Starting the Coulomb interaction                   ... done (   0.0 sec)
Reading the grid                                   ... done
Mapping shells                                     ... done
Starting the XC term evaluation                    ... done (   0.0 sec)
  promolecular density results
     # of electrons  =     28.000038162
     EX              =    -61.794391803
     EC              =     -0.490415621
     EX+EC           =    -62.284807424
Transforming the Hamiltonian                       ... done (   0.0 sec)
Diagonalizing the Hamiltonian                      ... done (   0.0 sec)
Back transforming the eigenvectors                 ... done (   0.0 sec)
Now organizing SCF variables                       ... done
                      ------------------
                      INITIAL GUESS DONE (   2.8 sec)
                      ------------------
--------------
SCF ITERATIONS
--------------
ITER       Energy         Delta-E        Max-DP      RMS-DP      [F,P]     Damp
  0  -1507.5842943286   0.000000000000 0.00963036  0.00046186  0.1541197 0.7000
  1  -1507.5056078431   0.078686485507 0.00609454  0.00027860  0.0880173 0.7000
                               ***Turning on DIIS***
  2  -1507.5491046471  -0.043496803982 0.00853158  0.00040369  0.0284853 0.0000
  3  -1507.6038733005  -0.054768653371 0.00477252  0.00020940  0.0237519 0.0000
  4  -1507.6040264168  -0.000153116382 0.00210347  0.00010078  0.0205498 0.0000
  5  -1507.6043554137  -0.000328996873 0.00043745  0.00001630  0.0019780 0.0000
  6  -1507.6043616709  -0.000006257159 0.00057184  0.00001335  0.0003546 0.0000
  7  -1507.6043635173  -0.000001846386 0.00047642  0.00001103  0.0001981 0.0000
                 **** Energy Check signals convergence ****

               *****************************************************
               *                     SUCCESS                       *
               *           SCF CONVERGED AFTER   8 CYCLES          *
               *****************************************************


----------------
TOTAL SCF ENERGY
----------------

Total Energy       :        -1507.60436436 Eh          -41024.00037 eV

Components:
Nuclear Repulsion  :            0.00000000 Eh               0.00000 eV
Electronic Energy  :        -1507.60436436 Eh          -41024.00037 eV
One Electron Energy:        -2089.61421478 Eh          -56861.29356 eV
Two Electron Energy:          582.00985042 Eh           15837.29318 eV

Virial components:
Potential Energy   :        -3013.51742954 Eh          -82001.97816 eV
Kinetic Energy     :         1505.91306518 Eh           40977.97778 eV
Virial Ratio       :            2.00112311


DFT components:
N(Alpha)           :       14.000000568480 electrons
N(Beta)            :       13.000000568544 electrons
N(Total)           :       27.000001137024 electrons
E(X)               :      -29.096123694116 Eh       
E(C)               :       -0.938714122926 Eh       
E(XC)              :      -30.034837817042 Eh       
DFET-embed. en.    :        0.000000000000 Eh       

---------------
SCF CONVERGENCE
---------------

  Last Energy change         ...   -8.4521e-07  Tolerance :   1.0000e-06
  Last MAX-Density change    ...    2.9498e-04  Tolerance :   1.0000e-05
  Last RMS-Density change    ...    8.5494e-06  Tolerance :   1.0000e-06
  Last DIIS Error            ...    9.9110e-05  Tolerance :   1.0000e-06

             **** THE GBW FILE WAS UPDATED (Ni+.gbw) ****
             **** DENSITY FILE WAS UPDATED (Ni+.scfp) ****
             **** ENERGY FILE WAS UPDATED (Ni+.en.tmp) ****
----------------------
UHF SPIN CONTAMINATION
----------------------

Warning: in a DFT calculation there is little theoretical justification to 
         calculate <S**2> as in Hartree-Fock theory. We will do it anyways
         but you should keep in mind that the values have only limited relevance

Expectation value of <S**2>     :     0.751465
Ideal value S*(S+1) for S=0.5   :     0.750000
Deviation                       :     0.001465

             **** THE GBW FILE WAS UPDATED (Ni+.gbw) ****
             **** DENSITY FILE WAS UPDATED (Ni+.scfp) ****
----------------
ORBITAL ENERGIES
----------------
                 SPIN UP ORBITALS
  NO   OCC          E(Eh)            E(eV) 
   0   1.0000    -302.452267     -8230.1446 
   1   1.0000     -36.838251     -1002.4198 
   2   1.0000     -32.121589      -874.0729 
   3   1.0000     -32.093694      -873.3138 
   4   1.0000     -32.081296      -872.9764 
   5   1.0000      -4.589076      -124.8751 
   6   1.0000      -3.156752       -85.8996 
   7   1.0000      -3.099094       -84.3306 
   8   1.0000      -3.073778       -83.6418 
   9   1.0000      -0.716343       -19.4927 
  10   1.0000      -0.665307       -18.1039 
  11   1.0000      -0.655633       -17.8407 
  12   1.0000      -0.633644       -17.2423 
  13   1.0000      -0.632652       -17.2153 
  14   0.0000      -0.319529        -8.6948 
  15   0.0000      -0.177537        -4.8310 
  16   0.0000      -0.173001        -4.7076 
  17   0.0000      -0.170771        -4.6469 
  18   0.0000      -0.009498        -0.2584 
  19   0.0000      -0.008437        -0.2296 
  20   0.0000      -0.004748        -0.1292 
  21   0.0000      -0.002984        -0.0812 
  22   0.0000       0.049603         1.3498 
  23   0.0000       0.051190         1.3929 
  24   0.0000       0.052555         1.4301 
  25   0.0000       0.055387         1.5072 
  26   0.0000       0.055570         1.5121 
  27   0.0000       0.493120        13.4185 
  28   0.0000       0.504961        13.7407 
  29   0.0000       0.510365        13.8877 
  30   0.0000       0.877976        23.8909 
  31   0.0000       0.894355        24.3366 
  32   0.0000       0.898587        24.4518 
  33   0.0000       0.908118        24.7111 
  34   0.0000       0.908549        24.7229 
  35   0.0000       2.796257        76.0900 
  36   0.0000       2.834046        77.1183 
  37   0.0000       2.847046        77.4721 
  38   0.0000       2.879533        78.3561 
  39   0.0000       2.883376        78.4606 
  40   0.0000       2.892309        78.7037 
  41   0.0000       2.913791        79.2883 
  42   0.0000       2.914657        79.3119 
  43   0.0000       2.923448        79.5511 
  44   0.0000       2.923635        79.5562 
  45   0.0000       2.954199        80.3878 
  46   0.0000       4.061009       110.5057 
  47   0.0000       4.096844       111.4808 
  48   0.0000       4.104753       111.6960 
  49   0.0000       4.122653       112.1831 
  50   0.0000       4.123566       112.2079 
  51   0.0000      11.438004       311.2439 
  52   0.0000      11.444371       311.4172 
  53   0.0000      11.455560       311.7216 
  54   0.0000      11.476980       312.3045 
  55   0.0000      11.478260       312.3393 
  56   0.0000      11.507205       313.1270 
  57   0.0000      11.507242       313.1280 
  58   0.0000      11.510927       313.2282 
  59   0.0000      11.510934       313.2284 
  60   0.0000      11.819624       321.6283 
  61   0.0000      11.835966       322.0730 
  62   0.0000      11.848689       322.4192 
  63   0.0000      11.891617       323.5873 
  64   0.0000      11.892410       323.6089 
  65   0.0000      11.904424       323.9359 
  66   0.0000      11.904516       323.9383 

                 SPIN DOWN ORBITALS
  NO   OCC          E(Eh)            E(eV) 
   0   1.0000    -302.451730     -8230.1300 
   1   1.0000     -36.809726     -1001.6436 
   2   1.0000     -32.078480      -872.8998 
   3   1.0000     -32.071981      -872.7230 
   4   1.0000     -32.068850      -872.6378 
   5   1.0000      -4.518441      -122.9530 
   6   1.0000      -3.037301       -82.6492 
   7   1.0000      -3.032221       -82.5109 
   8   1.0000      -3.018969       -82.1503 
   9   1.0000      -0.645770       -17.5723 
  10   1.0000      -0.630298       -17.1513 
  11   1.0000      -0.595587       -16.2068 
  12   1.0000      -0.594094       -16.1661 
  13   0.0000      -0.314664        -8.5624 
  14   0.0000      -0.180888        -4.9222 
  15   0.0000      -0.173368        -4.7176 
  16   0.0000      -0.171397        -4.6640 
  17   0.0000      -0.170548        -4.6408 
  18   0.0000      -0.005386        -0.1466 
  19   0.0000      -0.005009        -0.1363 
  20   0.0000      -0.003306        -0.0900 
  21   0.0000      -0.002648        -0.0720 
  22   0.0000       0.051517         1.4019 
  23   0.0000       0.053381         1.4526 
  24   0.0000       0.057863         1.5745 
  25   0.0000       0.058077         1.5804 
  26   0.0000       0.083774         2.2796 
  27   0.0000       0.505873        13.7655 
  28   0.0000       0.510995        13.9049 
  29   0.0000       0.513104        13.9623 
  30   0.0000       0.898307        24.4442 
  31   0.0000       0.904110        24.6021 
  32   0.0000       0.917814        24.9750 
  33   0.0000       0.918353        24.9897 
  34   0.0000       0.955121        25.9902 
  35   0.0000       2.842463        77.3474 
  36   0.0000       2.853597        77.6503 
  37   0.0000       2.859474        77.8102 
  38   0.0000       2.915850        79.3443 
  39   0.0000       2.916672        79.3667 
  40   0.0000       2.935643        79.8829 
  41   0.0000       2.938395        79.9578 
  42   0.0000       2.942265        80.0631 
  43   0.0000       2.942976        80.0825 
  44   0.0000       2.951797        80.3225 
  45   0.0000       2.983366        81.1815 
  46   0.0000       4.109032       111.8124 
  47   0.0000       4.119728       112.1035 
  48   0.0000       4.143921       112.7618 
  49   0.0000       4.144996       112.7911 
  50   0.0000       4.179200       113.7218 
  51   0.0000      11.507094       313.1240 
  52   0.0000      11.508327       313.1575 
  53   0.0000      11.508452       313.1609 
  54   0.0000      11.511358       313.2400 
  55   0.0000      11.512694       313.2763 
  56   0.0000      11.518007       313.4209 
  57   0.0000      11.520506       313.4889 
  58   0.0000      11.537763       313.9585 
  59   0.0000      11.537767       313.9586 
  60   0.0000      11.900937       323.8410 
  61   0.0000      11.901848       323.8658 
  62   0.0000      11.924506       324.4823 
  63   0.0000      11.932202       324.6917 
  64   0.0000      11.942070       324.9603 
  65   0.0000      11.942118       324.9615 
  66   0.0000      11.951214       325.2091 

                    ********************************
                    * MULLIKEN POPULATION ANALYSIS *
                    ********************************

--------------------------------------------
MULLIKEN ATOMIC CHARGES AND SPIN POPULATIONS
--------------------------------------------
   0 Ni:    1.000000    1.000000
Sum of atomic charges         :    1.0000000
Sum of atomic spin populations:    1.0000000

-----------------------------------------------------
MULLIKEN REDUCED ORBITAL CHARGES AND SPIN POPULATIONS
-----------------------------------------------------
CHARGE
  0 Nis       :     6.000064  s :     6.000064
      pz      :     3.999923  p :    11.999767
      px      :     3.999935
      py      :     3.999910
      dz2     :     1.943367  d :     8.999877
      dxz     :     1.775818
      dyz     :     1.594225
      dx2y2   :     1.959516
      dxy     :     1.726951
      f0      :     0.000034  f :     0.000233
      f+1     :     0.000017
      f-1     :     0.000032
      f+2     :     0.000020
      f-2     :     0.000066
      f+3     :     0.000039
      f-3     :     0.000025
      g0      :     0.000003  g :     0.000059
      g+1     :     0.000004
      g-1     :     0.000007
      g+2     :     0.000004
      g-2     :     0.000006
      g+3     :     0.000011
      g-3     :     0.000007
      g+4     :     0.000008
      g-4     :     0.000008

SPIN
  0 Nis       :     0.000058  s :     0.000058
      pz      :     0.000037  p :     0.000063
      px      :     0.000014
      py      :     0.000011
      dz2     :     0.056610  d :     0.999917
      dxz     :     0.224170
      dyz     :     0.405749
      dx2y2   :     0.040457
      dxy     :     0.272931
      f0      :    -0.000013  f :    -0.000063
      f+1     :    -0.000014
      f-1     :    -0.000028
      f+2     :    -0.000008
      f-2     :    -0.000002
      f+3     :     0.000007
      f-3     :    -0.000005
      g0      :     0.000001  g :     0.000025
      g+1     :     0.000000
      g-1     :     0.000000
      g+2     :    -0.000001
      g-2     :     0.000004
      g+3     :     0.000008
      g-3     :     0.000005
      g+4     :     0.000004
      g-4     :     0.000004


                     *******************************
                     * LOEWDIN POPULATION ANALYSIS *
                     *******************************

-------------------------------------------
LOEWDIN ATOMIC CHARGES AND SPIN POPULATIONS
-------------------------------------------
   0 Ni:    1.000000    1.000000

----------------------------------------------------
LOEWDIN REDUCED ORBITAL CHARGES AND SPIN POPULATIONS
----------------------------------------------------
CHARGE
  0 Nis       :     6.000064  s :     6.000064
      pz      :     3.999923  p :    11.999767
      px      :     3.999935
      py      :     3.999910
      dz2     :     1.943367  d :     8.999877
      dxz     :     1.775818
      dyz     :     1.594225
      dx2y2   :     1.959516
      dxy     :     1.726951
      f0      :     0.000034  f :     0.000233
      f+1     :     0.000017
      f-1     :     0.000032
      f+2     :     0.000020
      f-2     :     0.000066
      f+3     :     0.000039
      f-3     :     0.000025
      g0      :     0.000003  g :     0.000059
      g+1     :     0.000004
      g-1     :     0.000007
      g+2     :     0.000004
      g-2     :     0.000006
      g+3     :     0.000011
      g-3     :     0.000007
      g+4     :     0.000008
      g-4     :     0.000008

SPIN
  0 Nis       :     0.000058  s :     0.000058
      pz      :     0.000037  p :     0.000063
      px      :     0.000014
      py      :     0.000011
      dz2     :     0.056610  d :     0.999917
      dxz     :     0.224170
      dyz     :     0.405749
      dx2y2   :     0.040457
      dxy     :     0.272931
      f0      :    -0.000013  f :    -0.000063
      f+1     :    -0.000014
      f-1     :    -0.000028
      f+2     :    -0.000008
      f-2     :    -0.000002
      f+3     :     0.000007
      f-3     :    -0.000005
      g0      :     0.000001  g :     0.000025
      g+1     :     0.000000
      g-1     :     0.000000
      g+2     :    -0.000001
      g-2     :     0.000004
      g+3     :     0.000008
      g-3     :     0.000005
      g+4     :     0.000004
      g-4     :     0.000004


                      *****************************
                      * MAYER POPULATION ANALYSIS *
                      *****************************

  NA   - Mulliken gross atomic population
  ZA   - Total nuclear charge
  QA   - Mulliken gross atomic charge
  VA   - Mayer's total valence
  BVA  - Mayer's bonded valence
  FA   - Mayer's free valence

  ATOM       NA         ZA         QA         VA         BVA        FA
  0 Ni    27.0000    28.0000     1.0000     1.0029     0.0000     1.0029

  Mayer bond orders larger than 0.100000


-------
TIMINGS
-------

Total SCF time: 0 days 0 hours 2 min 4 sec 

Total time                  ....     124.445 sec
Sum of individual times     ....     123.448 sec  ( 99.2%)

Fock matrix formation       ....     117.417 sec  ( 94.4%)
  XC integration            ....     112.268 sec  ( 95.6% of F)
    Basis function eval.    ....       0.010 sec  (  0.0% of XC)
    Density eval.           ....       0.010 sec  (  0.0% of XC)
    XC-Functional eval.     ....       0.016 sec  (  0.0% of XC)
    XC-Potential eval.      ....       0.015 sec  (  0.0% of XC)
Diagonalization             ....       2.173 sec  (  1.7%)
Density matrix formation    ....       0.005 sec  (  0.0%)
Population analysis         ....       0.990 sec  (  0.8%)
Initial guess               ....       0.540 sec  (  0.4%)
Orbital Transformation      ....       0.000 sec  (  0.0%)
Orbital Orthonormalization  ....       0.000 sec  (  0.0%)
DIIS solution               ....       0.076 sec  (  0.1%)
Grid generation             ....       2.245 sec  (  1.8%)


           ************************************************************
           *        Program running with 28 parallel MPI-processes    *
           *              working on a common directory               *
           ************************************************************

------------------------------------------------------------------------------
                                ORCA  MP2 
------------------------------------------------------------------------------

Freezing NCore=10 chemical core electrons

-------------
RI-MP2 ENERGY
-------------
Dimension of the basis                    ...   67
Memory devoted to MP2                     ... 5000 MB   
Data format for buffers                   ... DOUBLE
Compression type for matrix containers    ... UNCOMPRESSED
Overall scaling of the MP2 energy         ...   2.700e-01
Calculating two index integrals           ... done (    0.025 sec)
Cholesky decomposition of V**-1           ... done (    0.160 sec)

-----------------
RI-TRANSFORMATION (AUX index driven)
-----------------

Dimension of the orbital-basis         ... 67
Dimension of the aux-basis             ... 225
Transformation of internal/external MOs...    5-  13 to   14-  66
Number Format for Storage              ... Double (8 Byte)
Integral mode                          ... Direct

First Phase: integral generation and transformation of MO indices
  Aux angular momentum 0               ... done (    0.000 sec)
  Aux angular momentum 1               ... done (    0.002 sec)
  Aux angular momentum 2               ... done (    0.001 sec)
  Aux angular momentum 3               ... done (    0.001 sec)
  Aux angular momentum 4               ... done (    0.001 sec)
  Aux angular momentum 5               ... done (    0.002 sec)
  Aux angular momentum 6               ... done (    0.003 sec)
Closing buffer VIA ( 0.00 GB; CompressionRatio= 1.00)
  Phase 1 completed in     7.489 sec
Second Phase: sorting and transformation of aux index

IA-Transformation
Memory available                       ... 5000 MB 
Max. # MO pairs treated in a batch     ... 1    
# of internal orbitals                 ... 9
# batches for internal orbitals        ... 1
Closing buffer IAV ( 0.00 GB; CompressionRatio= 1.00)
(ia|v) transformation done in     0.149 sec

  Phase 2 completed in     7.179 sec
RI-Integral transformation completed in    16.552 sec

-----------------
RI-TRANSFORMATION (AUX index driven)
-----------------

Dimension of the orbital-basis         ... 67
Dimension of the aux-basis             ... 225
Transformation of internal/external MOs...    5-  12 to   13-  66
Number Format for Storage              ... Double (8 Byte)
Integral mode                          ... Direct

First Phase: integral generation and transformation of MO indices
  Aux angular momentum 0               ... done (    0.000 sec)
  Aux angular momentum 1               ... done (    0.002 sec)
  Aux angular momentum 2               ... done (    0.001 sec)
  Aux angular momentum 3               ... done (    0.001 sec)
  Aux angular momentum 4               ... done (    0.001 sec)
  Aux angular momentum 5               ... done (    0.002 sec)
  Aux angular momentum 6               ... done (    0.003 sec)
Closing buffer VIA ( 0.00 GB; CompressionRatio= 1.00)
  Phase 1 completed in     6.301 sec
Second Phase: sorting and transformation of aux index

IA-Transformation
Memory available                       ... 5000 MB 
Max. # MO pairs treated in a batch     ... 1    
# of internal orbitals                 ... 8
# batches for internal orbitals        ... 1
Closing buffer IAV ( 0.00 GB; CompressionRatio= 1.00)
(ia|v) transformation done in     0.119 sec

  Phase 2 completed in     7.116 sec
RI-Integral transformation completed in    15.109 sec
Opening buffers                              ... done

Starting loop over batches of integrals:

Operator 0  - window                       ... (  5- 13)x( 14- 66)
Operator 0  - Memory available             ...  5000 MB
Operator 0  - Memory needed per MO         ...   0.1 MB
Operator 0  - Number of orbitals per batch ... 1
Operator 0  - Number of batches            ... 1

OPERATOR  0   PASS   0:  MOs     5 ...    5 +    6 ...    6 +    7 ...    7 +    8 ...    8
                            +    9 ...    9 +   10 ...   10 +   11 ...   11 +   12 ...   12
                            +   13 ...   13
  Reading integrals       ... ok

Operator 1  - window                       ... (  5- 12)x( 13- 66)
Operator 1  - Memory available             ...  5000 MB
Operator 1  - Memory needed per MO         ...   0.1 MB
Operator 1  - Number of orbitals per batch ... 1
Operator 1  - Number of batches            ... 1

OPERATOR  1   PASS   0:  MOs     5 ...    5 +    6 ...    6 +    7 ...    7 +    8 ...    8
                            +    9 ...    9 +   10 ...   10 +   11 ...   11 +   12 ...   12
  Reading integrals       ... ok
Time spent in pair loops =     0.008 sec
Deleting buffer (Ka|jb)[aa] ...done
Deleting buffer (Ka|jb)[ab] ...done
Deleting buffer (Ka|jb)[ba] ...done
Deleting buffer (Ka|jb)[bb] ...done

Correlation energy components}
 E2 and T2 for alpha/alpha pairs :     -0.042261276 Eh      0.000000000
 E2 and T2 for beta/beta   pairs :     -0.032623662 Eh      0.000000000
 E2 and T2 for alpha/beta  pairs :     -0.148509038 Eh      0.000000000


-----------------------------------------------
 RI-MP2 CORRELATION ENERGY:     -0.223393976 Eh
-----------------------------------------------


-------
TIMINGS
-------

Total time                :   33.728 sec
Integral trafo            :   31.697 sec ( 94.0%)
I/O of integrals          :    0.001 sec (  0.0%)
K(i,j) Operators          :    0.001 sec (  0.0%)
T(i,j) pair energies      :    0.002 sec (  0.0%)
V-calculation             :    0.025 sec (  0.1%)
V**(-1/2)                 :    0.160 sec (  0.5%)
Gamma(ia|P)               :    0.000 sec (  0.0%)
Gamma-Trafo               :    0.000 sec (  0.0%)
D(virtual)                :    0.000 sec (  0.0%)
D(internal)               :    0.000 sec (  0.0%)
W(virtual)                :    0.000 sec (  0.0%)
W(internal)               :    0.000 sec (  0.0%)
L(virtual)                :    0.000 sec (  0.0%)
L(internal)               :    0.000 sec (  0.0%)
G(D)                      :    0.000 sec (  0.0%)
G(Z)                      :    0.000 sec (  0.0%)
Z-Vector Solution         :    0.000 sec (  0.0%)
Z-Vector Solution         :    0.000 sec (  0.0%)
3-Index Derivative 
+ Separable RIJ part      :    0.000 sec (  0.0%)
2-Index Derivative 
+ Separable RIJ part      :    0.000 sec (  0.0%)
Separable Gradient (X)    :    0.000 sec (  0.0%)


---------------------------------------
MP2 TOTAL ENERGY:    -1507.827758339 Eh
---------------------------------------


-------------------------------------------------------------------------------
                          DFT DISPERSION CORRECTION                            
                                                                               
                              DFTD3 V3.1  Rev 1                                
                          USING Becke-Johnson damping                          
-------------------------------------------------------------------------------
The B2PLYP functional is recognized
Active option DFTDOPT                   ...         4   

molecular C6(AA) [au] = 574.742232 


            DFT-D V3
 parameters
 s6 scaling factor         :     0.6400 
 a1 scaling factor         :     0.3065 
 s8 scaling factor         :     0.9147 
 a2 scaling factor         :     5.0570 
 ad hoc parameters k1-k3   :    16.0000     1.3333    -4.0000 

 Edisp/kcal,au: -0.000000000000  -0.000000000000 
 E6   /kcal   :  -0.000000000 
 E8   /kcal   :  -0.000000000 
 % E8         :          -nan 

-------------------------   ----------------
Dispersion correction            0.000000000
-------------------------   ----------------


-------------------------   --------------------
FINAL SINGLE POINT ENERGY     -1507.827758338891
-------------------------   --------------------


                            ***************************************
                            *     ORCA property calculations      *
                            ***************************************


  WARNING: The energy has been calculated at the MP2 level but the densities
           used in the property calculations are still SCF densities
           MP2 response densities have not been calculated 
           use %mp2 Density relaxed end
           or  %mp2 Density unrelaxed end

                                    ---------------------
                                    Active property flags
                                    ---------------------
   (+) Dipole Moment


------------------------------------------------------------------------------
                       ORCA ELECTRIC PROPERTIES CALCULATION
------------------------------------------------------------------------------

Dipole Moment Calculation                       ... on
Quadrupole Moment Calculation                   ... off
Polarizability Calculation                      ... off
GBWName                                         ... Ni+.gbw
Electron density file                           ... Ni+.scfp
The origin for moment calculation is the CENTER OF MASS  = ( 0.000000,  0.000000  0.000000)

-------------
DIPOLE MOMENT
-------------
                                X             Y             Z
Electronic contribution:      0.00000       0.00000       0.00000
Nuclear contribution   :      0.00000       0.00000       0.00000
                        -----------------------------------------
Total Dipole Moment    :      0.00000       0.00000       0.00000
                        -----------------------------------------
Magnitude (a.u.)       :      0.00000
Magnitude (Debye)      :      0.00000



--------------------
Rotational spectrum 
--------------------
 
Rotational constants in cm-1:     0.000000     0.000000     0.000000 
Rotational constants in MHz :     0.000000     0.000000     0.000000 

 Dipole components along the rotational axes: 
x,y,z [a.u.] :     0.000000     0.000000     0.000000 
x,y,z [Debye]:     0.000000     0.000000     0.000000 

 

Timings for individual modules:

Sum of individual times         ...      171.669 sec (=   2.861 min)
GTO integral calculation        ...        6.192 sec (=   0.103 min)   3.6 %
SCF iterations                  ...      127.719 sec (=   2.129 min)  74.4 %
MP2 module                      ...       37.759 sec (=   0.629 min)  22.0 %
                             ****ORCA TERMINATED NORMALLY****
TOTAL RUN TIME: 0 days 0 hours 4 minutes 8 seconds 804 msec
