
                                 *****************
                                 * O   R   C   A *
                                 *****************

           --- An Ab Initio, DFT and Semiempirical electronic structure package ---

                  #######################################################
                  #                        -***-                        #
                  #          Department of theory and spectroscopy      #
                  #               Directorship: Frank Neese             #
                  #        Max Planck Institute fuer Kohlenforschung    #
                  #                Kaiser Wilhelm Platz 1               #
                  #                 D-45470 Muelheim/Ruhr               #
                  #                      Germany                        #
                  #                                                     #
                  #                  All rights reserved                #
                  #                        -***-                        #
                  #######################################################


                         Program Version 4.2.0 -  RELEASE  -


 With contributions from (in alphabetic order):
   Daniel Aravena         : Magnetic Suceptibility
   Michael Atanasov       : Ab Initio Ligand Field Theory (pilot matlab implementation)
   Alexander A. Auer      : GIAO ZORA, VPT2
   Ute Becker             : Parallelization
   Giovanni Bistoni       : ED, misc. LED, open-shell LED, HFLED
   Martin Brehm           : Molecular dynamics
   Dmytro Bykov           : SCF Hessian
   Vijay G. Chilkuri      : MRCI spin determinant printing, contributions to CSF-ICE
   Dipayan Datta          : RHF DLPNO-CCSD density
   Achintya Kumar Dutta   : EOM-CC, STEOM-CC
   Dmitry Ganyushin       : Spin-Orbit,Spin-Spin,Magnetic field MRCI
   Miquel Garcia          : C-PCM Hessian, Gaussian charge scheme
   Yang Guo               : DLPNO-NEVPT2, CIM, IAO-localization
   Andreas Hansen         : Spin unrestricted coupled pair/coupled cluster methods
   Benjamin Helmich-Paris : CASSCF linear response (MC-RPA)
   Lee Huntington         : MR-EOM, pCC
   Robert Izsak           : Overlap fitted RIJCOSX, COSX-SCS-MP3, EOM
   Christian Kollmar      : KDIIS, OOCD, Brueckner-CCSD(T), CCSD density
   Simone Kossmann        : Meta GGA functionals, TD-DFT gradient, OOMP2, MP2 Hessian
   Martin Krupicka        : AUTO-CI
   Lucas Lang             : DCDCAS
   Dagmar Lenk            : GEPOL surface, SMD
   Dimitrios Liakos       : Extrapolation schemes; Compound Job, initial MDCI parallelization
   Dimitrios Manganas     : Further ROCIS development; embedding schemes
   Dimitrios Pantazis     : SARC Basis sets
   Taras Petrenko         : DFT Hessian,TD-DFT gradient, ASA, ECA, R-Raman, ABS, FL, XAS/XES, NRVS
   Peter Pinski           : DLPNO-MP2, DLPNO-MP2 Gradient
   Christoph Reimann      : Effective Core Potentials
   Marius Retegan         : Local ZFS, SOC
   Christoph Riplinger    : Optimizer, TS searches, QM/MM, DLPNO-CCSD(T), (RO)-DLPNO pert. Triples
   Tobias Risthaus        : Range-separated hybrids, TD-DFT gradient, RPA, STAB
   Michael Roemelt        : Original ROCIS implementation
   Masaaki Saitow         : Open-shell DLPNO-CCSD energy and density
   Barbara Sandhoefer     : DKH picture change effects
   Avijit Sen             : IP-ROCIS
   Kantharuban Sivalingam : CASSCF convergence, NEVPT2, FIC-MRCI
   Bernardo de Souza      : ESD, SOC TD-DFT
   Georgi Stoychev        : AutoAux, RI-MP2 NMR
   Willem Van den Heuvel  : Paramagnetic NMR
   Boris Wezisla          : Elementary symmetry handling
   Frank Wennmohs         : Technical directorship


 We gratefully acknowledge several colleagues who have allowed us to
 interface, adapt or use parts of their codes:
   Stefan Grimme, W. Hujo, H. Kruse,             : VdW corrections, initial TS optimization,
                  C. Bannwarth                     DFT functionals, gCP, sTDA/sTD-DF
   Ed Valeev, F. Pavosevic, A. Kumar             : LibInt (2-el integral package), F12 methods
   Garnet Chan, S. Sharma, J. Yang, R. Olivares  : DMRG
   Ulf Ekstrom                                   : XCFun DFT Library
   Mihaly Kallay                                 : mrcc  (arbitrary order and MRCC methods)
   Andreas Klamt, Michael Diedenhofen            : otool_cosmo (COSMO solvation model)
   Jiri Pittner, Ondrej Demel                    : Mk-CCSD
   Frank Weinhold                                : gennbo (NPA and NBO analysis)
   Christopher J. Cramer and Donald G. Truhlar   : smd solvation model
   Lars Goerigk                                  : TD-DFT with DH, B97 family of functionals
   V. Asgeirsson, H. Jonsson                     : NEB implementation
   FAccTs GmbH                                   : IRC, NEB, NEB-TS, Multilevel, MM, QM/MM, CI optimization
   S Lehtola, MJT Oliveira, MAL Marques          : LibXC Library


 Your calculation uses the libint2 library for the computation of 2-el integrals
 For citations please refer to: http://libint.valeyev.net

 Your ORCA version has been built with support for libXC version: 4.2.3
 For citations please refer to: https://tddft.org/programs/libxc/

 This ORCA versions uses:
   CBLAS   interface :  Fast vector & matrix operations
   LAPACKE interface :  Fast linear algebra routines
   SCALAPACK package :  Parallel linear algebra routines


Your calculation utilizes the atom-pairwise dispersion correction
with the Becke-Johnson damping scheme (D3BJ)
Cite in your paper:
S.Grimme, S.Ehrlich, L.Goerigk, J Comput Chem, (2011), 32, 1456–1465 
S.Grimme, J.Antony, S.Ehrlich and H.Krieg, J.Chem.Phys., 132, (2010), 154104 
   

----- Orbital basis set information -----
Your calculation utilizes the basis: def2-TZVPPD
   F. Weigend and R. Ahlrichs, Phys. Chem. Chem. Phys. 7, 3297 (2005).
   D. Rappoport and F. Furche, J. Chem. Phys. 133 134105 (2010).

----- AuxC basis set information -----
Your calculation utilizes the auxiliary basis: def2-TZVPPD/C
   A. Hellweg, C. Hattig, S. Hofener and W. Klopper, Theor. Chem. Acc. 117, 587 (2007).

----- AuxJK basis set information -----
Your calculation utilizes the auxiliary basis: def2/JK
   H-Ba, Hf-Rn: F. Weigend, J. Comput. Chem. 29, 167 (2008).

================================================================================
                                        WARNINGS
                       Please study these warnings very carefully!
================================================================================


WARNING: your system is open-shell and RHF/RKS was chosen
  ===> : WILL SWITCH to UHF/UKS


WARNING: No MP2 level density has been requested!
         To caclulate MP2 level properties use
         %mp2 Density relaxed end
         or
         %mp2 Density unrelaxed end
         Otherwise for double-hybrid DFT only the energy is correct!

WARNING: The frozen-core approximation is turned on by default for 
         the MP2 part of double-hybrid DFT.

INFO   : the flag for use of LIBINT has been found!

================================================================================
                                       INPUT FILE
================================================================================
NAME = o2.in
|  1> #
|  2> # o2 ri-B2PLYP-D3BJ/Def2-TZVPPD
|  3> #
|  4> ! rijk ri-b2plyp d3bj def2-tzvppd def2/jk def2-tzvppd/c grid4 nofinalgrid
|  5> 
|  6> *xyz 0 3
|  7> O          0.00000        0.00000        0.00000
|  8> O          0.00000        0.00000        1.20780
|  9> *
| 10> 
| 11> %maxcore 5000
| 12> 
| 13> %pal
| 14> nprocs = 28
| 15> end
| 16> 
| 17> 
| 18>                          ****END OF INPUT****
================================================================================

                       ****************************
                       * Single Point Calculation *
                       ****************************

---------------------------------
CARTESIAN COORDINATES (ANGSTROEM)
---------------------------------
  O      0.000000    0.000000    0.000000
  O      0.000000    0.000000    1.207800

----------------------------
CARTESIAN COORDINATES (A.U.)
----------------------------
  NO LB      ZA    FRAG     MASS         X           Y           Z
   0 O     8.0000    0    15.999    0.000000    0.000000    0.000000
   1 O     8.0000    0    15.999    0.000000    0.000000    2.282411

--------------------------------
INTERNAL COORDINATES (ANGSTROEM)
--------------------------------
 O      0   0   0     0.000000000000     0.00000000     0.00000000
 O      1   0   0     1.207800000000     0.00000000     0.00000000

---------------------------
INTERNAL COORDINATES (A.U.)
---------------------------
 O      0   0   0     0.000000000000     0.00000000     0.00000000
 O      1   0   0     2.282411224550     0.00000000     0.00000000

---------------------
BASIS SET INFORMATION
---------------------
There are 1 groups of distinct atoms

 Group   1 Type O   : 12s7p3d1f contracted to 6s4p3d1f pattern {621111/4111/111/1}

Atom   0O    basis set group =>   1
Atom   1O    basis set group =>   1
---------------------------------
AUXILIARY/C BASIS SET INFORMATION
---------------------------------
There are 1 groups of distinct atoms

 Group   1 Type O   : 9s7p6d4f1g contracted to 9s7p5d4f1g pattern {111111111/1111111/21111/1111/1}

Atom   0O    basis set group =>   1
Atom   1O    basis set group =>   1
----------------------------------
AUXILIARY/JK BASIS SET INFORMATION
----------------------------------
There are 1 groups of distinct atoms

 Group   1 Type O   : 14s10p6d2f1g contracted to 10s8p4d2f1g pattern {5111111111/31111111/3111/11/1}

Atom   0O    basis set group =>   1
Atom   1O    basis set group =>   1


           ************************************************************
           *        Program running with 28 parallel MPI-processes    *
           *              working on a common directory               *
           ************************************************************
------------------------------------------------------------------------------
                           ORCA GTO INTEGRAL CALCULATION
                           -- RI-GTO INTEGRALS CHOSEN --
------------------------------------------------------------------------------

                         BASIS SET STATISTICS AND STARTUP INFO

Gaussian basis set:
 # of primitive gaussian shells          ...   46
 # of primitive gaussian functions       ...  110
 # of contracted shells                  ...   28
 # of contracted basis functions         ...   80
 Highest angular momentum                ...    3
 Maximum contraction depth               ...    6
Auxiliary gaussian basis set:
 # of primitive gaussian shells          ...   66
 # of primitive gaussian functions       ...  194
 # of contracted shells                  ...   50
 # of contracted aux-basis functions     ...  154
 Highest angular momentum                ...    4
 Maximum contraction depth               ...    5
Ratio of auxiliary to basis functions    ...  1.93
Integral package used                  ... LIBINT
 One Electron integrals                  ... done
 Ordering auxiliary basis shells         ... done
 Integral threshhold             Thresh  ...  1.000e-10
 Primitive cut-off               TCut    ...  1.000e-11
 Pre-screening matrix                    ... done
 Shell pair data                         ... 
 Ordering of the shell pairs             ... done (   0.000 sec) 405 of 406 pairs
 Determination of significant pairs      ... done (   0.000 sec)
 Creation of shell pair data             ... done (   0.000 sec)
 Storage of shell pair data              ... done (   0.041 sec)
 Shell pair data done in (   0.042 sec)
 Computing two index integrals           ... done
 Cholesky decomposition of the V-matrix  ... done


Timings:
 Total evaluation time                   ...   0.581 sec (  0.010 min)
 One electron matrix time                ...   0.135 sec (  0.002 min) = 23.3%
 Schwartz matrix evaluation time         ...   0.112 sec (  0.002 min) = 19.2%
 Two index repulsion integral time       ...   0.072 sec (  0.001 min) = 12.4%
 Cholesky decomposition of V             ...   0.099 sec (  0.002 min) = 17.1%
 Three index repulsion integral time     ...   0.000 sec (  0.000 min) =  0.0%



           ************************************************************
           *        Program running with 28 parallel MPI-processes    *
           *              working on a common directory               *
           ************************************************************
-------------------------------------------------------------------------------
                                 ORCA SCF
-------------------------------------------------------------------------------

------------
SCF SETTINGS
------------
Hamiltonian:
 Density Functional     Method          .... DFT(GTOs)
 Exchange Functional    Exchange        .... B88
   X-Alpha parameter    XAlpha          ....  0.666667
   Becke's b parameter  XBeta           ....  0.004200
 Correlation Functional Correlation     .... LYP
 LDA part of GGA corr.  LDAOpt          .... VWN-3
 Gradients option       PostSCFGGA      .... off
 Hybrid DFT is turned on
   Fraction HF Exchange ScalHFX         ....  0.530000
   Scaling of DF-GGA-X  ScalDFX         ....  0.470000
   Scaling of DF-GGA-C  ScalDFC         ....  0.730000
   Scaling of DF-LDA-C  ScalLDAC        ....  0.730000
   Perturbative correction              ....  0.270000
   Density functional embedding theory  .... OFF
 RI-approximation to the Coulomb term is turned on
   Number of auxiliary basis functions  .... 154
   RI-JK (J+K treated both via RI)      .... on


General Settings:
 Integral files         IntName         .... o2
 Hartree-Fock type      HFTyp           .... UHF
 Total Charge           Charge          ....    0
 Multiplicity           Mult            ....    3
 Number of Electrons    NEL             ....   16
 Basis Dimension        Dim             ....   80
 Nuclear Repulsion      ENuc            ....     28.0405210558 Eh

Convergence Acceleration:
 DIIS                   CNVDIIS         .... on
   Start iteration      DIISMaxIt       ....    12
   Startup error        DIISStart       ....  0.200000
   # of expansion vecs  DIISMaxEq       ....     5
   Bias factor          DIISBfac        ....   1.050
   Max. coefficient     DIISMaxC        ....  10.000
 Newton-Raphson         CNVNR           .... off
 SOSCF                  CNVSOSCF        .... off
 Level Shifting         CNVShift        .... on
   Level shift para.    LevelShift      ....    0.2500
   Turn off err/grad.   ShiftErr        ....    0.0010
 Zerner damping         CNVZerner       .... off
 Static damping         CNVDamp         .... on
   Fraction old density DampFac         ....    0.7000
   Max. Damping (<1)    DampMax         ....    0.9800
   Min. Damping (>=0)   DampMin         ....    0.0000
   Turn off err/grad.   DampErr         ....    0.1000
 Fernandez-Rico         CNVRico         .... off

SCF Procedure:
 Maximum # iterations   MaxIter         ....   125
 SCF integral mode      SCFMode         .... Direct
   Integral package                     .... LIBINT
 Reset frequency        DirectResetFreq ....    20
 Integral Threshold     Thresh          ....  1.000e-10 Eh
 Primitive CutOff       TCut            ....  1.000e-11 Eh

Convergence Tolerance:
 Convergence Check Mode ConvCheckMode   .... Total+1el-Energy
 Convergence forced     ConvForced      .... 0
 Energy Change          TolE            ....  1.000e-06 Eh
 1-El. energy change                    ....  1.000e-03 Eh
 DIIS Error             TolErr          ....  1.000e-06


Diagonalization of the overlap matrix:
Smallest eigenvalue                        ... 2.492e-04
Time for diagonalization                   ...    0.049 sec
Threshold for overlap eigenvalues          ... 1.000e-08
Number of eigenvalues below threshold      ... 0
Time for construction of square roots      ...    0.025 sec
Total time needed                          ...    0.073 sec

-------------------
DFT GRID GENERATION
-------------------

General Integration Accuracy     IntAcc      ...  4.670
Radial Grid Type                 RadialGrid  ... Gauss-Chebyshev
Angular Grid (max. acc.)         AngularGrid ... Lebedev-302
Angular grid pruning method      GridPruning ... 3 (G Style)
Weight generation scheme         WeightScheme... Becke
Basis function cutoff            BFCut       ...    1.0000e-10
Integration weight cutoff        WCut        ...    1.0000e-14
Grids for H and He will be reduced by one unit

# of grid points (after initial pruning)     ...  12424 (   0.0 sec)
# of grid points (after weights+screening)   ...  12396 (   0.0 sec)
nearest neighbour list constructed           ...    0.0 sec
Grid point re-assignment to atoms done       ...    0.0 sec
Grid point division into batches done        ...    0.1 sec
Reduced shell lists constructed in    0.1 sec

Total number of grid points                  ...    12396
Total number of batches                      ...      194
Average number of points per batch           ...       63
Average number of grid points per atom       ...     6198
Average number of shells per batch           ...     8.00 (28.57%)
Average number of basis functions per batch  ...    21.25 (26.56%)
Average number of large shells per batch     ...     4.62 (57.81%)
Average number of large basis fcns per batch ...    13.12 (61.76%)
Average number of aux-shells per batch       ...     8.00 (16.00%)
Average number of aux functions per batch    ...    21.25 (13.80%)
Maximum spatial batch extension              ...  19.94, 19.94, 11.06 au
Average spatial batch extension              ...   0.55,  0.50,  0.34 au

Time for grid setup =    1.388 sec

------------------------------
INITIAL GUESS: MODEL POTENTIAL
------------------------------
Loading Hartree-Fock densities                     ... done
Calculating cut-offs                               ... done
Setting up the integral package                    ... done
Initializing the effective Hamiltonian             ... done
Starting the Coulomb interaction                   ... done (   0.0 sec)
Reading the grid                                   ... done
Mapping shells                                     ... done
Starting the XC term evaluation                    ... done (   0.0 sec)
  promolecular density results
     # of electrons  =     15.999999817
     EX              =    -16.309599595
     EC              =     -0.192511840
     EX+EC           =    -16.502111436
Transforming the Hamiltonian                       ... done (   0.1 sec)
Diagonalizing the Hamiltonian                      ... done (   0.0 sec)
Back transforming the eigenvectors                 ... done (   0.0 sec)
Now organizing SCF variables                       ... done
                      ------------------
                      INITIAL GUESS DONE (   2.6 sec)
                      ------------------
--------------
SCF ITERATIONS
--------------
ITER       Energy         Delta-E        Max-DP      RMS-DP      [F,P]     Damp
  0   -150.1318797160   0.000000000000 0.00724712  0.00029918  0.0765686 0.7000
  1   -150.1379632531  -0.006083537158 0.00633755  0.00027789  0.0579905 0.7000
                               ***Turning on DIIS***
  2   -150.1449066044  -0.006943351299 0.01401584  0.00071797  0.0354527 0.0000
  3   -150.1551541565  -0.010247552104 0.00412016  0.00015447  0.0155204 0.0000
  4   -150.1557495950  -0.000595438516 0.00109538  0.00006497  0.0030312 0.0000
  5   -150.1558186052  -0.000069010211 0.00063334  0.00003822  0.0004970 0.0000
  6   -150.1558310502  -0.000012444989 0.00014127  0.00000711  0.0002271 0.0000
  7   -150.1558317898  -0.000000739578 0.00005275  0.00000241  0.0000580 0.0000
                 **** Energy Check signals convergence ****

               *****************************************************
               *                     SUCCESS                       *
               *           SCF CONVERGED AFTER   8 CYCLES          *
               *****************************************************


----------------
TOTAL SCF ENERGY
----------------

Total Energy       :         -150.15583186 Eh           -4085.94791 eV

Components:
Nuclear Repulsion  :           28.04052106 Eh             763.02137 eV
Electronic Energy  :         -178.19635291 Eh           -4848.96928 eV
One Electron Energy:         -261.76464664 Eh           -7122.97816 eV
Two Electron Energy:           83.56829373 Eh            2274.00888 eV

Virial components:
Potential Energy   :         -299.89574558 Eh           -8160.57811 eV
Kinetic Energy     :          149.73991373 Eh            4074.63020 eV
Virial Ratio       :            2.00277760


DFT components:
N(Alpha)           :        9.000001299168 electrons
N(Beta)            :        7.000001673033 electrons
N(Total)           :       16.000002972201 electrons
E(X)               :       -7.734936177407 Eh       
E(C)               :       -0.416687664198 Eh       
E(XC)              :       -8.151623841605 Eh       
DFET-embed. en.    :        0.000000000000 Eh       

---------------
SCF CONVERGENCE
---------------

  Last Energy change         ...   -6.7248e-08  Tolerance :   1.0000e-06
  Last MAX-Density change    ...    1.2837e-05  Tolerance :   1.0000e-05
  Last RMS-Density change    ...    6.5089e-07  Tolerance :   1.0000e-06
  Last DIIS Error            ...    1.5240e-05  Tolerance :   1.0000e-06

             **** THE GBW FILE WAS UPDATED (o2.gbw) ****
             **** DENSITY FILE WAS UPDATED (o2.scfp) ****
             **** ENERGY FILE WAS UPDATED (o2.en.tmp) ****
----------------------
UHF SPIN CONTAMINATION
----------------------

Warning: in a DFT calculation there is little theoretical justification to 
         calculate <S**2> as in Hartree-Fock theory. We will do it anyways
         but you should keep in mind that the values have only limited relevance

Expectation value of <S**2>     :     2.021492
Ideal value S*(S+1) for S=1.0   :     2.000000
Deviation                       :     0.021492

             **** THE GBW FILE WAS UPDATED (o2.gbw) ****
             **** DENSITY FILE WAS UPDATED (o2.scfp) ****
----------------
ORBITAL ENERGIES
----------------
                 SPIN UP ORBITALS
  NO   OCC          E(Eh)            E(eV) 
   0   1.0000     -19.906310      -541.6782 
   1   1.0000     -19.905935      -541.6680 
   2   1.0000      -1.479807       -40.2676 
   3   1.0000      -0.995499       -27.0889 
   4   1.0000      -0.685293       -18.6478 
   5   1.0000      -0.685293       -18.6478 
   6   1.0000      -0.646890       -17.6028 
   7   1.0000      -0.417654       -11.3650 
   8   1.0000      -0.417654       -11.3650 
   9   0.0000       0.060660         1.6506 
  10   0.0000       0.078822         2.1449 
  11   0.0000       0.092767         2.5243 
  12   0.0000       0.092767         2.5243 
  13   0.0000       0.138837         3.7780 
  14   0.0000       0.138986         3.7820 
  15   0.0000       0.138986         3.7820 
  16   0.0000       0.231289         6.2937 
  17   0.0000       0.346820         9.4374 
  18   0.0000       0.352618         9.5952 
  19   0.0000       0.352619         9.5953 
  20   0.0000       0.444813        12.1040 
  21   0.0000       0.494315        13.4510 
  22   0.0000       0.494315        13.4510 
  23   0.0000       0.500538        13.6203 
  24   0.0000       0.507157        13.8004 
  25   0.0000       0.507157        13.8004 
  26   0.0000       0.523105        14.2344 
  27   0.0000       0.523107        14.2345 
  28   0.0000       0.583598        15.8805 
  29   0.0000       0.583598        15.8805 
  30   0.0000       0.670443        18.2437 
  31   0.0000       0.837816        22.7981 
  32   0.0000       0.944123        25.6909 
  33   0.0000       0.944123        25.6909 
  34   0.0000       0.955918        26.0119 
  35   0.0000       1.286180        34.9987 
  36   0.0000       1.557089        42.3706 
  37   0.0000       1.557089        42.3706 
  38   0.0000       1.561864        42.5005 
  39   0.0000       1.561864        42.5005 
  40   0.0000       1.882673        51.2301 
  41   0.0000       1.882673        51.2301 
  42   0.0000       2.030714        55.2585 
  43   0.0000       2.239159        60.9306 
  44   0.0000       2.239159        60.9306 
  45   0.0000       2.503298        68.1182 
  46   0.0000       2.643869        71.9433 
  47   0.0000       2.643869        71.9433 
  48   0.0000       2.929053        79.7036 
  49   0.0000       3.149052        85.6901 
  50   0.0000       3.149052        85.6901 
  51   0.0000       3.284405        89.3732 
  52   0.0000       3.346961        91.0754 
  53   0.0000       4.411935       120.0549 
  54   0.0000       4.731581       128.7529 
  55   0.0000       4.731582       128.7529 
  56   0.0000       4.855174       132.1160 
  57   0.0000       4.855174       132.1160 
  58   0.0000       5.055926       137.5787 
  59   0.0000       5.055926       137.5787 
  60   0.0000       5.166298       140.5821 
  61   0.0000       5.298685       144.1846 
  62   0.0000       5.298685       144.1846 
  63   0.0000       5.862617       159.5299 
  64   0.0000       5.862618       159.5299 
  65   0.0000       6.358013       173.0103 
  66   0.0000       6.358021       173.0105 
  67   0.0000       6.473108       176.1422 
  68   0.0000       6.473108       176.1422 
  69   0.0000       6.527615       177.6254 
  70   0.0000       6.527623       177.6257 
  71   0.0000       6.663234       181.3158 
  72   0.0000       6.679032       181.7457 
  73   0.0000       6.679032       181.7457 
  74   0.0000       7.393959       201.1999 
  75   0.0000       7.393959       201.1999 
  76   0.0000       7.642034       207.9503 
  77   0.0000       8.848383       240.7768 
  78   0.0000      43.937423      1195.5981 
  79   0.0000      44.579409      1213.0674 

                 SPIN DOWN ORBITALS
  NO   OCC          E(Eh)            E(eV) 
   0   1.0000     -19.866666      -540.5995 
   1   1.0000     -19.865962      -540.5803 
   2   1.0000      -1.396051       -37.9885 
   3   1.0000      -0.858816       -23.3696 
   4   1.0000      -0.598766       -16.2932 
   5   1.0000      -0.518098       -14.0982 
   6   1.0000      -0.518098       -14.0982 
   7   0.0000      -0.035094        -0.9550 
   8   0.0000      -0.035094        -0.9550 
   9   0.0000       0.063307         1.7227 
  10   0.0000       0.082340         2.2406 
  11   0.0000       0.097960         2.6656 
  12   0.0000       0.097960         2.6656 
  13   0.0000       0.137872         3.7517 
  14   0.0000       0.148155         4.0315 
  15   0.0000       0.148155         4.0315 
  16   0.0000       0.249198         6.7810 
  17   0.0000       0.355677         9.6785 
  18   0.0000       0.355677         9.6785 
  19   0.0000       0.377474        10.2716 
  20   0.0000       0.444696        12.1008 
  21   0.0000       0.512211        13.9380 
  22   0.0000       0.512211        13.9380 
  23   0.0000       0.516453        14.0534 
  24   0.0000       0.516453        14.0534 
  25   0.0000       0.516965        14.0673 
  26   0.0000       0.531196        14.4546 
  27   0.0000       0.531196        14.4546 
  28   0.0000       0.617413        16.8007 
  29   0.0000       0.617413        16.8007 
  30   0.0000       0.686706        18.6862 
  31   0.0000       0.850442        23.1417 
  32   0.0000       0.955369        25.9969 
  33   0.0000       0.973958        26.5028 
  34   0.0000       0.973958        26.5028 
  35   0.0000       1.305671        35.5291 
  36   0.0000       1.599590        43.5271 
  37   0.0000       1.599590        43.5271 
  38   0.0000       1.604664        43.6651 
  39   0.0000       1.604665        43.6651 
  40   0.0000       1.955923        53.2234 
  41   0.0000       1.955924        53.2234 
  42   0.0000       2.059742        56.0484 
  43   0.0000       2.285316        62.1866 
  44   0.0000       2.285316        62.1866 
  45   0.0000       2.522426        68.6387 
  46   0.0000       2.727859        74.2288 
  47   0.0000       2.727859        74.2288 
  48   0.0000       2.969237        80.7970 
  49   0.0000       3.222675        87.6934 
  50   0.0000       3.222675        87.6934 
  51   0.0000       3.312196        90.1294 
  52   0.0000       3.388451        92.2044 
  53   0.0000       4.441387       120.8563 
  54   0.0000       4.771314       129.8340 
  55   0.0000       4.771314       129.8341 
  56   0.0000       4.884715       132.9198 
  57   0.0000       4.884715       132.9198 
  58   0.0000       5.122743       139.3969 
  59   0.0000       5.122743       139.3969 
  60   0.0000       5.208058       141.7185 
  61   0.0000       5.370157       146.1294 
  62   0.0000       5.370157       146.1294 
  63   0.0000       5.915235       160.9617 
  64   0.0000       5.915235       160.9617 
  65   0.0000       6.471875       176.1087 
  66   0.0000       6.471884       176.1089 
  67   0.0000       6.536644       177.8711 
  68   0.0000       6.536644       177.8711 
  69   0.0000       6.635651       180.5653 
  70   0.0000       6.635661       180.5655 
  71   0.0000       6.705308       182.4607 
  72   0.0000       6.737868       183.3467 
  73   0.0000       6.737868       183.3467 
  74   0.0000       7.426165       202.0762 
  75   0.0000       7.426165       202.0762 
  76   0.0000       7.670849       208.7344 
  77   0.0000       8.877099       241.5582 
  78   0.0000      43.966160      1196.3800 
  79   0.0000      44.607494      1213.8316 

                    ********************************
                    * MULLIKEN POPULATION ANALYSIS *
                    ********************************

--------------------------------------------
MULLIKEN ATOMIC CHARGES AND SPIN POPULATIONS
--------------------------------------------
   0 O :    0.000000    1.000000
   1 O :   -0.000000    1.000000
Sum of atomic charges         :    0.0000000
Sum of atomic spin populations:    2.0000000

-----------------------------------------------------
MULLIKEN REDUCED ORBITAL CHARGES AND SPIN POPULATIONS
-----------------------------------------------------
CHARGE
  0 O s       :     3.931023  s :     3.931023
      pz      :     1.054289  p :     4.018970
      px      :     1.482340
      py      :     1.482340
      dz2     :     0.012623  d :     0.045010
      dxz     :     0.016194
      dyz     :     0.016194
      dx2y2   :     0.000000
      dxy     :     0.000000
      f0      :     0.002065  f :     0.004997
      f+1     :     0.001466
      f-1     :     0.001466
      f+2     :     0.000000
      f-2     :     0.000000
      f+3     :     0.000000
      f-3     :     0.000000
  1 O s       :     3.931024  s :     3.931024
      pz      :     1.054289  p :     4.018970
      px      :     1.482340
      py      :     1.482340
      dz2     :     0.012623  d :     0.045010
      dxz     :     0.016194
      dyz     :     0.016194
      dx2y2   :     0.000000
      dxy     :     0.000000
      f0      :     0.002065  f :     0.004997
      f+1     :     0.001466
      f-1     :     0.001466
      f+2     :     0.000000
      f-2     :     0.000000
      f+3     :     0.000000
      f-3     :     0.000000

SPIN
  0 O s       :     0.014371  s :     0.014371
      pz      :    -0.013719  p :     1.005007
      px      :     0.509363
      py      :     0.509363
      dz2     :    -0.000307  d :    -0.018875
      dxz     :    -0.009284
      dyz     :    -0.009284
      dx2y2   :     0.000000
      dxy     :     0.000000
      f0      :    -0.000344  f :    -0.000503
      f+1     :    -0.000079
      f-1     :    -0.000079
      f+2     :    -0.000000
      f-2     :    -0.000000
      f+3     :     0.000000
      f-3     :     0.000000
  1 O s       :     0.014371  s :     0.014371
      pz      :    -0.013719  p :     1.005007
      px      :     0.509363
      py      :     0.509363
      dz2     :    -0.000307  d :    -0.018875
      dxz     :    -0.009284
      dyz     :    -0.009284
      dx2y2   :    -0.000000
      dxy     :     0.000000
      f0      :    -0.000344  f :    -0.000503
      f+1     :    -0.000079
      f-1     :    -0.000079
      f+2     :     0.000000
      f-2     :     0.000000
      f+3     :     0.000000
      f-3     :     0.000000


                     *******************************
                     * LOEWDIN POPULATION ANALYSIS *
                     *******************************

-------------------------------------------
LOEWDIN ATOMIC CHARGES AND SPIN POPULATIONS
-------------------------------------------
   0 O :    0.000000    1.000000
   1 O :   -0.000000    1.000000

----------------------------------------------------
LOEWDIN REDUCED ORBITAL CHARGES AND SPIN POPULATIONS
----------------------------------------------------
CHARGE
  0 O s       :     3.545227  s :     3.545227
      pz      :     1.290286  p :     4.089061
      px      :     1.399387
      py      :     1.399387
      dz2     :     0.156995  d :     0.346772
      dxz     :     0.094888
      dyz     :     0.094888
      dx2y2   :     0.000000
      dxy     :     0.000000
      f0      :     0.007491  f :     0.018939
      f+1     :     0.005724
      f-1     :     0.005724
      f+2     :     0.000000
      f-2     :     0.000000
      f+3     :     0.000000
      f-3     :     0.000000
  1 O s       :     3.545227  s :     3.545227
      pz      :     1.290286  p :     4.089061
      px      :     1.399387
      py      :     1.399387
      dz2     :     0.156995  d :     0.346772
      dxz     :     0.094888
      dyz     :     0.094888
      dx2y2   :     0.000000
      dxy     :     0.000000
      f0      :     0.007491  f :     0.018939
      f+1     :     0.005724
      f-1     :     0.005724
      f+2     :     0.000000
      f-2     :     0.000000
      f+3     :     0.000000
      f-3     :     0.000000

SPIN
  0 O s       :     0.014775  s :     0.014775
      pz      :    -0.017840  p :     0.887608
      px      :     0.452724
      py      :     0.452724
      dz2     :     0.003152  d :     0.092207
      dxz     :     0.044527
      dyz     :     0.044527
      dx2y2   :     0.000000
      dxy     :     0.000000
      f0      :    -0.000087  f :     0.005410
      f+1     :     0.002749
      f-1     :     0.002749
      f+2     :     0.000000
      f-2     :    -0.000000
      f+3     :     0.000000
      f-3     :     0.000000
  1 O s       :     0.014775  s :     0.014775
      pz      :    -0.017840  p :     0.887608
      px      :     0.452724
      py      :     0.452724
      dz2     :     0.003152  d :     0.092207
      dxz     :     0.044527
      dyz     :     0.044527
      dx2y2   :    -0.000000
      dxy     :     0.000000
      f0      :    -0.000087  f :     0.005410
      f+1     :     0.002749
      f-1     :     0.002749
      f+2     :     0.000000
      f-2     :     0.000000
      f+3     :     0.000000
      f-3     :     0.000000


                      *****************************
                      * MAYER POPULATION ANALYSIS *
                      *****************************

  NA   - Mulliken gross atomic population
  ZA   - Total nuclear charge
  QA   - Mulliken gross atomic charge
  VA   - Mayer's total valence
  BVA  - Mayer's bonded valence
  FA   - Mayer's free valence

  ATOM       NA         ZA         QA         VA         BVA        FA
  0 O      8.0000     8.0000     0.0000     2.2612     1.6795     0.5816
  1 O      8.0000     8.0000    -0.0000     2.2612     1.6795     0.5816

  Mayer bond orders larger than 0.100000
B(  0-O ,  1-O ) :   1.6795 

-------
TIMINGS
-------

Total SCF time: 0 days 0 hours 2 min 4 sec 

Total time                  ....     124.180 sec
Sum of individual times     ....     123.119 sec  ( 99.1%)

Fock matrix formation       ....     117.309 sec  ( 94.5%)
  XC integration            ....     111.512 sec  ( 95.1% of F)
    Basis function eval.    ....       0.009 sec  (  0.0% of XC)
    Density eval.           ....       0.010 sec  (  0.0% of XC)
    XC-Functional eval.     ....       0.008 sec  (  0.0% of XC)
    XC-Potential eval.      ....       0.018 sec  (  0.0% of XC)
Diagonalization             ....       2.087 sec  (  1.7%)
Density matrix formation    ....       0.008 sec  (  0.0%)
Population analysis         ....       1.070 sec  (  0.9%)
Initial guess               ....       1.200 sec  (  1.0%)
Orbital Transformation      ....       0.000 sec  (  0.0%)
Orbital Orthonormalization  ....       0.000 sec  (  0.0%)
DIIS solution               ....       0.057 sec  (  0.0%)
Grid generation             ....       1.388 sec  (  1.1%)


           ************************************************************
           *        Program running with 28 parallel MPI-processes    *
           *              working on a common directory               *
           ************************************************************

------------------------------------------------------------------------------
                                ORCA  MP2 
------------------------------------------------------------------------------

Freezing NCore=4 chemical core electrons

-------------
RI-MP2 ENERGY
-------------
Dimension of the basis                    ...   80
Memory devoted to MP2                     ... 5000 MB   
Data format for buffers                   ... DOUBLE
Compression type for matrix containers    ... UNCOMPRESSED
Overall scaling of the MP2 energy         ...   2.700e-01
Calculating two index integrals           ... done (    0.003 sec)
Cholesky decomposition of V**-1           ... done (    0.123 sec)

-----------------
RI-TRANSFORMATION (AUX index driven)
-----------------

Dimension of the orbital-basis         ... 80
Dimension of the aux-basis             ... 184
Transformation of internal/external MOs...    2-   8 to    9-  79
Number Format for Storage              ... Double (8 Byte)
Integral mode                          ... Direct

First Phase: integral generation and transformation of MO indices
  Aux angular momentum 0               ... done (    0.001 sec)
  Aux angular momentum 1               ... done (    0.002 sec)
  Aux angular momentum 2               ... done (    0.001 sec)
  Aux angular momentum 3               ... done (    0.001 sec)
  Aux angular momentum 4               ... done (    0.001 sec)
Closing buffer VIA ( 0.00 GB; CompressionRatio= 1.00)
  Phase 1 completed in     7.571 sec
Second Phase: sorting and transformation of aux index

IA-Transformation
Memory available                       ... 5000 MB 
Max. # MO pairs treated in a batch     ... 1    
# of internal orbitals                 ... 7
# batches for internal orbitals        ... 1
Closing buffer IAV ( 0.00 GB; CompressionRatio= 1.00)
(ia|v) transformation done in     0.130 sec

  Phase 2 completed in     7.008 sec
RI-Integral transformation completed in    16.506 sec

-----------------
RI-TRANSFORMATION (AUX index driven)
-----------------

Dimension of the orbital-basis         ... 80
Dimension of the aux-basis             ... 184
Transformation of internal/external MOs...    2-   6 to    7-  79
Number Format for Storage              ... Double (8 Byte)
Integral mode                          ... Direct

First Phase: integral generation and transformation of MO indices
  Aux angular momentum 0               ... done (    0.000 sec)
  Aux angular momentum 1               ... done (    0.002 sec)
  Aux angular momentum 2               ... done (    0.001 sec)
  Aux angular momentum 3               ... done (    0.001 sec)
  Aux angular momentum 4               ... done (    0.001 sec)
Closing buffer VIA ( 0.00 GB; CompressionRatio= 1.00)
  Phase 1 completed in     5.937 sec
Second Phase: sorting and transformation of aux index

IA-Transformation
Memory available                       ... 5000 MB 
Max. # MO pairs treated in a batch     ... 1    
# of internal orbitals                 ... 5
# batches for internal orbitals        ... 1
Closing buffer IAV ( 0.00 GB; CompressionRatio= 1.00)
(ia|v) transformation done in     0.127 sec

  Phase 2 completed in     7.148 sec
RI-Integral transformation completed in    14.541 sec
Opening buffers                              ... done

Starting loop over batches of integrals:

Operator 0  - window                       ... (  2-  8)x(  9- 79)
Operator 0  - Memory available             ...  5000 MB
Operator 0  - Memory needed per MO         ...   0.1 MB
Operator 0  - Number of orbitals per batch ... 1
Operator 0  - Number of batches            ... 1

OPERATOR  0   PASS   0:  MOs     2 ...    2 +    3 ...    3 +    4 ...    4 +    5 ...    5
                            +    6 ...    6 +    7 ...    7 +    8 ...    8
  Reading integrals       ... ok

Operator 1  - window                       ... (  2-  6)x(  7- 79)
Operator 1  - Memory available             ...  5000 MB
Operator 1  - Memory needed per MO         ...   0.1 MB
Operator 1  - Number of orbitals per batch ... 1
Operator 1  - Number of batches            ... 1

OPERATOR  1   PASS   0:  MOs     2 ...    2 +    3 ...    3 +    4 ...    4 +    5 ...    5
                            +    6 ...    6
  Reading integrals       ... ok
Time spent in pair loops =     0.005 sec
Deleting buffer (Ka|jb)[aa] ...done
Deleting buffer (Ka|jb)[ab] ...done
Deleting buffer (Ka|jb)[ba] ...done
Deleting buffer (Ka|jb)[bb] ...done

Correlation energy components}
 E2 and T2 for alpha/alpha pairs :     -0.018778370 Eh      0.000000000
 E2 and T2 for beta/beta   pairs :     -0.024423347 Eh      0.000000000
 E2 and T2 for alpha/beta  pairs :     -0.101411850 Eh      0.000000000


-----------------------------------------------
 RI-MP2 CORRELATION ENERGY:     -0.144613567 Eh
-----------------------------------------------


-------
TIMINGS
-------

Total time                :   35.738 sec
Integral trafo            :   31.074 sec ( 87.0%)
I/O of integrals          :    0.002 sec (  0.0%)
K(i,j) Operators          :    0.002 sec (  0.0%)
T(i,j) pair energies      :    0.000 sec (  0.0%)
V-calculation             :    0.003 sec (  0.0%)
V**(-1/2)                 :    0.123 sec (  0.3%)
Gamma(ia|P)               :    0.000 sec (  0.0%)
Gamma-Trafo               :    0.000 sec (  0.0%)
D(virtual)                :    0.000 sec (  0.0%)
D(internal)               :    0.000 sec (  0.0%)
W(virtual)                :    0.000 sec (  0.0%)
W(internal)               :    0.000 sec (  0.0%)
L(virtual)                :    0.000 sec (  0.0%)
L(internal)               :    0.000 sec (  0.0%)
G(D)                      :    0.000 sec (  0.0%)
G(Z)                      :    0.000 sec (  0.0%)
Z-Vector Solution         :    0.000 sec (  0.0%)
Z-Vector Solution         :    0.000 sec (  0.0%)
3-Index Derivative 
+ Separable RIJ part      :    0.000 sec (  0.0%)
2-Index Derivative 
+ Separable RIJ part      :    0.000 sec (  0.0%)
Separable Gradient (X)    :    0.000 sec (  0.0%)


---------------------------------------
MP2 TOTAL ENERGY:     -150.300445424 Eh
---------------------------------------


-------------------------------------------------------------------------------
                          DFT DISPERSION CORRECTION                            
                                                                               
                              DFTD3 V3.1  Rev 1                                
                          USING Becke-Johnson damping                          
-------------------------------------------------------------------------------
The B2PLYP functional is recognized
Active option DFTDOPT                   ...         4   

molecular C6(AA) [au] = 51.245119 


            DFT-D V3
 parameters
 s6 scaling factor         :     0.6400 
 a1 scaling factor         :     0.3065 
 s8 scaling factor         :     0.9147 
 a2 scaling factor         :     5.0570 
 ad hoc parameters k1-k3   :    16.0000     1.3333    -4.0000 

 Edisp/kcal,au: -0.122919589558  -0.000195884814 
 E6   /kcal   :  -0.072391786 
 E8   /kcal   :  -0.050527803 
 % E8         :  41.106387981 

-------------------------   ----------------
Dispersion correction           -0.000195885
-------------------------   ----------------


-------------------------   --------------------
FINAL SINGLE POINT ENERGY      -150.300641308699
-------------------------   --------------------


                            ***************************************
                            *     ORCA property calculations      *
                            ***************************************


  WARNING: The energy has been calculated at the MP2 level but the densities
           used in the property calculations are still SCF densities
           MP2 response densities have not been calculated 
           use %mp2 Density relaxed end
           or  %mp2 Density unrelaxed end

                                    ---------------------
                                    Active property flags
                                    ---------------------
   (+) Dipole Moment


------------------------------------------------------------------------------
                       ORCA ELECTRIC PROPERTIES CALCULATION
------------------------------------------------------------------------------

Dipole Moment Calculation                       ... on
Quadrupole Moment Calculation                   ... off
Polarizability Calculation                      ... off
GBWName                                         ... o2.gbw
Electron density file                           ... o2.scfp
The origin for moment calculation is the CENTER OF MASS  = ( 0.000000,  0.000000  1.141206)

-------------
DIPOLE MOMENT
-------------
                                X             Y             Z
Electronic contribution:      0.00000       0.00000      -0.00000
Nuclear contribution   :      0.00000       0.00000       0.00000
                        -----------------------------------------
Total Dipole Moment    :      0.00000       0.00000      -0.00000
                        -----------------------------------------
Magnitude (a.u.)       :      0.00000
Magnitude (Debye)      :      0.00000



--------------------
Rotational spectrum 
--------------------
 
Rotational constants in cm-1:     0.000000     1.444588     1.444588 
Rotational constants in MHz :     0.000000 43307.659213 43307.659213 

 Dipole components along the rotational axes: 
x,y,z [a.u.] :    -0.000000     0.000000     0.000000 
x,y,z [Debye]:    -0.000000     0.000000     0.000000 

 

Timings for individual modules:

Sum of individual times         ...      173.748 sec (=   2.896 min)
GTO integral calculation        ...        6.324 sec (=   0.105 min)   3.6 %
SCF iterations                  ...      127.512 sec (=   2.125 min)  73.4 %
MP2 module                      ...       39.912 sec (=   0.665 min)  23.0 %
                             ****ORCA TERMINATED NORMALLY****
TOTAL RUN TIME: 0 days 0 hours 4 minutes 5 seconds 799 msec
