
                                 *****************
                                 * O   R   C   A *
                                 *****************

           --- An Ab Initio, DFT and Semiempirical electronic structure package ---

                  #######################################################
                  #                        -***-                        #
                  #          Department of theory and spectroscopy      #
                  #               Directorship: Frank Neese             #
                  #        Max Planck Institute fuer Kohlenforschung    #
                  #                Kaiser Wilhelm Platz 1               #
                  #                 D-45470 Muelheim/Ruhr               #
                  #                      Germany                        #
                  #                                                     #
                  #                  All rights reserved                #
                  #                        -***-                        #
                  #######################################################


                         Program Version 4.2.0 -  RELEASE  -


 With contributions from (in alphabetic order):
   Daniel Aravena         : Magnetic Suceptibility
   Michael Atanasov       : Ab Initio Ligand Field Theory (pilot matlab implementation)
   Alexander A. Auer      : GIAO ZORA, VPT2
   Ute Becker             : Parallelization
   Giovanni Bistoni       : ED, misc. LED, open-shell LED, HFLED
   Martin Brehm           : Molecular dynamics
   Dmytro Bykov           : SCF Hessian
   Vijay G. Chilkuri      : MRCI spin determinant printing, contributions to CSF-ICE
   Dipayan Datta          : RHF DLPNO-CCSD density
   Achintya Kumar Dutta   : EOM-CC, STEOM-CC
   Dmitry Ganyushin       : Spin-Orbit,Spin-Spin,Magnetic field MRCI
   Miquel Garcia          : C-PCM Hessian, Gaussian charge scheme
   Yang Guo               : DLPNO-NEVPT2, CIM, IAO-localization
   Andreas Hansen         : Spin unrestricted coupled pair/coupled cluster methods
   Benjamin Helmich-Paris : CASSCF linear response (MC-RPA)
   Lee Huntington         : MR-EOM, pCC
   Robert Izsak           : Overlap fitted RIJCOSX, COSX-SCS-MP3, EOM
   Christian Kollmar      : KDIIS, OOCD, Brueckner-CCSD(T), CCSD density
   Simone Kossmann        : Meta GGA functionals, TD-DFT gradient, OOMP2, MP2 Hessian
   Martin Krupicka        : AUTO-CI
   Lucas Lang             : DCDCAS
   Dagmar Lenk            : GEPOL surface, SMD
   Dimitrios Liakos       : Extrapolation schemes; Compound Job, initial MDCI parallelization
   Dimitrios Manganas     : Further ROCIS development; embedding schemes
   Dimitrios Pantazis     : SARC Basis sets
   Taras Petrenko         : DFT Hessian,TD-DFT gradient, ASA, ECA, R-Raman, ABS, FL, XAS/XES, NRVS
   Peter Pinski           : DLPNO-MP2, DLPNO-MP2 Gradient
   Christoph Reimann      : Effective Core Potentials
   Marius Retegan         : Local ZFS, SOC
   Christoph Riplinger    : Optimizer, TS searches, QM/MM, DLPNO-CCSD(T), (RO)-DLPNO pert. Triples
   Tobias Risthaus        : Range-separated hybrids, TD-DFT gradient, RPA, STAB
   Michael Roemelt        : Original ROCIS implementation
   Masaaki Saitow         : Open-shell DLPNO-CCSD energy and density
   Barbara Sandhoefer     : DKH picture change effects
   Avijit Sen             : IP-ROCIS
   Kantharuban Sivalingam : CASSCF convergence, NEVPT2, FIC-MRCI
   Bernardo de Souza      : ESD, SOC TD-DFT
   Georgi Stoychev        : AutoAux, RI-MP2 NMR
   Willem Van den Heuvel  : Paramagnetic NMR
   Boris Wezisla          : Elementary symmetry handling
   Frank Wennmohs         : Technical directorship


 We gratefully acknowledge several colleagues who have allowed us to
 interface, adapt or use parts of their codes:
   Stefan Grimme, W. Hujo, H. Kruse,             : VdW corrections, initial TS optimization,
                  C. Bannwarth                     DFT functionals, gCP, sTDA/sTD-DF
   Ed Valeev, F. Pavosevic, A. Kumar             : LibInt (2-el integral package), F12 methods
   Garnet Chan, S. Sharma, J. Yang, R. Olivares  : DMRG
   Ulf Ekstrom                                   : XCFun DFT Library
   Mihaly Kallay                                 : mrcc  (arbitrary order and MRCC methods)
   Andreas Klamt, Michael Diedenhofen            : otool_cosmo (COSMO solvation model)
   Jiri Pittner, Ondrej Demel                    : Mk-CCSD
   Frank Weinhold                                : gennbo (NPA and NBO analysis)
   Christopher J. Cramer and Donald G. Truhlar   : smd solvation model
   Lars Goerigk                                  : TD-DFT with DH, B97 family of functionals
   V. Asgeirsson, H. Jonsson                     : NEB implementation
   FAccTs GmbH                                   : IRC, NEB, NEB-TS, Multilevel, MM, QM/MM, CI optimization
   S Lehtola, MJT Oliveira, MAL Marques          : LibXC Library


 Your calculation uses the libint2 library for the computation of 2-el integrals
 For citations please refer to: http://libint.valeyev.net

 Your ORCA version has been built with support for libXC version: 4.2.3
 For citations please refer to: https://tddft.org/programs/libxc/

 This ORCA versions uses:
   CBLAS   interface :  Fast vector & matrix operations
   LAPACKE interface :  Fast linear algebra routines
   SCALAPACK package :  Parallel linear algebra routines


Your calculation utilizes the atom-pairwise dispersion correction
with the Becke-Johnson damping scheme (D3BJ)
Cite in your paper:
S.Grimme, S.Ehrlich, L.Goerigk, J Comput Chem, (2011), 32, 1456–1465 
S.Grimme, J.Antony, S.Ehrlich and H.Krieg, J.Chem.Phys., 132, (2010), 154104 
   

----- Orbital basis set information -----
Your calculation utilizes the basis: def2-TZVPPD
   F. Weigend and R. Ahlrichs, Phys. Chem. Chem. Phys. 7, 3297 (2005).
   D. Rappoport and F. Furche, J. Chem. Phys. 133 134105 (2010).

----- AuxC basis set information -----
Your calculation utilizes the auxiliary basis: def2-TZVPPD/C
   A. Hellweg, C. Hattig, S. Hofener and W. Klopper, Theor. Chem. Acc. 117, 587 (2007).

----- AuxJK basis set information -----
Your calculation utilizes the auxiliary basis: def2/JK
   H-Ba, Hf-Rn: F. Weigend, J. Comput. Chem. 29, 167 (2008).

================================================================================
                                        WARNINGS
                       Please study these warnings very carefully!
================================================================================


WARNING: No MP2 level density has been requested!
         To caclulate MP2 level properties use
         %mp2 Density relaxed end
         or
         %mp2 Density unrelaxed end
         Otherwise for double-hybrid DFT only the energy is correct!

WARNING: The frozen-core approximation is turned on by default for 
         the MP2 part of double-hybrid DFT.

INFO   : the flag for use of LIBINT has been found!

================================================================================
                                       INPUT FILE
================================================================================
NAME = o3.in
|  1> #
|  2> # o3 ri-B2PLYP-D3BJ/Def2-TZVPPD
|  3> #
|  4> ! rijk ri-b2plyp d3bj def2-tzvppd def2/jk def2-tzvppd/c grid4 nofinalgrid
|  5> 
|  6> *xyz 0 1
|  7> O          0.00000        0.00000        0.00000
|  8> O          0.00000        0.00000        1.26881
|  9> O          1.12933        0.00000       -0.57836
| 10> *
| 11> 
| 12> %maxcore 5000
| 13> 
| 14> %pal
| 15> nprocs = 28
| 16> end
| 17> 
| 18> 
| 19>                          ****END OF INPUT****
================================================================================

                       ****************************
                       * Single Point Calculation *
                       ****************************

---------------------------------
CARTESIAN COORDINATES (ANGSTROEM)
---------------------------------
  O      0.000000    0.000000    0.000000
  O      0.000000    0.000000    1.268810
  O      1.129330    0.000000   -0.578360

----------------------------
CARTESIAN COORDINATES (A.U.)
----------------------------
  NO LB      ZA    FRAG     MASS         X           Y           Z
   0 O     8.0000    0    15.999    0.000000    0.000000    0.000000
   1 O     8.0000    0    15.999    0.000000    0.000000    2.397703
   2 O     8.0000    0    15.999    2.134124    0.000000   -1.092942

--------------------------------
INTERNAL COORDINATES (ANGSTROEM)
--------------------------------
 O      0   0   0     0.000000000000     0.00000000     0.00000000
 O      1   0   0     1.268810000000     0.00000000     0.00000000
 O      1   2   0     1.268813043163   117.11819590     0.00000000

---------------------------
INTERNAL COORDINATES (A.U.)
---------------------------
 O      0   0   0     0.000000000000     0.00000000     0.00000000
 O      1   0   0     2.397703415981     0.00000000     0.00000000
 O      1   2   0     2.397709166725   117.11819590     0.00000000

---------------------
BASIS SET INFORMATION
---------------------
There are 1 groups of distinct atoms

 Group   1 Type O   : 12s7p3d1f contracted to 6s4p3d1f pattern {621111/4111/111/1}

Atom   0O    basis set group =>   1
Atom   1O    basis set group =>   1
Atom   2O    basis set group =>   1
---------------------------------
AUXILIARY/C BASIS SET INFORMATION
---------------------------------
There are 1 groups of distinct atoms

 Group   1 Type O   : 9s7p6d4f1g contracted to 9s7p5d4f1g pattern {111111111/1111111/21111/1111/1}

Atom   0O    basis set group =>   1
Atom   1O    basis set group =>   1
Atom   2O    basis set group =>   1
----------------------------------
AUXILIARY/JK BASIS SET INFORMATION
----------------------------------
There are 1 groups of distinct atoms

 Group   1 Type O   : 14s10p6d2f1g contracted to 10s8p4d2f1g pattern {5111111111/31111111/3111/11/1}

Atom   0O    basis set group =>   1
Atom   1O    basis set group =>   1
Atom   2O    basis set group =>   1


           ************************************************************
           *        Program running with 28 parallel MPI-processes    *
           *              working on a common directory               *
           ************************************************************
------------------------------------------------------------------------------
                           ORCA GTO INTEGRAL CALCULATION
                           -- RI-GTO INTEGRALS CHOSEN --
------------------------------------------------------------------------------

                         BASIS SET STATISTICS AND STARTUP INFO

Gaussian basis set:
 # of primitive gaussian shells          ...   69
 # of primitive gaussian functions       ...  165
 # of contracted shells                  ...   42
 # of contracted basis functions         ...  120
 Highest angular momentum                ...    3
 Maximum contraction depth               ...    6
Auxiliary gaussian basis set:
 # of primitive gaussian shells          ...   99
 # of primitive gaussian functions       ...  291
 # of contracted shells                  ...   75
 # of contracted aux-basis functions     ...  231
 Highest angular momentum                ...    4
 Maximum contraction depth               ...    5
Ratio of auxiliary to basis functions    ...  1.93
Integral package used                  ... LIBINT
 One Electron integrals                  ... done
 Ordering auxiliary basis shells         ... done
 Integral threshhold             Thresh  ...  1.000e-10
 Primitive cut-off               TCut    ...  1.000e-11
 Pre-screening matrix                    ... done
 Shell pair data                         ... 
 Ordering of the shell pairs             ... done (   0.000 sec) 895 of 903 pairs
 Determination of significant pairs      ... done (   0.000 sec)
 Creation of shell pair data             ... done (   0.000 sec)
 Storage of shell pair data              ... done (   0.018 sec)
 Shell pair data done in (   0.018 sec)
 Computing two index integrals           ... done
 Cholesky decomposition of the V-matrix  ... done


Timings:
 Total evaluation time                   ...   0.359 sec (  0.006 min)
 One electron matrix time                ...   0.104 sec (  0.002 min) = 29.1%
 Schwartz matrix evaluation time         ...   0.115 sec (  0.002 min) = 32.2%
 Two index repulsion integral time       ...   0.016 sec (  0.000 min) =  4.3%
 Cholesky decomposition of V             ...   0.069 sec (  0.001 min) = 19.3%
 Three index repulsion integral time     ...   0.000 sec (  0.000 min) =  0.0%



           ************************************************************
           *        Program running with 28 parallel MPI-processes    *
           *              working on a common directory               *
           ************************************************************
-------------------------------------------------------------------------------
                                 ORCA SCF
-------------------------------------------------------------------------------

------------
SCF SETTINGS
------------
Hamiltonian:
 Density Functional     Method          .... DFT(GTOs)
 Exchange Functional    Exchange        .... B88
   X-Alpha parameter    XAlpha          ....  0.666667
   Becke's b parameter  XBeta           ....  0.004200
 Correlation Functional Correlation     .... LYP
 LDA part of GGA corr.  LDAOpt          .... VWN-3
 Gradients option       PostSCFGGA      .... off
 Hybrid DFT is turned on
   Fraction HF Exchange ScalHFX         ....  0.530000
   Scaling of DF-GGA-X  ScalDFX         ....  0.470000
   Scaling of DF-GGA-C  ScalDFC         ....  0.730000
   Scaling of DF-LDA-C  ScalLDAC        ....  0.730000
   Perturbative correction              ....  0.270000
   Density functional embedding theory  .... OFF
 RI-approximation to the Coulomb term is turned on
   Number of auxiliary basis functions  .... 231
   RI-JK (J+K treated both via RI)      .... on


General Settings:
 Integral files         IntName         .... o3
 Hartree-Fock type      HFTyp           .... RHF
 Total Charge           Charge          ....    0
 Multiplicity           Mult            ....    1
 Number of Electrons    NEL             ....   24
 Basis Dimension        Dim             ....  120
 Nuclear Repulsion      ENuc            ....     69.0271363544 Eh

Convergence Acceleration:
 DIIS                   CNVDIIS         .... on
   Start iteration      DIISMaxIt       ....    12
   Startup error        DIISStart       ....  0.200000
   # of expansion vecs  DIISMaxEq       ....     5
   Bias factor          DIISBfac        ....   1.050
   Max. coefficient     DIISMaxC        ....  10.000
 Newton-Raphson         CNVNR           .... off
 SOSCF                  CNVSOSCF        .... on
   Start iteration      SOSCFMaxIt      ....   150
   Startup grad/error   SOSCFStart      ....  0.003300
 Level Shifting         CNVShift        .... on
   Level shift para.    LevelShift      ....    0.2500
   Turn off err/grad.   ShiftErr        ....    0.0010
 Zerner damping         CNVZerner       .... off
 Static damping         CNVDamp         .... on
   Fraction old density DampFac         ....    0.7000
   Max. Damping (<1)    DampMax         ....    0.9800
   Min. Damping (>=0)   DampMin         ....    0.0000
   Turn off err/grad.   DampErr         ....    0.1000
 Fernandez-Rico         CNVRico         .... off

SCF Procedure:
 Maximum # iterations   MaxIter         ....   125
 SCF integral mode      SCFMode         .... Direct
   Integral package                     .... LIBINT
 Reset frequency        DirectResetFreq ....    20
 Integral Threshold     Thresh          ....  1.000e-10 Eh
 Primitive CutOff       TCut            ....  1.000e-11 Eh

Convergence Tolerance:
 Convergence Check Mode ConvCheckMode   .... Total+1el-Energy
 Convergence forced     ConvForced      .... 0
 Energy Change          TolE            ....  1.000e-06 Eh
 1-El. energy change                    ....  1.000e-03 Eh
 Orbital Gradient       TolG            ....  5.000e-05
 Orbital Rotation angle TolX            ....  5.000e-05
 DIIS Error             TolErr          ....  1.000e-06


Diagonalization of the overlap matrix:
Smallest eigenvalue                        ... 2.133e-04
Time for diagonalization                   ...    0.011 sec
Threshold for overlap eigenvalues          ... 1.000e-08
Number of eigenvalues below threshold      ... 0
Time for construction of square roots      ...    0.086 sec
Total time needed                          ...    0.097 sec

-------------------
DFT GRID GENERATION
-------------------

General Integration Accuracy     IntAcc      ...  4.670
Radial Grid Type                 RadialGrid  ... Gauss-Chebyshev
Angular Grid (max. acc.)         AngularGrid ... Lebedev-302
Angular grid pruning method      GridPruning ... 3 (G Style)
Weight generation scheme         WeightScheme... Becke
Basis function cutoff            BFCut       ...    1.0000e-10
Integration weight cutoff        WCut        ...    1.0000e-14
Grids for H and He will be reduced by one unit

# of grid points (after initial pruning)     ...  18636 (   0.0 sec)
# of grid points (after weights+screening)   ...  18484 (   0.0 sec)
nearest neighbour list constructed           ...    0.0 sec
Grid point re-assignment to atoms done       ...    0.0 sec
Grid point division into batches done        ...    0.1 sec
Reduced shell lists constructed in    0.1 sec

Total number of grid points                  ...    18484
Total number of batches                      ...      290
Average number of points per batch           ...       63
Average number of grid points per atom       ...     6161
Average number of shells per batch           ...    14.42 (34.33%)
Average number of basis functions per batch  ...    38.75 (32.29%)
Average number of large shells per batch     ...    10.58 (73.41%)
Average number of large basis fcns per batch ...    28.92 (74.62%)
Average number of aux-shells per batch       ...    14.42 (19.22%)
Average number of aux functions per batch    ...    38.75 (16.77%)
Maximum spatial batch extension              ...  11.51, 16.88, 12.18 au
Average spatial batch extension              ...   0.34,  0.39,  0.34 au

Time for grid setup =    1.804 sec

------------------------------
INITIAL GUESS: MODEL POTENTIAL
------------------------------
Loading Hartree-Fock densities                     ... done
Calculating cut-offs                               ... done
Setting up the integral package                    ... done
Initializing the effective Hamiltonian             ... done
Starting the Coulomb interaction                   ... done (   0.0 sec)
Reading the grid                                   ... done
Mapping shells                                     ... done
Starting the XC term evaluation                    ... done (   0.0 sec)
  promolecular density results
     # of electrons  =     23.999996011
     EX              =    -24.498844718
     EC              =     -0.298728439
     EX+EC           =    -24.797573157
Transforming the Hamiltonian                       ... done (   0.0 sec)
Diagonalizing the Hamiltonian                      ... done (   0.0 sec)
Back transforming the eigenvectors                 ... done (   0.0 sec)
Now organizing SCF variables                       ... done
                      ------------------
                      INITIAL GUESS DONE (   2.4 sec)
                      ------------------
--------------
SCF ITERATIONS
--------------
ITER       Energy         Delta-E        Max-DP      RMS-DP      [F,P]     Damp
  0   -224.9837754770   0.000000000000 0.04379184  0.00140942  0.3203619 0.7000
  1   -225.0286191297  -0.044843652606 0.03545677  0.00118657  0.2079635 0.7000
                               ***Turning on DIIS***
  2   -225.0514068298  -0.022787700171 0.05478092  0.00180925  0.0535105 0.0000
  3   -225.0772495618  -0.025842732005 0.01001265  0.00027154  0.1865605 0.7000
  4   -225.0906790641  -0.013429502295 0.01069132  0.00028435  0.1658106 0.7000
  5   -225.1023537198  -0.011674655675 0.00976159  0.00026545  0.1271530 0.7000
  6   -225.1108217597  -0.008468039901 0.02646706  0.00073948  0.0919043 0.0000
                      *** Initiating the SOSCF procedure ***
                           *** Shutting down DIIS ***
                      *** Re-Reading the Fockian *** 
                      *** Removing any level shift *** 
ITER      Energy       Delta-E        Grad      Rot      Max-DP    RMS-DP
  7   -225.12117903  -0.0103572660  0.001366  0.001366  0.003228  0.000064
  8   -225.12120722  -0.0000281973  0.000889  0.001631  0.001192  0.000028
  9   -225.12120836  -0.0000011368  0.000715  0.000264  0.000476  0.000014
 10   -225.12121147  -0.0000031071  0.000105  0.000050  0.000099  0.000004
                 **** Energy Check signals convergence ****
              ***Rediagonalizing the Fockian in SOSCF/NRSCF***

               *****************************************************
               *                     SUCCESS                       *
               *           SCF CONVERGED AFTER  11 CYCLES          *
               *****************************************************


----------------
TOTAL SCF ENERGY
----------------

Total Energy       :         -225.12121156 Eh           -6125.85960 eV

Components:
Nuclear Repulsion  :           69.02713635 Eh            1878.32387 eV
Electronic Energy  :         -294.14834792 Eh           -8004.18347 eV
One Electron Energy:         -445.78897832 Eh          -12130.53480 eV
Two Electron Energy:          151.64063040 Eh            4126.35133 eV

Virial components:
Potential Energy   :         -449.48878015 Eh          -12231.21153 eV
Kinetic Energy     :          224.36756859 Eh            6105.35193 eV
Virial Ratio       :            2.00335897


DFT components:
N(Alpha)           :       11.999998537060 electrons
N(Beta)            :       11.999998537060 electrons
N(Total)           :       23.999997074120 electrons
E(X)               :      -11.566413030727 Eh       
E(C)               :       -0.640257886204 Eh       
E(XC)              :      -12.206670916931 Eh       
DFET-embed. en.    :        0.000000000000 Eh       

---------------
SCF CONVERGENCE
---------------

  Last Energy change         ...   -9.6195e-08  Tolerance :   1.0000e-06
  Last MAX-Density change    ...    4.1722e-05  Tolerance :   1.0000e-05
  Last RMS-Density change    ...    9.8816e-07  Tolerance :   1.0000e-06
  Last Orbital Gradient      ...    2.6771e-05  Tolerance :   5.0000e-05
  Last Orbital Rotation      ...    4.2664e-05  Tolerance :   5.0000e-05

             **** THE GBW FILE WAS UPDATED (o3.gbw) ****
             **** DENSITY FILE WAS UPDATED (o3.scfp) ****
             **** ENERGY FILE WAS UPDATED (o3.en.tmp) ****
             **** THE GBW FILE WAS UPDATED (o3.gbw) ****
             **** DENSITY FILE WAS UPDATED (o3.scfp) ****
----------------
ORBITAL ENERGIES
----------------

  NO   OCC          E(Eh)            E(eV) 
   0   2.0000     -20.057962      -545.8049 
   1   2.0000     -19.866534      -540.5959 
   2   2.0000     -19.866494      -540.5948 
   3   2.0000      -1.532418       -41.6992 
   4   2.0000      -1.242261       -33.8036 
   5   2.0000      -0.919185       -25.0123 
   6   2.0000      -0.699051       -19.0221 
   7   2.0000      -0.687006       -18.6944 
   8   2.0000      -0.686700       -18.6860 
   9   2.0000      -0.445285       -12.1168 
  10   2.0000      -0.436108       -11.8671 
  11   2.0000      -0.422580       -11.4990 
  12   0.0000      -0.141242        -3.8434 
  13   0.0000       0.061554         1.6750 
  14   0.0000       0.061796         1.6816 
  15   0.0000       0.065996         1.7959 
  16   0.0000       0.088622         2.4115 
  17   0.0000       0.116232         3.1628 
  18   0.0000       0.127757         3.4765 
  19   0.0000       0.132212         3.5977 
  20   0.0000       0.143449         3.9034 
  21   0.0000       0.151657         4.1268 
  22   0.0000       0.174126         4.7382 
  23   0.0000       0.181641         4.9427 
  24   0.0000       0.233306         6.3486 
  25   0.0000       0.274329         7.4649 
  26   0.0000       0.309508         8.4222 
  27   0.0000       0.382593        10.4109 
  28   0.0000       0.386837        10.5264 
  29   0.0000       0.447964        12.1897 
  30   0.0000       0.450649        12.2628 
  31   0.0000       0.457941        12.4612 
  32   0.0000       0.464672        12.6444 
  33   0.0000       0.489248        13.3131 
  34   0.0000       0.502925        13.6853 
  35   0.0000       0.503031        13.6882 
  36   0.0000       0.535818        14.5803 
  37   0.0000       0.537333        14.6216 
  38   0.0000       0.540223        14.7002 
  39   0.0000       0.581851        15.8330 
  40   0.0000       0.590342        16.0640 
  41   0.0000       0.595107        16.1937 
  42   0.0000       0.635359        17.2890 
  43   0.0000       0.691731        18.8230 
  44   0.0000       0.779385        21.2081 
  45   0.0000       0.869661        23.6647 
  46   0.0000       0.909999        24.7623 
  47   0.0000       0.922246        25.0956 
  48   0.0000       0.942138        25.6369 
  49   0.0000       0.952493        25.9187 
  50   0.0000       1.013143        27.5690 
  51   0.0000       1.052496        28.6399 
  52   0.0000       1.254013        34.1234 
  53   0.0000       1.295645        35.2563 
  54   0.0000       1.464693        39.8563 
  55   0.0000       1.497583        40.7513 
  56   0.0000       1.514679        41.2165 
  57   0.0000       1.744353        47.4663 
  58   0.0000       1.763723        47.9933 
  59   0.0000       1.775968        48.3265 
  60   0.0000       1.781956        48.4895 
  61   0.0000       1.913841        52.0783 
  62   0.0000       2.041566        55.5538 
  63   0.0000       2.137229        58.1570 
  64   0.0000       2.143786        58.3354 
  65   0.0000       2.302294        62.6486 
  66   0.0000       2.305614        62.7389 
  67   0.0000       2.553094        69.4732 
  68   0.0000       2.567162        69.8560 
  69   0.0000       2.637394        71.7671 
  70   0.0000       2.849465        77.5379 
  71   0.0000       2.970154        80.8220 
  72   0.0000       3.032050        82.5063 
  73   0.0000       3.075234        83.6814 
  74   0.0000       3.151145        85.7470 
  75   0.0000       3.210942        87.3742 
  76   0.0000       3.222547        87.6900 
  77   0.0000       3.377066        91.8946 
  78   0.0000       3.471821        94.4730 
  79   0.0000       4.284875       116.5974 
  80   0.0000       4.410887       120.0263 
  81   0.0000       4.635308       126.1331 
  82   0.0000       4.703101       127.9779 
  83   0.0000       4.729666       128.7007 
  84   0.0000       4.815328       131.0317 
  85   0.0000       4.863761       132.3497 
  86   0.0000       4.892155       133.1223 
  87   0.0000       5.111111       139.0804 
  88   0.0000       5.239750       142.5808 
  89   0.0000       5.245025       142.7244 
  90   0.0000       5.249886       142.8567 
  91   0.0000       5.259185       143.1097 
  92   0.0000       5.349032       145.5545 
  93   0.0000       5.593582       152.2091 
  94   0.0000       5.596346       152.2843 
  95   0.0000       5.800882       157.8500 
  96   0.0000       6.111243       166.2954 
  97   0.0000       6.347426       172.7222 
  98   0.0000       6.369894       173.3336 
  99   0.0000       6.451017       175.5411 
 100   0.0000       6.520079       177.4204 
 101   0.0000       6.520931       177.4436 
 102   0.0000       6.533008       177.7722 
 103   0.0000       6.589238       179.3023 
 104   0.0000       6.620465       180.1520 
 105   0.0000       6.634669       180.5385 
 106   0.0000       6.645406       180.8307 
 107   0.0000       6.679964       181.7711 
 108   0.0000       6.763656       184.0484 
 109   0.0000       7.126479       193.9213 
 110   0.0000       7.166325       195.0056 
 111   0.0000       7.286420       198.2736 
 112   0.0000       7.338060       199.6788 
 113   0.0000       7.609921       207.0765 
 114   0.0000       7.729239       210.3233 
 115   0.0000       8.525937       232.0025 
 116   0.0000       8.965236       243.9565 
 117   0.0000      43.981275      1196.7913 
 118   0.0000      44.416387      1208.6313 
 119   0.0000      44.844278      1220.2748 

                    ********************************
                    * MULLIKEN POPULATION ANALYSIS *
                    ********************************

-----------------------
MULLIKEN ATOMIC CHARGES
-----------------------
   0 O :    0.380403
   1 O :   -0.190241
   2 O :   -0.190163
Sum of atomic charges:    0.0000000

--------------------------------
MULLIKEN REDUCED ORBITAL CHARGES
--------------------------------
  0 O s       :     3.737084  s :     3.737084
      pz      :     1.131823  p :     3.768293
      px      :     1.343203
      py      :     1.293266
      dz2     :     0.019794  d :     0.106850
      dxz     :     0.030514
      dyz     :     0.030053
      dx2y2   :     0.007983
      dxy     :     0.018505
      f0      :     0.001654  f :     0.007370
      f+1     :     0.002240
      f-1     :     0.001028
      f+2     :     0.000857
      f-2     :     0.000452
      f+3     :     0.000556
      f-3     :     0.000583
  1 O s       :     3.998673  s :     3.998673
      pz      :     0.890649  p :     4.160409
      px      :     1.950184
      py      :     1.319576
      dz2     :     0.016394  d :     0.027226
      dxz     :     0.002960
      dyz     :     0.007746
      dx2y2   :     0.000373
      dxy     :    -0.000248
      f0      :     0.002144  f :     0.003933
      f+1     :     0.000775
      f-1     :     0.000976
      f+2     :     0.000017
      f-2     :     0.000000
      f+3     :     0.000011
      f-3     :     0.000009
  2 O s       :     3.998618  s :     3.998618
      pz      :     1.707723  p :     4.160388
      px      :     1.133094
      py      :     1.319571
      dz2     :     0.001571  d :     0.027224
      dxz     :     0.012847
      dyz     :    -0.000735
      dx2y2   :     0.005308
      dxy     :     0.008232
      f0      :     0.000552  f :     0.003933
      f+1     :     0.000657
      f-1     :     0.000010
      f+2     :     0.001150
      f-2     :     0.000466
      f+3     :     0.000588
      f-3     :     0.000509


                     *******************************
                     * LOEWDIN POPULATION ANALYSIS *
                     *******************************

----------------------
LOEWDIN ATOMIC CHARGES
----------------------
   0 O :   -0.085443
   1 O :    0.042721
   2 O :    0.042722

-------------------------------
LOEWDIN REDUCED ORBITAL CHARGES
-------------------------------
  0 O s       :     3.338585  s :     3.338585
      pz      :     1.290365  p :     3.881812
      px      :     1.427515
      py      :     1.163932
      dz2     :     0.250905  d :     0.836662
      dxz     :     0.266023
      dyz     :     0.158052
      dx2y2   :     0.094311
      dxy     :     0.067372
      f0      :     0.006517  f :     0.028383
      f+1     :     0.009869
      f-1     :     0.003227
      f+2     :     0.003228
      f-2     :     0.001362
      f+3     :     0.002272
      f-3     :     0.001909
  1 O s       :     3.533512  s :     3.533512
      pz      :     1.102637  p :     4.121278
      px      :     1.785747
      py      :     1.232894
      dz2     :     0.135263  d :     0.288196
      dxz     :     0.081752
      dyz     :     0.064783
      dx2y2   :     0.004786
      dxy     :     0.001611
      f0      :     0.008023  f :     0.014293
      f+1     :     0.003447
      f-1     :     0.002773
      f+2     :     0.000022
      f-2     :     0.000003
      f+3     :     0.000014
      f-3     :     0.000011
  2 O s       :     3.533514  s :     3.533514
      pz      :     1.630274  p :     4.121275
      px      :     1.258110
      py      :     1.232890
      dz2     :     0.057128  d :     0.288196
      dxz     :     0.084033
      dyz     :     0.019278
      dx2y2   :     0.080640
      dxy     :     0.047117
      f0      :     0.001754  f :     0.014293
      f+1     :     0.002815
      f-1     :     0.000010
      f+2     :     0.004137
      f-2     :     0.001228
      f+3     :     0.002801
      f-3     :     0.001548


                      *****************************
                      * MAYER POPULATION ANALYSIS *
                      *****************************

  NA   - Mulliken gross atomic population
  ZA   - Total nuclear charge
  QA   - Mulliken gross atomic charge
  VA   - Mayer's total valence
  BVA  - Mayer's bonded valence
  FA   - Mayer's free valence

  ATOM       NA         ZA         QA         VA         BVA        FA
  0 O      7.6196     8.0000     0.3804     2.5486     2.5486     0.0000
  1 O      8.1902     8.0000    -0.1902     1.6470     1.6470    -0.0000
  2 O      8.1902     8.0000    -0.1902     1.6470     1.6470     0.0000

  Mayer bond orders larger than 0.100000
B(  0-O ,  1-O ) :   1.2743 B(  0-O ,  2-O ) :   1.2743 B(  1-O ,  2-O ) :   0.3728 


-------
TIMINGS
-------

Total SCF time: 0 days 0 hours 2 min 45 sec 

Total time                  ....     165.309 sec
Sum of individual times     ....     164.481 sec  ( 99.5%)

Fock matrix formation       ....     160.502 sec  ( 97.1%)
  XC integration            ....     157.277 sec  ( 98.0% of F)
    Basis function eval.    ....       0.027 sec  (  0.0% of XC)
    Density eval.           ....       0.017 sec  (  0.0% of XC)
    XC-Functional eval.     ....       0.012 sec  (  0.0% of XC)
    XC-Potential eval.      ....       0.032 sec  (  0.0% of XC)
Diagonalization             ....       1.146 sec  (  0.7%)
Density matrix formation    ....       0.008 sec  (  0.0%)
Population analysis         ....       0.218 sec  (  0.1%)
Initial guess               ....       0.617 sec  (  0.4%)
Orbital Transformation      ....       0.000 sec  (  0.0%)
Orbital Orthonormalization  ....       0.000 sec  (  0.0%)
DIIS solution               ....       0.067 sec  (  0.0%)
SOSCF solution              ....       0.119 sec  (  0.1%)
Grid generation             ....       1.804 sec  (  1.1%)


           ************************************************************
           *        Program running with 28 parallel MPI-processes    *
           *              working on a common directory               *
           ************************************************************

------------------------------------------------------------------------------
                                ORCA  MP2 
------------------------------------------------------------------------------

Freezing NCore=6 chemical core electrons

-------------
RI-MP2 ENERGY
-------------
Dimension of the basis                    ...  120
Memory devoted to MP2                     ... 5000 MB   
Data format for buffers                   ... DOUBLE
Compression type for matrix containers    ... UNCOMPRESSED
Overall scaling of the MP2 energy         ...   2.700e-01
Calculating two index integrals           ... done (    0.009 sec)
Cholesky decomposition of V**-1           ... done (    0.141 sec)

-----------------
RI-TRANSFORMATION (AUX index driven)
-----------------

Dimension of the orbital-basis         ... 120
Dimension of the aux-basis             ... 276
Transformation of internal/external MOs...    3-  11 to   12- 119
Number Format for Storage              ... Double (8 Byte)
Integral mode                          ... Direct

First Phase: integral generation and transformation of MO indices
  Aux angular momentum 0               ... done (    0.001 sec)
  Aux angular momentum 1               ... done (    0.002 sec)
  Aux angular momentum 2               ... done (    0.001 sec)
  Aux angular momentum 3               ... done (    0.002 sec)
  Aux angular momentum 4               ... done (    0.003 sec)
Closing buffer VIA ( 0.00 GB; CompressionRatio= 1.00)
  Phase 1 completed in     3.841 sec
Second Phase: sorting and transformation of aux index

IA-Transformation
Memory available                       ... 4999 MB 
Max. # MO pairs treated in a batch     ... 1    
# of internal orbitals                 ... 9
# batches for internal orbitals        ... 1
Closing buffer IAV ( 0.00 GB; CompressionRatio= 1.00)
(ia|v) transformation done in     0.102 sec

  Phase 2 completed in     5.756 sec
RI-Integral transformation completed in    10.899 sec
Opening buffers                              ... done

Starting loop over batches of integrals:

Operator 0  - window                       ... (  3- 11)x( 12-119)
Operator 0  - Memory available             ...  5000 MB
Operator 0  - Memory needed per MO         ...   0.2 MB
Operator 0  - Number of orbitals per batch ... 1
Operator 0  - Number of batches            ... 1

OPERATOR  0   PASS   0:  MOs     3 ...    3 +    4 ...    4 +    5 ...    5 +    6 ...    6
                            +    7 ...    7 +    8 ...    8 +    9 ...    9 +   10 ...   10
                            +   11 ...   11
  Reading integrals       ... ok
Time spent in pair loops =     0.003 sec
Deleting buffer (Ka|jb)[aa] ...done

-----------------------------------------------
 RI-MP2 CORRELATION ENERGY:     -0.267582956 Eh
-----------------------------------------------


-------
TIMINGS
-------

Total time                :   11.501 sec
Integral trafo            :   10.912 sec ( 94.9%)
I/O of integrals          :    0.001 sec (  0.0%)
K(i,j) Operators          :    0.000 sec (  0.0%)
T(i,j) pair energies      :    0.001 sec (  0.0%)
V-calculation             :    0.009 sec (  0.1%)
V**(-1/2)                 :    0.141 sec (  1.2%)
Gamma(ia|P)               :    0.000 sec (  0.0%)
Gamma-Trafo               :    0.000 sec (  0.0%)
D(virtual)                :    0.000 sec (  0.0%)
D(internal)               :    0.000 sec (  0.0%)
W(virtual)                :    0.000 sec (  0.0%)
W(internal)               :    0.000 sec (  0.0%)
L(virtual)                :    0.000 sec (  0.0%)
L(internal)               :    0.000 sec (  0.0%)
G(D)                      :    0.000 sec (  0.0%)
G(Z)                      :    0.000 sec (  0.0%)
Z-Vector Solution         :    0.000 sec (  0.0%)
Z-Vector Solution         :    0.000 sec (  0.0%)
3-Index Derivative 
+ Separable RIJ part      :    0.000 sec (  0.0%)
2-Index Derivative 
+ Separable RIJ part      :    0.000 sec (  0.0%)
Separable Gradient (X)    :    0.000 sec (  0.0%)


---------------------------------------
MP2 TOTAL ENERGY:     -225.388794519 Eh
---------------------------------------


-------------------------------------------------------------------------------
                          DFT DISPERSION CORRECTION                            
                                                                               
                              DFTD3 V3.1  Rev 1                                
                          USING Becke-Johnson damping                          
-------------------------------------------------------------------------------
The B2PLYP functional is recognized
Active option DFTDOPT                   ...         4   

molecular C6(AA) [au] = 107.650865 


            DFT-D V3
 parameters
 s6 scaling factor         :     0.6400 
 a1 scaling factor         :     0.3065 
 s8 scaling factor         :     0.9147 
 a2 scaling factor         :     5.0570 
 ad hoc parameters k1-k3   :    16.0000     1.3333    -4.0000 

 Edisp/kcal,au: -0.337983815772  -0.000538611437 
 E6   /kcal   :  -0.197999877 
 E8   /kcal   :  -0.139983939 
 % E8         :  41.417349579 

-------------------------   ----------------
Dispersion correction           -0.000538611
-------------------------   ----------------


-------------------------   --------------------
FINAL SINGLE POINT ENERGY      -225.389333130790
-------------------------   --------------------


                            ***************************************
                            *     ORCA property calculations      *
                            ***************************************


  WARNING: The energy has been calculated at the MP2 level but the densities
           used in the property calculations are still SCF densities
           MP2 response densities have not been calculated 
           use %mp2 Density relaxed end
           or  %mp2 Density unrelaxed end

                                    ---------------------
                                    Active property flags
                                    ---------------------
   (+) Dipole Moment


------------------------------------------------------------------------------
                       ORCA ELECTRIC PROPERTIES CALCULATION
------------------------------------------------------------------------------

Dipole Moment Calculation                       ... on
Quadrupole Moment Calculation                   ... off
Polarizability Calculation                      ... off
GBWName                                         ... o3.gbw
Electron density file                           ... o3.scfp
The origin for moment calculation is the CENTER OF MASS  = ( 0.711375,  0.000000  0.434920)

-------------
DIPOLE MOMENT
-------------
                                X             Y             Z
Electronic contribution:     -0.23682      -0.00000      -0.14478
Nuclear contribution   :      0.00000       0.00000      -0.00000
                        -----------------------------------------
Total Dipole Moment    :     -0.23682      -0.00000      -0.14478
                        -----------------------------------------
Magnitude (a.u.)       :      0.27757
Magnitude (Debye)      :      0.70553



--------------------
Rotational spectrum 
--------------------
 
Rotational constants in cm-1:     3.608233     0.449573     0.399764 
Rotational constants in MHz : 108172.104573 13477.849132 11984.610444 

 Dipole components along the rotational axes: 
x,y,z [a.u.] :    -0.000004    -0.277570     0.000000 
x,y,z [Debye]:    -0.000010    -0.705527     0.000000 

 

Timings for individual modules:

Sum of individual times         ...      189.474 sec (=   3.158 min)
GTO integral calculation        ...        6.024 sec (=   0.100 min)   3.2 %
SCF iterations                  ...      168.038 sec (=   2.801 min)  88.7 %
MP2 module                      ...       15.412 sec (=   0.257 min)   8.1 %
                             ****ORCA TERMINATED NORMALLY****
TOTAL RUN TIME: 0 days 0 hours 4 minutes 7 seconds 737 msec
