
                                 *****************
                                 * O   R   C   A *
                                 *****************

           --- An Ab Initio, DFT and Semiempirical electronic structure package ---

                  #######################################################
                  #                        -***-                        #
                  #          Department of theory and spectroscopy      #
                  #               Directorship: Frank Neese             #
                  #        Max Planck Institute fuer Kohlenforschung    #
                  #                Kaiser Wilhelm Platz 1               #
                  #                 D-45470 Muelheim/Ruhr               #
                  #                      Germany                        #
                  #                                                     #
                  #                  All rights reserved                #
                  #                        -***-                        #
                  #######################################################


                         Program Version 4.2.0 -  RELEASE  -


 With contributions from (in alphabetic order):
   Daniel Aravena         : Magnetic Suceptibility
   Michael Atanasov       : Ab Initio Ligand Field Theory (pilot matlab implementation)
   Alexander A. Auer      : GIAO ZORA, VPT2
   Ute Becker             : Parallelization
   Giovanni Bistoni       : ED, misc. LED, open-shell LED, HFLED
   Martin Brehm           : Molecular dynamics
   Dmytro Bykov           : SCF Hessian
   Vijay G. Chilkuri      : MRCI spin determinant printing, contributions to CSF-ICE
   Dipayan Datta          : RHF DLPNO-CCSD density
   Achintya Kumar Dutta   : EOM-CC, STEOM-CC
   Dmitry Ganyushin       : Spin-Orbit,Spin-Spin,Magnetic field MRCI
   Miquel Garcia          : C-PCM Hessian, Gaussian charge scheme
   Yang Guo               : DLPNO-NEVPT2, CIM, IAO-localization
   Andreas Hansen         : Spin unrestricted coupled pair/coupled cluster methods
   Benjamin Helmich-Paris : CASSCF linear response (MC-RPA)
   Lee Huntington         : MR-EOM, pCC
   Robert Izsak           : Overlap fitted RIJCOSX, COSX-SCS-MP3, EOM
   Christian Kollmar      : KDIIS, OOCD, Brueckner-CCSD(T), CCSD density
   Simone Kossmann        : Meta GGA functionals, TD-DFT gradient, OOMP2, MP2 Hessian
   Martin Krupicka        : AUTO-CI
   Lucas Lang             : DCDCAS
   Dagmar Lenk            : GEPOL surface, SMD
   Dimitrios Liakos       : Extrapolation schemes; Compound Job, initial MDCI parallelization
   Dimitrios Manganas     : Further ROCIS development; embedding schemes
   Dimitrios Pantazis     : SARC Basis sets
   Taras Petrenko         : DFT Hessian,TD-DFT gradient, ASA, ECA, R-Raman, ABS, FL, XAS/XES, NRVS
   Peter Pinski           : DLPNO-MP2, DLPNO-MP2 Gradient
   Christoph Reimann      : Effective Core Potentials
   Marius Retegan         : Local ZFS, SOC
   Christoph Riplinger    : Optimizer, TS searches, QM/MM, DLPNO-CCSD(T), (RO)-DLPNO pert. Triples
   Tobias Risthaus        : Range-separated hybrids, TD-DFT gradient, RPA, STAB
   Michael Roemelt        : Original ROCIS implementation
   Masaaki Saitow         : Open-shell DLPNO-CCSD energy and density
   Barbara Sandhoefer     : DKH picture change effects
   Avijit Sen             : IP-ROCIS
   Kantharuban Sivalingam : CASSCF convergence, NEVPT2, FIC-MRCI
   Bernardo de Souza      : ESD, SOC TD-DFT
   Georgi Stoychev        : AutoAux, RI-MP2 NMR
   Willem Van den Heuvel  : Paramagnetic NMR
   Boris Wezisla          : Elementary symmetry handling
   Frank Wennmohs         : Technical directorship


 We gratefully acknowledge several colleagues who have allowed us to
 interface, adapt or use parts of their codes:
   Stefan Grimme, W. Hujo, H. Kruse,             : VdW corrections, initial TS optimization,
                  C. Bannwarth                     DFT functionals, gCP, sTDA/sTD-DF
   Ed Valeev, F. Pavosevic, A. Kumar             : LibInt (2-el integral package), F12 methods
   Garnet Chan, S. Sharma, J. Yang, R. Olivares  : DMRG
   Ulf Ekstrom                                   : XCFun DFT Library
   Mihaly Kallay                                 : mrcc  (arbitrary order and MRCC methods)
   Andreas Klamt, Michael Diedenhofen            : otool_cosmo (COSMO solvation model)
   Jiri Pittner, Ondrej Demel                    : Mk-CCSD
   Frank Weinhold                                : gennbo (NPA and NBO analysis)
   Christopher J. Cramer and Donald G. Truhlar   : smd solvation model
   Lars Goerigk                                  : TD-DFT with DH, B97 family of functionals
   V. Asgeirsson, H. Jonsson                     : NEB implementation
   FAccTs GmbH                                   : IRC, NEB, NEB-TS, Multilevel, MM, QM/MM, CI optimization
   S Lehtola, MJT Oliveira, MAL Marques          : LibXC Library


 Your calculation uses the libint2 library for the computation of 2-el integrals
 For citations please refer to: http://libint.valeyev.net

 Your ORCA version has been built with support for libXC version: 4.2.3
 For citations please refer to: https://tddft.org/programs/libxc/

 This ORCA versions uses:
   CBLAS   interface :  Fast vector & matrix operations
   LAPACKE interface :  Fast linear algebra routines
   SCALAPACK package :  Parallel linear algebra routines


Your calculation utilizes the atom-pairwise dispersion correction
with the Becke-Johnson damping scheme (D3BJ)
Cite in your paper:
S.Grimme, S.Ehrlich, L.Goerigk, J Comput Chem, (2011), 32, 1456–1465 
S.Grimme, J.Antony, S.Ehrlich and H.Krieg, J.Chem.Phys., 132, (2010), 154104 
   

----- Orbital basis set information -----
Your calculation utilizes the basis: def2-TZVPPD
   F. Weigend and R. Ahlrichs, Phys. Chem. Chem. Phys. 7, 3297 (2005).
   D. Rappoport and F. Furche, J. Chem. Phys. 133 134105 (2010).

----- AuxC basis set information -----
Your calculation utilizes the auxiliary basis: def2-TZVPPD/C
   A. Hellweg, C. Hattig, S. Hofener and W. Klopper, Theor. Chem. Acc. 117, 587 (2007).

----- AuxJK basis set information -----
Your calculation utilizes the auxiliary basis: def2/JK
   H-Ba, Hf-Rn: F. Weigend, J. Comput. Chem. 29, 167 (2008).

================================================================================
                                        WARNINGS
                       Please study these warnings very carefully!
================================================================================


WARNING: your system is open-shell and RHF/RKS was chosen
  ===> : WILL SWITCH to UHF/UKS


WARNING: No MP2 level density has been requested!
         To caclulate MP2 level properties use
         %mp2 Density relaxed end
         or
         %mp2 Density unrelaxed end
         Otherwise for double-hybrid DFT only the energy is correct!

WARNING: The frozen-core approximation is turned on by default for 
         the MP2 part of double-hybrid DFT.

INFO   : the flag for use of LIBINT has been found!

================================================================================
                                       INPUT FILE
================================================================================
NAME = s2.in
|  1> #
|  2> # s2 ri-B2PLYP-D3BJ/Def2-TZVPPD
|  3> #
|  4> ! rijk ri-b2plyp d3bj def2-tzvppd def2/jk def2-tzvppd/c grid4 nofinalgrid
|  5> 
|  6> *xyz 0 3
|  7> S          0.00000        0.00000        0.96175
|  8> S          0.00000        0.00000       -0.96175
|  9> *
| 10> 
| 11> %maxcore 5000
| 12> 
| 13> %pal
| 14> nprocs = 28
| 15> end
| 16> 
| 17> 
| 18>                          ****END OF INPUT****
================================================================================

                       ****************************
                       * Single Point Calculation *
                       ****************************

---------------------------------
CARTESIAN COORDINATES (ANGSTROEM)
---------------------------------
  S      0.000000    0.000000    0.961750
  S      0.000000    0.000000   -0.961750

----------------------------
CARTESIAN COORDINATES (A.U.)
----------------------------
  NO LB      ZA    FRAG     MASS         X           Y           Z
   0 S    16.0000    0    32.060    0.000000    0.000000    1.817444
   1 S    16.0000    0    32.060    0.000000    0.000000   -1.817444

--------------------------------
INTERNAL COORDINATES (ANGSTROEM)
--------------------------------
 S      0   0   0     0.000000000000     0.00000000     0.00000000
 S      1   0   0     1.923500000000     0.00000000     0.00000000

---------------------------
INTERNAL COORDINATES (A.U.)
---------------------------
 S      0   0   0     0.000000000000     0.00000000     0.00000000
 S      1   0   0     3.634888218598     0.00000000     0.00000000

---------------------
BASIS SET INFORMATION
---------------------
There are 1 groups of distinct atoms

 Group   1 Type S   : 15s10p4d1f contracted to 6s6p4d1f pattern {732111/511111/1111/1}

Atom   0S    basis set group =>   1
Atom   1S    basis set group =>   1
---------------------------------
AUXILIARY/C BASIS SET INFORMATION
---------------------------------
There are 1 groups of distinct atoms

 Group   1 Type S   : 12s9p8d6f2g contracted to 12s9p8d6f2g pattern {111111111111/111111111/11111111/111111/11}

Atom   0S    basis set group =>   1
Atom   1S    basis set group =>   1
----------------------------------
AUXILIARY/JK BASIS SET INFORMATION
----------------------------------
There are 1 groups of distinct atoms

 Group   1 Type S   : 16s12p10d4f1g contracted to 13s11p9d4f1g pattern {4111111111111/21111111111/211111111/1111/1}

Atom   0S    basis set group =>   1
Atom   1S    basis set group =>   1


           ************************************************************
           *        Program running with 28 parallel MPI-processes    *
           *              working on a common directory               *
           ************************************************************
------------------------------------------------------------------------------
                           ORCA GTO INTEGRAL CALCULATION
                           -- RI-GTO INTEGRALS CHOSEN --
------------------------------------------------------------------------------

                         BASIS SET STATISTICS AND STARTUP INFO

Gaussian basis set:
 # of primitive gaussian shells          ...   60
 # of primitive gaussian functions       ...  144
 # of contracted shells                  ...   34
 # of contracted basis functions         ...  102
 Highest angular momentum                ...    3
 Maximum contraction depth               ...    7
Auxiliary gaussian basis set:
 # of primitive gaussian shells          ...   86
 # of primitive gaussian functions       ...  278
 # of contracted shells                  ...   76
 # of contracted aux-basis functions     ...  256
 Highest angular momentum                ...    4
 Maximum contraction depth               ...    4
Ratio of auxiliary to basis functions    ...  2.51
Integral package used                  ... LIBINT
 One Electron integrals                  ... done
 Ordering auxiliary basis shells         ... done
 Integral threshhold             Thresh  ...  1.000e-10
 Primitive cut-off               TCut    ...  1.000e-11
 Pre-screening matrix                    ... done
 Shell pair data                         ... 
 Ordering of the shell pairs             ... done (   0.000 sec) 582 of 595 pairs
 Determination of significant pairs      ... done (   0.000 sec)
 Creation of shell pair data             ... done (   0.000 sec)
 Storage of shell pair data              ... done (   0.034 sec)
 Shell pair data done in (   0.034 sec)
 Computing two index integrals           ... done
 Cholesky decomposition of the V-matrix  ... done


Timings:
 Total evaluation time                   ...   0.551 sec (  0.009 min)
 One electron matrix time                ...   0.197 sec (  0.003 min) = 35.7%
 Schwartz matrix evaluation time         ...   0.110 sec (  0.002 min) = 20.1%
 Two index repulsion integral time       ...   0.061 sec (  0.001 min) = 11.1%
 Cholesky decomposition of V             ...   0.084 sec (  0.001 min) = 15.2%
 Three index repulsion integral time     ...   0.000 sec (  0.000 min) =  0.0%



           ************************************************************
           *        Program running with 28 parallel MPI-processes    *
           *              working on a common directory               *
           ************************************************************
-------------------------------------------------------------------------------
                                 ORCA SCF
-------------------------------------------------------------------------------

------------
SCF SETTINGS
------------
Hamiltonian:
 Density Functional     Method          .... DFT(GTOs)
 Exchange Functional    Exchange        .... B88
   X-Alpha parameter    XAlpha          ....  0.666667
   Becke's b parameter  XBeta           ....  0.004200
 Correlation Functional Correlation     .... LYP
 LDA part of GGA corr.  LDAOpt          .... VWN-3
 Gradients option       PostSCFGGA      .... off
 Hybrid DFT is turned on
   Fraction HF Exchange ScalHFX         ....  0.530000
   Scaling of DF-GGA-X  ScalDFX         ....  0.470000
   Scaling of DF-GGA-C  ScalDFC         ....  0.730000
   Scaling of DF-LDA-C  ScalLDAC        ....  0.730000
   Perturbative correction              ....  0.270000
   Density functional embedding theory  .... OFF
 RI-approximation to the Coulomb term is turned on
   Number of auxiliary basis functions  .... 256
   RI-JK (J+K treated both via RI)      .... on


General Settings:
 Integral files         IntName         .... s2
 Hartree-Fock type      HFTyp           .... UHF
 Total Charge           Charge          ....    0
 Multiplicity           Mult            ....    3
 Number of Electrons    NEL             ....   32
 Basis Dimension        Dim             ....  102
 Nuclear Repulsion      ENuc            ....     70.4285756822 Eh

Convergence Acceleration:
 DIIS                   CNVDIIS         .... on
   Start iteration      DIISMaxIt       ....    12
   Startup error        DIISStart       ....  0.200000
   # of expansion vecs  DIISMaxEq       ....     5
   Bias factor          DIISBfac        ....   1.050
   Max. coefficient     DIISMaxC        ....  10.000
 Newton-Raphson         CNVNR           .... off
 SOSCF                  CNVSOSCF        .... off
 Level Shifting         CNVShift        .... on
   Level shift para.    LevelShift      ....    0.2500
   Turn off err/grad.   ShiftErr        ....    0.0010
 Zerner damping         CNVZerner       .... off
 Static damping         CNVDamp         .... on
   Fraction old density DampFac         ....    0.7000
   Max. Damping (<1)    DampMax         ....    0.9800
   Min. Damping (>=0)   DampMin         ....    0.0000
   Turn off err/grad.   DampErr         ....    0.1000
 Fernandez-Rico         CNVRico         .... off

SCF Procedure:
 Maximum # iterations   MaxIter         ....   125
 SCF integral mode      SCFMode         .... Direct
   Integral package                     .... LIBINT
 Reset frequency        DirectResetFreq ....    20
 Integral Threshold     Thresh          ....  1.000e-10 Eh
 Primitive CutOff       TCut            ....  1.000e-11 Eh

Convergence Tolerance:
 Convergence Check Mode ConvCheckMode   .... Total+1el-Energy
 Convergence forced     ConvForced      .... 0
 Energy Change          TolE            ....  1.000e-06 Eh
 1-El. energy change                    ....  1.000e-03 Eh
 DIIS Error             TolErr          ....  1.000e-06


Diagonalization of the overlap matrix:
Smallest eigenvalue                        ... 7.821e-04
Time for diagonalization                   ...    0.039 sec
Threshold for overlap eigenvalues          ... 1.000e-08
Number of eigenvalues below threshold      ... 0
Time for construction of square roots      ...    0.033 sec
Total time needed                          ...    0.072 sec

-------------------
DFT GRID GENERATION
-------------------

General Integration Accuracy     IntAcc      ...  4.670
Radial Grid Type                 RadialGrid  ... Gauss-Chebyshev
Angular Grid (max. acc.)         AngularGrid ... Lebedev-302
Angular grid pruning method      GridPruning ... 3 (G Style)
Weight generation scheme         WeightScheme... Becke
Basis function cutoff            BFCut       ...    1.0000e-10
Integration weight cutoff        WCut        ...    1.0000e-14
Grids for H and He will be reduced by one unit

# of grid points (after initial pruning)     ...  13692 (   0.0 sec)
# of grid points (after weights+screening)   ...  13666 (   0.0 sec)
nearest neighbour list constructed           ...    0.0 sec
Grid point re-assignment to atoms done       ...    0.0 sec
Grid point division into batches done        ...    0.1 sec
Reduced shell lists constructed in    0.1 sec

Total number of grid points                  ...    13666
Total number of batches                      ...      214
Average number of points per batch           ...       63
Average number of grid points per atom       ...     6833
Average number of shells per batch           ...     8.11 (23.86%)
Average number of basis functions per batch  ...    21.67 (21.24%)
Average number of large shells per batch     ...     6.33 (78.08%)
Average number of large basis fcns per batch ...    19.00 (87.69%)
Average number of aux-shells per batch       ...     8.11 (10.67%)
Average number of aux functions per batch    ...    21.67 ( 8.46%)
Maximum spatial batch extension              ...  19.50, 19.55, 13.50 au
Average spatial batch extension              ...   0.59,  0.57,  0.41 au

Time for grid setup =    1.501 sec

------------------------------
INITIAL GUESS: MODEL POTENTIAL
------------------------------
Loading Hartree-Fock densities                     ... done
Calculating cut-offs                               ... done
Setting up the integral package                    ... done
Initializing the effective Hamiltonian             ... done
Starting the Coulomb interaction                   ... done (   0.0 sec)
Reading the grid                                   ... done
Mapping shells                                     ... done
Starting the XC term evaluation                    ... done (   0.0 sec)
  promolecular density results
     # of electrons  =     32.000015260
     EX              =    -49.997228687
     EC              =     -0.465907072
     EX+EC           =    -50.463135758
Transforming the Hamiltonian                       ... done (   0.1 sec)
Diagonalizing the Hamiltonian                      ... done (   0.0 sec)
Back transforming the eigenvectors                 ... done (   0.0 sec)
Now organizing SCF variables                       ... done
                      ------------------
                      INITIAL GUESS DONE (   2.6 sec)
                      ------------------
--------------
SCF ITERATIONS
--------------
ITER       Energy         Delta-E        Max-DP      RMS-DP      [F,P]     Damp
  0   -796.0206790609   0.000000000000 0.01293639  0.00026432  0.0567385 0.7000
  1   -796.0276540746  -0.006975013645 0.01302044  0.00025861  0.0424438 0.7000
                               ***Turning on DIIS***
  2   -796.0296699797  -0.002015905087 0.03169969  0.00064308  0.0293700 0.0000
  3   -796.0364407984  -0.006770818687 0.00878547  0.00018137  0.0105331 0.0000
  4   -796.0370715888  -0.000630790484 0.00123411  0.00004134  0.0030281 0.0000
  5   -796.0371290917  -0.000057502880 0.00136590  0.00003562  0.0003527 0.0000
  6   -796.0371510365  -0.000021944801 0.00066028  0.00001404  0.0001138 0.0000
  7   -796.0371541907  -0.000003154213 0.00015978  0.00000385  0.0000234 0.0000
                 **** Energy Check signals convergence ****

               *****************************************************
               *                     SUCCESS                       *
               *           SCF CONVERGED AFTER   8 CYCLES          *
               *****************************************************


----------------
TOTAL SCF ENERGY
----------------

Total Energy       :         -796.03715442 Eh          -21661.27221 eV

Components:
Nuclear Repulsion  :           70.42857568 Eh            1916.45898 eV
Electronic Energy  :         -866.46573011 Eh          -23577.73118 eV
One Electron Energy:        -1239.56045632 Eh          -33730.15482 eV
Two Electron Energy:          373.09472621 Eh           10152.42364 eV

Virial components:
Potential Energy   :        -1591.07290659 Eh          -43295.29488 eV
Kinetic Energy     :          795.03575216 Eh           21634.02267 eV
Virial Ratio       :            2.00125957


DFT components:
N(Alpha)           :       17.000005260843 electrons
N(Beta)            :       15.000005240088 electrons
N(Total)           :       32.000010500930 electrons
E(X)               :      -23.520017107043 Eh       
E(C)               :       -0.952996482542 Eh       
E(XC)              :      -24.473013589585 Eh       
DFET-embed. en.    :        0.000000000000 Eh       

---------------
SCF CONVERGENCE
---------------

  Last Energy change         ...   -2.3400e-07  Tolerance :   1.0000e-06
  Last MAX-Density change    ...    3.1726e-05  Tolerance :   1.0000e-05
  Last RMS-Density change    ...    6.8965e-07  Tolerance :   1.0000e-06
  Last DIIS Error            ...    7.6946e-06  Tolerance :   1.0000e-06

             **** THE GBW FILE WAS UPDATED (s2.gbw) ****
             **** DENSITY FILE WAS UPDATED (s2.scfp) ****
             **** ENERGY FILE WAS UPDATED (s2.en.tmp) ****
----------------------
UHF SPIN CONTAMINATION
----------------------

Warning: in a DFT calculation there is little theoretical justification to 
         calculate <S**2> as in Hartree-Fock theory. We will do it anyways
         but you should keep in mind that the values have only limited relevance

Expectation value of <S**2>     :     2.024458
Ideal value S*(S+1) for S=1.0   :     2.000000
Deviation                       :     0.024458

             **** THE GBW FILE WAS UPDATED (s2.gbw) ****
             **** DENSITY FILE WAS UPDATED (s2.scfp) ****
----------------
ORBITAL ENERGIES
----------------
                 SPIN UP ORBITALS
  NO   OCC          E(Eh)            E(eV) 
   0   1.0000     -90.215271     -2454.8823 
   1   1.0000     -90.215262     -2454.8821 
   2   1.0000      -8.416684      -229.0296 
   3   1.0000      -8.416468      -229.0237 
   4   1.0000      -6.264759      -170.4728 
   5   1.0000      -6.264759      -170.4728 
   6   1.0000      -6.264717      -170.4716 
   7   1.0000      -6.264717      -170.4716 
   8   1.0000      -6.259866      -170.3396 
   9   1.0000      -6.259119      -170.3193 
  10   1.0000      -0.948024       -25.7971 
  11   1.0000      -0.736600       -20.0439 
  12   1.0000      -0.456344       -12.4178 
  13   1.0000      -0.442372       -12.0375 
  14   1.0000      -0.442372       -12.0375 
  15   1.0000      -0.307072        -8.3558 
  16   1.0000      -0.307072        -8.3558 
  17   0.0000       0.011692         0.3182 
  18   0.0000       0.053084         1.4445 
  19   0.0000       0.054417         1.4808 
  20   0.0000       0.054417         1.4808 
  21   0.0000       0.069002         1.8776 
  22   0.0000       0.071343         1.9413 
  23   0.0000       0.079399         2.1606 
  24   0.0000       0.079399         2.1606 
  25   0.0000       0.135247         3.6802 
  26   0.0000       0.135248         3.6803 
  27   0.0000       0.184162         5.0113 
  28   0.0000       0.188779         5.1369 
  29   0.0000       0.188779         5.1369 
  30   0.0000       0.229905         6.2560 
  31   0.0000       0.230954         6.2846 
  32   0.0000       0.230957         6.2847 
  33   0.0000       0.278589         7.5808 
  34   0.0000       0.278589         7.5808 
  35   0.0000       0.282061         7.6753 
  36   0.0000       0.394507        10.7351 
  37   0.0000       0.394507        10.7351 
  38   0.0000       0.438302        11.9268 
  39   0.0000       0.460277        12.5248 
  40   0.0000       0.460277        12.5248 
  41   0.0000       0.482482        13.1290 
  42   0.0000       0.482482        13.1290 
  43   0.0000       0.563423        15.3315 
  44   0.0000       0.563426        15.3316 
  45   0.0000       0.563437        15.3319 
  46   0.0000       0.563437        15.3319 
  47   0.0000       0.582062        15.8387 
  48   0.0000       0.612222        16.6594 
  49   0.0000       0.709640        19.3103 
  50   0.0000       0.709640        19.3103 
  51   0.0000       0.774685        21.0803 
  52   0.0000       0.830271        22.5928 
  53   0.0000       1.194321        32.4991 
  54   0.0000       1.531853        41.6838 
  55   0.0000       1.531855        41.6839 
  56   0.0000       1.550339        42.1869 
  57   0.0000       1.582536        43.0630 
  58   0.0000       1.582536        43.0630 
  59   0.0000       1.647432        44.8289 
  60   0.0000       1.647433        44.8289 
  61   0.0000       1.672324        45.5063 
  62   0.0000       1.672325        45.5063 
  63   0.0000       1.675335        45.5882 
  64   0.0000       1.675335        45.5882 
  65   0.0000       1.682993        45.7966 
  66   0.0000       1.682993        45.7966 
  67   0.0000       1.719714        46.7958 
  68   0.0000       1.766076        48.0574 
  69   0.0000       1.766076        48.0574 
  70   0.0000       1.778463        48.3944 
  71   0.0000       1.778463        48.3944 
  72   0.0000       1.933785        52.6210 
  73   0.0000       1.933785        52.6210 
  74   0.0000       1.944507        52.9127 
  75   0.0000       2.016595        54.8743 
  76   0.0000       2.016599        54.8744 
  77   0.0000       2.033988        55.3476 
  78   0.0000       2.033988        55.3476 
  79   0.0000       2.103186        57.2306 
  80   0.0000       2.583391        70.2977 
  81   0.0000       2.614218        71.1365 
  82   0.0000       2.614218        71.1365 
  83   0.0000       3.150949        85.7417 
  84   0.0000       6.906940       187.9474 
  85   0.0000       6.906953       187.9477 
  86   0.0000       6.936988       188.7650 
  87   0.0000       6.937002       188.7654 
  88   0.0000       6.942037       188.9024 
  89   0.0000       6.942037       188.9024 
  90   0.0000       6.959178       189.3689 
  91   0.0000       6.960867       189.4148 
  92   0.0000       6.960867       189.4148 
  93   0.0000       7.173824       195.2097 
  94   0.0000       9.080785       247.1007 
  95   0.0000       9.080785       247.1007 
  96   0.0000       9.211329       250.6530 
  97   0.0000       9.211329       250.6530 
  98   0.0000       9.373727       255.0721 
  99   0.0000       9.494420       258.3563 
 100   0.0000      18.551811       504.8204 
 101   0.0000      19.252461       523.8861 

                 SPIN DOWN ORBITALS
  NO   OCC          E(Eh)            E(eV) 
   0   1.0000     -90.206226     -2454.6362 
   1   1.0000     -90.206219     -2454.6360 
   2   1.0000      -8.408437      -228.8052 
   3   1.0000      -8.408156      -228.7975 
   4   1.0000      -6.255664      -170.2253 
   5   1.0000      -6.254893      -170.2043 
   6   1.0000      -6.245721      -169.9547 
   7   1.0000      -6.245721      -169.9547 
   8   1.0000      -6.245658      -169.9530 
   9   1.0000      -6.245658      -169.9530 
  10   1.0000      -0.905438       -24.6382 
  11   1.0000      -0.647571       -17.6213 
  12   1.0000      -0.427715       -11.6387 
  13   1.0000      -0.362794        -9.8721 
  14   1.0000      -0.362794        -9.8721 
  15   0.0000      -0.085906        -2.3376 
  16   0.0000      -0.085906        -2.3376 
  17   0.0000       0.019777         0.5382 
  18   0.0000       0.054963         1.4956 
  19   0.0000       0.056168         1.5284 
  20   0.0000       0.056168         1.5284 
  21   0.0000       0.068767         1.8713 
  22   0.0000       0.083116         2.2617 
  23   0.0000       0.084306         2.2941 
  24   0.0000       0.084306         2.2941 
  25   0.0000       0.146625         3.9899 
  26   0.0000       0.146626         3.9899 
  27   0.0000       0.189954         5.1689 
  28   0.0000       0.206224         5.6117 
  29   0.0000       0.206224         5.6117 
  30   0.0000       0.237364         6.4590 
  31   0.0000       0.247776         6.7423 
  32   0.0000       0.247776         6.7423 
  33   0.0000       0.288187         7.8420 
  34   0.0000       0.290070         7.8932 
  35   0.0000       0.290070         7.8932 
  36   0.0000       0.402972        10.9654 
  37   0.0000       0.402972        10.9654 
  38   0.0000       0.443177        12.0595 
  39   0.0000       0.492050        13.3894 
  40   0.0000       0.492050        13.3894 
  41   0.0000       0.520488        14.1632 
  42   0.0000       0.520490        14.1632 
  43   0.0000       0.583231        15.8705 
  44   0.0000       0.583231        15.8705 
  45   0.0000       0.589484        16.0407 
  46   0.0000       0.619407        16.8549 
  47   0.0000       0.619409        16.8550 
  48   0.0000       0.623414        16.9640 
  49   0.0000       0.740762        20.1572 
  50   0.0000       0.740762        20.1572 
  51   0.0000       0.796784        21.6816 
  52   0.0000       0.851061        23.1585 
  53   0.0000       1.209479        32.9116 
  54   0.0000       1.561497        42.4905 
  55   0.0000       1.561499        42.4905 
  56   0.0000       1.563218        42.5373 
  57   0.0000       1.599740        43.5311 
  58   0.0000       1.599740        43.5311 
  59   0.0000       1.675728        45.5989 
  60   0.0000       1.675728        45.5989 
  61   0.0000       1.700540        46.2740 
  62   0.0000       1.700540        46.2740 
  63   0.0000       1.702389        46.3244 
  64   0.0000       1.702391        46.3244 
  65   0.0000       1.722050        46.8594 
  66   0.0000       1.722050        46.8594 
  67   0.0000       1.728946        47.0470 
  68   0.0000       1.794898        48.8417 
  69   0.0000       1.794898        48.8417 
  70   0.0000       1.816512        49.4298 
  71   0.0000       1.816512        49.4298 
  72   0.0000       1.951073        53.0914 
  73   0.0000       1.967878        53.5487 
  74   0.0000       1.967878        53.5487 
  75   0.0000       2.048271        55.7363 
  76   0.0000       2.048275        55.7364 
  77   0.0000       2.066035        56.2197 
  78   0.0000       2.066035        56.2197 
  79   0.0000       2.118666        57.6518 
  80   0.0000       2.592778        70.5531 
  81   0.0000       2.633707        71.6668 
  82   0.0000       2.633707        71.6668 
  83   0.0000       3.157890        85.9305 
  84   0.0000       6.919210       188.2813 
  85   0.0000       6.919224       188.2816 
  86   0.0000       6.947671       189.0557 
  87   0.0000       6.947671       189.0557 
  88   0.0000       6.949657       189.1098 
  89   0.0000       6.949671       189.1102 
  90   0.0000       6.963405       189.4839 
  91   0.0000       6.967093       189.5842 
  92   0.0000       6.967093       189.5842 
  93   0.0000       7.179694       195.3694 
  94   0.0000       9.102900       247.7025 
  95   0.0000       9.102900       247.7025 
  96   0.0000       9.233758       251.2633 
  97   0.0000       9.233758       251.2633 
  98   0.0000       9.379550       255.2305 
  99   0.0000       9.500366       258.5181 
 100   0.0000      18.564252       505.1590 
 101   0.0000      19.265244       524.2340 

                    ********************************
                    * MULLIKEN POPULATION ANALYSIS *
                    ********************************

--------------------------------------------
MULLIKEN ATOMIC CHARGES AND SPIN POPULATIONS
--------------------------------------------
   0 S :   -0.000001    1.000001
   1 S :    0.000001    0.999999
Sum of atomic charges         :    0.0000000
Sum of atomic spin populations:    2.0000000

-----------------------------------------------------
MULLIKEN REDUCED ORBITAL CHARGES AND SPIN POPULATIONS
-----------------------------------------------------
CHARGE
  0 S s       :     5.922571  s :     5.922571
      pz      :     3.036944  p :     9.944214
      px      :     3.453635
      py      :     3.453635
      dz2     :     0.036670  d :     0.121980
      dxz     :     0.042655
      dyz     :     0.042655
      dx2y2   :     0.000000
      dxy     :     0.000000
      f0      :     0.003816  f :     0.011236
      f+1     :     0.003710
      f-1     :     0.003710
      f+2     :     0.000000
      f-2     :     0.000000
      f+3     :     0.000000
      f-3     :     0.000000
  1 S s       :     5.922570  s :     5.922570
      pz      :     3.036944  p :     9.944214
      px      :     3.453635
      py      :     3.453635
      dz2     :     0.036670  d :     0.121980
      dxz     :     0.042655
      dyz     :     0.042655
      dx2y2   :     0.000000
      dxy     :     0.000000
      f0      :     0.003816  f :     0.011236
      f+1     :     0.003710
      f-1     :     0.003710
      f+2     :     0.000000
      f-2     :     0.000000
      f+3     :     0.000000
      f-3     :     0.000000

SPIN
  0 S s       :     0.011192  s :     0.011192
      pz      :    -0.011481  p :     1.004762
      px      :     0.508121
      py      :     0.508121
      dz2     :     0.001018  d :    -0.014144
      dxz     :    -0.007581
      dyz     :    -0.007581
      dx2y2   :     0.000000
      dxy     :    -0.000000
      f0      :    -0.000728  f :    -0.001810
      f+1     :    -0.000541
      f-1     :    -0.000541
      f+2     :    -0.000000
      f-2     :    -0.000000
      f+3     :     0.000000
      f-3     :     0.000000
  1 S s       :     0.011191  s :     0.011191
      pz      :    -0.011482  p :     1.004761
      px      :     0.508121
      py      :     0.508121
      dz2     :     0.001018  d :    -0.014144
      dxz     :    -0.007581
      dyz     :    -0.007581
      dx2y2   :    -0.000000
      dxy     :    -0.000000
      f0      :    -0.000728  f :    -0.001810
      f+1     :    -0.000541
      f-1     :    -0.000541
      f+2     :    -0.000000
      f-2     :    -0.000000
      f+3     :     0.000000
      f-3     :     0.000000


                     *******************************
                     * LOEWDIN POPULATION ANALYSIS *
                     *******************************

-------------------------------------------
LOEWDIN ATOMIC CHARGES AND SPIN POPULATIONS
-------------------------------------------
   0 S :   -0.000000    1.000000
   1 S :    0.000000    1.000000

----------------------------------------------------
LOEWDIN REDUCED ORBITAL CHARGES AND SPIN POPULATIONS
----------------------------------------------------
CHARGE
  0 S s       :     5.558512  s :     5.558512
      pz      :     3.227827  p :     9.945481
      px      :     3.358827
      py      :     3.358827
      dz2     :     0.200634  d :     0.464684
      dxz     :     0.132025
      dyz     :     0.132025
      dx2y2   :     0.000000
      dxy     :     0.000000
      f0      :     0.013027  f :     0.031323
      f+1     :     0.009148
      f-1     :     0.009148
      f+2     :     0.000000
      f-2     :     0.000000
      f+3     :     0.000000
      f-3     :     0.000000
  1 S s       :     5.558512  s :     5.558512
      pz      :     3.227827  p :     9.945481
      px      :     3.358827
      py      :     3.358827
      dz2     :     0.200634  d :     0.464684
      dxz     :     0.132025
      dyz     :     0.132025
      dx2y2   :     0.000000
      dxy     :     0.000000
      f0      :     0.013027  f :     0.031323
      f+1     :     0.009148
      f-1     :     0.009148
      f+2     :     0.000000
      f-2     :     0.000000
      f+3     :     0.000000
      f-3     :     0.000000

SPIN
  0 S s       :     0.008256  s :     0.008256
      pz      :    -0.013684  p :     0.878904
      px      :     0.446294
      py      :     0.446294
      dz2     :     0.006101  d :     0.108302
      dxz     :     0.051100
      dyz     :     0.051100
      dx2y2   :     0.000000
      dxy     :    -0.000000
      f0      :    -0.000673  f :     0.004538
      f+1     :     0.002606
      f-1     :     0.002606
      f+2     :    -0.000000
      f-2     :    -0.000000
      f+3     :     0.000000
      f-3     :     0.000000
  1 S s       :     0.008256  s :     0.008256
      pz      :    -0.013684  p :     0.878904
      px      :     0.446294
      py      :     0.446294
      dz2     :     0.006101  d :     0.108302
      dxz     :     0.051100
      dyz     :     0.051100
      dx2y2   :    -0.000000
      dxy     :    -0.000000
      f0      :    -0.000673  f :     0.004538
      f+1     :     0.002606
      f-1     :     0.002606
      f+2     :    -0.000000
      f-2     :    -0.000000
      f+3     :     0.000000
      f-3     :     0.000000


                      *****************************
                      * MAYER POPULATION ANALYSIS *
                      *****************************

  NA   - Mulliken gross atomic population
  ZA   - Total nuclear charge
  QA   - Mulliken gross atomic charge
  VA   - Mayer's total valence
  BVA  - Mayer's bonded valence
  FA   - Mayer's free valence

  ATOM       NA         ZA         QA         VA         BVA        FA
  0 S     16.0000    16.0000    -0.0000     2.5860     1.9691     0.6169
  1 S     16.0000    16.0000     0.0000     2.5860     1.9691     0.6169

  Mayer bond orders larger than 0.100000
B(  0-S ,  1-S ) :   1.9691 

-------
TIMINGS
-------

Total SCF time: 0 days 0 hours 2 min 4 sec 

Total time                  ....     124.806 sec
Sum of individual times     ....     123.833 sec  ( 99.2%)

Fock matrix formation       ....     117.853 sec  ( 94.4%)
  XC integration            ....     112.686 sec  ( 95.6% of F)
    Basis function eval.    ....       0.011 sec  (  0.0% of XC)
    Density eval.           ....       0.015 sec  (  0.0% of XC)
    XC-Functional eval.     ....       0.009 sec  (  0.0% of XC)
    XC-Potential eval.      ....       0.025 sec  (  0.0% of XC)
Diagonalization             ....       2.150 sec  (  1.7%)
Density matrix formation    ....       0.005 sec  (  0.0%)
Population analysis         ....       1.132 sec  (  0.9%)
Initial guess               ....       1.131 sec  (  0.9%)
Orbital Transformation      ....       0.000 sec  (  0.0%)
Orbital Orthonormalization  ....       0.000 sec  (  0.0%)
DIIS solution               ....       0.061 sec  (  0.0%)
Grid generation             ....       1.501 sec  (  1.2%)


           ************************************************************
           *        Program running with 28 parallel MPI-processes    *
           *              working on a common directory               *
           ************************************************************

------------------------------------------------------------------------------
                                ORCA  MP2 
------------------------------------------------------------------------------

Freezing NCore=20 chemical core electrons

-------------
RI-MP2 ENERGY
-------------
Dimension of the basis                    ...  102
Memory devoted to MP2                     ... 5000 MB   
Data format for buffers                   ... DOUBLE
Compression type for matrix containers    ... UNCOMPRESSED
Overall scaling of the MP2 energy         ...   2.700e-01
Calculating two index integrals           ... done (    0.004 sec)
Cholesky decomposition of V**-1           ... done (    0.114 sec)

-----------------
RI-TRANSFORMATION (AUX index driven)
-----------------

Dimension of the orbital-basis         ... 102
Dimension of the aux-basis             ... 278
Transformation of internal/external MOs...   10-  16 to   17- 101
Number Format for Storage              ... Double (8 Byte)
Integral mode                          ... Direct

First Phase: integral generation and transformation of MO indices
  Aux angular momentum 0               ... done (    0.001 sec)
  Aux angular momentum 1               ... done (    0.002 sec)
  Aux angular momentum 2               ... done (    0.001 sec)
  Aux angular momentum 3               ... done (    0.001 sec)
  Aux angular momentum 4               ... done (    0.002 sec)
Closing buffer VIA ( 0.00 GB; CompressionRatio= 1.00)
  Phase 1 completed in     7.340 sec
Second Phase: sorting and transformation of aux index

IA-Transformation
Memory available                       ... 4999 MB 
Max. # MO pairs treated in a batch     ... 1    
# of internal orbitals                 ... 7
# batches for internal orbitals        ... 1
Closing buffer IAV ( 0.00 GB; CompressionRatio= 1.00)
(ia|v) transformation done in     0.328 sec

  Phase 2 completed in     7.304 sec
RI-Integral transformation completed in    16.422 sec

-----------------
RI-TRANSFORMATION (AUX index driven)
-----------------

Dimension of the orbital-basis         ... 102
Dimension of the aux-basis             ... 278
Transformation of internal/external MOs...   10-  14 to   15- 101
Number Format for Storage              ... Double (8 Byte)
Integral mode                          ... Direct

First Phase: integral generation and transformation of MO indices
  Aux angular momentum 0               ... done (    0.000 sec)
  Aux angular momentum 1               ... done (    0.002 sec)
  Aux angular momentum 2               ... done (    0.001 sec)
  Aux angular momentum 3               ... done (    0.001 sec)
  Aux angular momentum 4               ... done (    0.002 sec)
Closing buffer VIA ( 0.00 GB; CompressionRatio= 1.00)
  Phase 1 completed in     6.366 sec
Second Phase: sorting and transformation of aux index

IA-Transformation
Memory available                       ... 4999 MB 
Max. # MO pairs treated in a batch     ... 1    
# of internal orbitals                 ... 5
# batches for internal orbitals        ... 1
Closing buffer IAV ( 0.00 GB; CompressionRatio= 1.00)
(ia|v) transformation done in     0.098 sec

  Phase 2 completed in     6.965 sec
RI-Integral transformation completed in    14.985 sec
Opening buffers                              ... done

Starting loop over batches of integrals:

Operator 0  - window                       ... ( 10- 16)x( 17-101)
Operator 0  - Memory available             ...  5000 MB
Operator 0  - Memory needed per MO         ...   0.2 MB
Operator 0  - Number of orbitals per batch ... 1
Operator 0  - Number of batches            ... 1

OPERATOR  0   PASS   0:  MOs    10 ...   10 +   11 ...   11 +   12 ...   12 +   13 ...   13
                            +   14 ...   14 +   15 ...   15 +   16 ...   16
  Reading integrals       ... ok

Operator 1  - window                       ... ( 10- 14)x( 15-101)
Operator 1  - Memory available             ...  5000 MB
Operator 1  - Memory needed per MO         ...   0.2 MB
Operator 1  - Number of orbitals per batch ... 1
Operator 1  - Number of batches            ... 1

OPERATOR  1   PASS   0:  MOs    10 ...   10 +   11 ...   11 +   12 ...   12 +   13 ...   13
                            +   14 ...   14
  Reading integrals       ... ok
Time spent in pair loops =     0.012 sec
Deleting buffer (Ka|jb)[aa] ...done
Deleting buffer (Ka|jb)[ab] ...done
Deleting buffer (Ka|jb)[ba] ...done
Deleting buffer (Ka|jb)[bb] ...done

Correlation energy components}
 E2 and T2 for alpha/alpha pairs :     -0.015340374 Eh      0.000000000
 E2 and T2 for beta/beta   pairs :     -0.014424865 Eh      0.000000000
 E2 and T2 for alpha/beta  pairs :     -0.078587898 Eh      0.000000000


-----------------------------------------------
 RI-MP2 CORRELATION ENERGY:     -0.108353137 Eh
-----------------------------------------------


-------
TIMINGS
-------

Total time                :   36.321 sec
Integral trafo            :   31.441 sec ( 86.6%)
I/O of integrals          :    0.001 sec (  0.0%)
K(i,j) Operators          :    0.002 sec (  0.0%)
T(i,j) pair energies      :    0.000 sec (  0.0%)
V-calculation             :    0.004 sec (  0.0%)
V**(-1/2)                 :    0.114 sec (  0.3%)
Gamma(ia|P)               :    0.000 sec (  0.0%)
Gamma-Trafo               :    0.000 sec (  0.0%)
D(virtual)                :    0.000 sec (  0.0%)
D(internal)               :    0.000 sec (  0.0%)
W(virtual)                :    0.000 sec (  0.0%)
W(internal)               :    0.000 sec (  0.0%)
L(virtual)                :    0.000 sec (  0.0%)
L(internal)               :    0.000 sec (  0.0%)
G(D)                      :    0.000 sec (  0.0%)
G(Z)                      :    0.000 sec (  0.0%)
Z-Vector Solution         :    0.000 sec (  0.0%)
Z-Vector Solution         :    0.000 sec (  0.0%)
3-Index Derivative 
+ Separable RIJ part      :    0.000 sec (  0.0%)
2-Index Derivative 
+ Separable RIJ part      :    0.000 sec (  0.0%)
Separable Gradient (X)    :    0.000 sec (  0.0%)


---------------------------------------
MP2 TOTAL ENERGY:     -796.145507561 Eh
---------------------------------------


-------------------------------------------------------------------------------
                          DFT DISPERSION CORRECTION                            
                                                                               
                              DFTD3 V3.1  Rev 1                                
                          USING Becke-Johnson damping                          
-------------------------------------------------------------------------------
The B2PLYP functional is recognized
Active option DFTDOPT                   ...         4   

molecular C6(AA) [au] = 523.804030 


            DFT-D V3
 parameters
 s6 scaling factor         :     0.6400 
 a1 scaling factor         :     0.3065 
 s8 scaling factor         :     0.9147 
 a2 scaling factor         :     5.0570 
 ad hoc parameters k1-k3   :    16.0000     1.3333    -4.0000 

 Edisp/kcal,au: -0.877088793911  -0.001397729814 
 E6   /kcal   :  -0.370647945 
 E8   /kcal   :  -0.506440848 
 % E8         :  57.741114925 

-------------------------   ----------------
Dispersion correction           -0.001397730
-------------------------   ----------------


-------------------------   --------------------
FINAL SINGLE POINT ENERGY      -796.146905291081
-------------------------   --------------------


                            ***************************************
                            *     ORCA property calculations      *
                            ***************************************


  WARNING: The energy has been calculated at the MP2 level but the densities
           used in the property calculations are still SCF densities
           MP2 response densities have not been calculated 
           use %mp2 Density relaxed end
           or  %mp2 Density unrelaxed end

                                    ---------------------
                                    Active property flags
                                    ---------------------
   (+) Dipole Moment


------------------------------------------------------------------------------
                       ORCA ELECTRIC PROPERTIES CALCULATION
------------------------------------------------------------------------------

Dipole Moment Calculation                       ... on
Quadrupole Moment Calculation                   ... off
Polarizability Calculation                      ... off
GBWName                                         ... s2.gbw
Electron density file                           ... s2.scfp
The origin for moment calculation is the CENTER OF MASS  = ( 0.000000,  0.000000  0.000000)

-------------
DIPOLE MOMENT
-------------
                                X             Y             Z
Electronic contribution:      0.00000       0.00000      -0.00000
Nuclear contribution   :      0.00000       0.00000       0.00000
                        -----------------------------------------
Total Dipole Moment    :      0.00000       0.00000      -0.00000
                        -----------------------------------------
Magnitude (a.u.)       :      0.00000
Magnitude (Debye)      :      0.00000



--------------------
Rotational spectrum 
--------------------
 
Rotational constants in cm-1:     0.000000     0.284236     0.284236 
Rotational constants in MHz :     0.000000  8521.179234  8521.179234 

 Dipole components along the rotational axes: 
x,y,z [a.u.] :    -0.000000     0.000000     0.000000 
x,y,z [Debye]:    -0.000000     0.000000     0.000000 

 

Timings for individual modules:

Sum of individual times         ...      174.300 sec (=   2.905 min)
GTO integral calculation        ...        6.112 sec (=   0.102 min)   3.5 %
SCF iterations                  ...      128.208 sec (=   2.137 min)  73.6 %
MP2 module                      ...       39.979 sec (=   0.666 min)  22.9 %
                             ****ORCA TERMINATED NORMALLY****
TOTAL RUN TIME: 0 days 0 hours 4 minutes 7 seconds 128 msec
