
                                 *****************
                                 * O   R   C   A *
                                 *****************

           --- An Ab Initio, DFT and Semiempirical electronic structure package ---

                  #######################################################
                  #                        -***-                        #
                  #          Department of theory and spectroscopy      #
                  #               Directorship: Frank Neese             #
                  #        Max Planck Institute fuer Kohlenforschung    #
                  #                Kaiser Wilhelm Platz 1               #
                  #                 D-45470 Muelheim/Ruhr               #
                  #                      Germany                        #
                  #                                                     #
                  #                  All rights reserved                #
                  #                        -***-                        #
                  #######################################################


                         Program Version 4.2.0 -  RELEASE  -


 With contributions from (in alphabetic order):
   Daniel Aravena         : Magnetic Suceptibility
   Michael Atanasov       : Ab Initio Ligand Field Theory (pilot matlab implementation)
   Alexander A. Auer      : GIAO ZORA, VPT2
   Ute Becker             : Parallelization
   Giovanni Bistoni       : ED, misc. LED, open-shell LED, HFLED
   Martin Brehm           : Molecular dynamics
   Dmytro Bykov           : SCF Hessian
   Vijay G. Chilkuri      : MRCI spin determinant printing, contributions to CSF-ICE
   Dipayan Datta          : RHF DLPNO-CCSD density
   Achintya Kumar Dutta   : EOM-CC, STEOM-CC
   Dmitry Ganyushin       : Spin-Orbit,Spin-Spin,Magnetic field MRCI
   Miquel Garcia          : C-PCM Hessian, Gaussian charge scheme
   Yang Guo               : DLPNO-NEVPT2, CIM, IAO-localization
   Andreas Hansen         : Spin unrestricted coupled pair/coupled cluster methods
   Benjamin Helmich-Paris : CASSCF linear response (MC-RPA)
   Lee Huntington         : MR-EOM, pCC
   Robert Izsak           : Overlap fitted RIJCOSX, COSX-SCS-MP3, EOM
   Christian Kollmar      : KDIIS, OOCD, Brueckner-CCSD(T), CCSD density
   Simone Kossmann        : Meta GGA functionals, TD-DFT gradient, OOMP2, MP2 Hessian
   Martin Krupicka        : AUTO-CI
   Lucas Lang             : DCDCAS
   Dagmar Lenk            : GEPOL surface, SMD
   Dimitrios Liakos       : Extrapolation schemes; Compound Job, initial MDCI parallelization
   Dimitrios Manganas     : Further ROCIS development; embedding schemes
   Dimitrios Pantazis     : SARC Basis sets
   Taras Petrenko         : DFT Hessian,TD-DFT gradient, ASA, ECA, R-Raman, ABS, FL, XAS/XES, NRVS
   Peter Pinski           : DLPNO-MP2, DLPNO-MP2 Gradient
   Christoph Reimann      : Effective Core Potentials
   Marius Retegan         : Local ZFS, SOC
   Christoph Riplinger    : Optimizer, TS searches, QM/MM, DLPNO-CCSD(T), (RO)-DLPNO pert. Triples
   Tobias Risthaus        : Range-separated hybrids, TD-DFT gradient, RPA, STAB
   Michael Roemelt        : Original ROCIS implementation
   Masaaki Saitow         : Open-shell DLPNO-CCSD energy and density
   Barbara Sandhoefer     : DKH picture change effects
   Avijit Sen             : IP-ROCIS
   Kantharuban Sivalingam : CASSCF convergence, NEVPT2, FIC-MRCI
   Bernardo de Souza      : ESD, SOC TD-DFT
   Georgi Stoychev        : AutoAux, RI-MP2 NMR
   Willem Van den Heuvel  : Paramagnetic NMR
   Boris Wezisla          : Elementary symmetry handling
   Frank Wennmohs         : Technical directorship


 We gratefully acknowledge several colleagues who have allowed us to
 interface, adapt or use parts of their codes:
   Stefan Grimme, W. Hujo, H. Kruse,             : VdW corrections, initial TS optimization,
                  C. Bannwarth                     DFT functionals, gCP, sTDA/sTD-DF
   Ed Valeev, F. Pavosevic, A. Kumar             : LibInt (2-el integral package), F12 methods
   Garnet Chan, S. Sharma, J. Yang, R. Olivares  : DMRG
   Ulf Ekstrom                                   : XCFun DFT Library
   Mihaly Kallay                                 : mrcc  (arbitrary order and MRCC methods)
   Andreas Klamt, Michael Diedenhofen            : otool_cosmo (COSMO solvation model)
   Jiri Pittner, Ondrej Demel                    : Mk-CCSD
   Frank Weinhold                                : gennbo (NPA and NBO analysis)
   Christopher J. Cramer and Donald G. Truhlar   : smd solvation model
   Lars Goerigk                                  : TD-DFT with DH, B97 family of functionals
   V. Asgeirsson, H. Jonsson                     : NEB implementation
   FAccTs GmbH                                   : IRC, NEB, NEB-TS, Multilevel, MM, QM/MM, CI optimization
   S Lehtola, MJT Oliveira, MAL Marques          : LibXC Library


 Your calculation uses the libint2 library for the computation of 2-el integrals
 For citations please refer to: http://libint.valeyev.net

 Your ORCA version has been built with support for libXC version: 4.2.3
 For citations please refer to: https://tddft.org/programs/libxc/

 This ORCA versions uses:
   CBLAS   interface :  Fast vector & matrix operations
   LAPACKE interface :  Fast linear algebra routines
   SCALAPACK package :  Parallel linear algebra routines


Your calculation utilizes the atom-pairwise dispersion correction
with the Becke-Johnson damping scheme (D3BJ)
Cite in your paper:
S.Grimme, S.Ehrlich, L.Goerigk, J Comput Chem, (2011), 32, 1456–1465 
S.Grimme, J.Antony, S.Ehrlich and H.Krieg, J.Chem.Phys., 132, (2010), 154104 
   

----- Orbital basis set information -----
Your calculation utilizes the basis: def2-TZVPPD
   F. Weigend and R. Ahlrichs, Phys. Chem. Chem. Phys. 7, 3297 (2005).
   D. Rappoport and F. Furche, J. Chem. Phys. 133 134105 (2010).

----- AuxC basis set information -----
Your calculation utilizes the auxiliary basis: def2-TZVPPD/C
   A. Hellweg, C. Hattig, S. Hofener and W. Klopper, Theor. Chem. Acc. 117, 587 (2007).

----- AuxJK basis set information -----
Your calculation utilizes the auxiliary basis: def2/JK
   H-Ba, Hf-Rn: F. Weigend, J. Comput. Chem. 29, 167 (2008).

================================================================================
                                        WARNINGS
                       Please study these warnings very carefully!
================================================================================


WARNING: your system is open-shell and RHF/RKS was chosen
  ===> : WILL SWITCH to UHF/UKS


WARNING: No MP2 level density has been requested!
         To caclulate MP2 level properties use
         %mp2 Density relaxed end
         or
         %mp2 Density unrelaxed end
         Otherwise for double-hybrid DFT only the energy is correct!

WARNING: The frozen-core approximation is turned on by default for 
         the MP2 part of double-hybrid DFT.

INFO   : the flag for use of LIBINT has been found!

================================================================================
                                       INPUT FILE
================================================================================
NAME = V.in
|  1> #
|  2> # V ri-B2PLYP-D3BJ/Def2-TZVPPD
|  3> #
|  4> ! rijk ri-b2plyp d3bj def2-tzvppd def2/jk def2-tzvppd/c grid4 nofinalgrid
|  5> 
|  6> *xyz 0 6
|  7> V          0.00000        0.00000        0.00000
|  8> *
|  9> 
| 10> %maxcore 5000
| 11> 
| 12> %pal
| 13> nprocs = 28
| 14> end
| 15> 
| 16> 
| 17>                          ****END OF INPUT****
================================================================================

                       ****************************
                       * Single Point Calculation *
                       ****************************

---------------------------------
CARTESIAN COORDINATES (ANGSTROEM)
---------------------------------
  V      0.000000    0.000000    0.000000

----------------------------
CARTESIAN COORDINATES (A.U.)
----------------------------
  NO LB      ZA    FRAG     MASS         X           Y           Z
   0 V    23.0000    0    50.940    0.000000    0.000000    0.000000

--------------------------------
INTERNAL COORDINATES (ANGSTROEM)
--------------------------------
 V      0   0   0     0.000000000000     0.00000000     0.00000000

---------------------------
INTERNAL COORDINATES (A.U.)
---------------------------
 V      0   0   0     0.000000000000     0.00000000     0.00000000

---------------------
BASIS SET INFORMATION
---------------------
There are 1 groups of distinct atoms

 Group   1 Type V   : 17s13p7d2f1g contracted to 6s6p4d2f1g pattern {842111/631111/4111/11/1}

Atom   0V    basis set group =>   1
---------------------------------
AUXILIARY/C BASIS SET INFORMATION
---------------------------------
There are 1 groups of distinct atoms

 Group   1 Type V   : 10s10p9d7f5g3h1i contracted to 10s10p9d7f5g3h1i pattern {1111111111/1111111111/111111111/1111111/11111/111/1}

Atom   0V    basis set group =>   1
----------------------------------
AUXILIARY/JK BASIS SET INFORMATION
----------------------------------
There are 1 groups of distinct atoms

 Group   1 Type V   : 19s14p12d10f7g3h1i contracted to 16s13p11d9f5g3h1i pattern {4111111111111111/2111111111111/21111111111/211111111/31111/111/1}

Atom   0V    basis set group =>   1


           ************************************************************
           *        Program running with 28 parallel MPI-processes    *
           *              working on a common directory               *
           ************************************************************
------------------------------------------------------------------------------
                           ORCA GTO INTEGRAL CALCULATION
                           -- RI-GTO INTEGRALS CHOSEN --
------------------------------------------------------------------------------

                         BASIS SET STATISTICS AND STARTUP INFO

Gaussian basis set:
 # of primitive gaussian shells          ...   40
 # of primitive gaussian functions       ...  114
 # of contracted shells                  ...   19
 # of contracted basis functions         ...   67
 Highest angular momentum                ...    4
 Maximum contraction depth               ...    8
Auxiliary gaussian basis set:
 # of primitive gaussian shells          ...   66
 # of primitive gaussian functions       ...  300
 # of contracted shells                  ...   58
 # of contracted aux-basis functions     ...  264
 Highest angular momentum                ...    6
 Maximum contraction depth               ...    4
Ratio of auxiliary to basis functions    ...  3.94
Integral package used                  ... LIBINT
 One Electron integrals                  ... done
 Ordering auxiliary basis shells         ... done
 Integral threshhold             Thresh  ...  1.000e-10
 Primitive cut-off               TCut    ...  1.000e-11
 Pre-screening matrix                    ... done
 Shell pair data                         ... 
 Ordering of the shell pairs             ... done (   0.000 sec) 190 of 190 pairs
 Determination of significant pairs      ... done (   0.000 sec)
 Creation of shell pair data             ... done (   0.000 sec)
 Storage of shell pair data              ... done (   0.011 sec)
 Shell pair data done in (   0.012 sec)
 Computing two index integrals           ... done
 Cholesky decomposition of the V-matrix  ... done


Timings:
 Total evaluation time                   ...   0.334 sec (  0.006 min)
 One electron matrix time                ...   0.066 sec (  0.001 min) = 19.8%
 Schwartz matrix evaluation time         ...   0.122 sec (  0.002 min) = 36.7%
 Two index repulsion integral time       ...   0.037 sec (  0.001 min) = 11.2%
 Cholesky decomposition of V             ...   0.045 sec (  0.001 min) = 13.6%
 Three index repulsion integral time     ...   0.000 sec (  0.000 min) =  0.0%



           ************************************************************
           *        Program running with 28 parallel MPI-processes    *
           *              working on a common directory               *
           ************************************************************
-------------------------------------------------------------------------------
                                 ORCA SCF
-------------------------------------------------------------------------------

------------
SCF SETTINGS
------------
Hamiltonian:
 Density Functional     Method          .... DFT(GTOs)
 Exchange Functional    Exchange        .... B88
   X-Alpha parameter    XAlpha          ....  0.666667
   Becke's b parameter  XBeta           ....  0.004200
 Correlation Functional Correlation     .... LYP
 LDA part of GGA corr.  LDAOpt          .... VWN-3
 Gradients option       PostSCFGGA      .... off
 Hybrid DFT is turned on
   Fraction HF Exchange ScalHFX         ....  0.530000
   Scaling of DF-GGA-X  ScalDFX         ....  0.470000
   Scaling of DF-GGA-C  ScalDFC         ....  0.730000
   Scaling of DF-LDA-C  ScalLDAC        ....  0.730000
   Perturbative correction              ....  0.270000
   Density functional embedding theory  .... OFF
 RI-approximation to the Coulomb term is turned on
   Number of auxiliary basis functions  .... 264
   RI-JK (J+K treated both via RI)      .... on


General Settings:
 Integral files         IntName         .... V.in
 Hartree-Fock type      HFTyp           .... UHF
 Total Charge           Charge          ....    0
 Multiplicity           Mult            ....    6
 Number of Electrons    NEL             ....   23
 Basis Dimension        Dim             ....   67
 Nuclear Repulsion      ENuc            ....      0.0000000000 Eh

Convergence Acceleration:
 DIIS                   CNVDIIS         .... on
   Start iteration      DIISMaxIt       ....    12
   Startup error        DIISStart       ....  0.200000
   # of expansion vecs  DIISMaxEq       ....     5
   Bias factor          DIISBfac        ....   1.050
   Max. coefficient     DIISMaxC        ....  10.000
 Newton-Raphson         CNVNR           .... off
 SOSCF                  CNVSOSCF        .... off
 Level Shifting         CNVShift        .... on
   Level shift para.    LevelShift      ....    0.2500
   Turn off err/grad.   ShiftErr        ....    0.0010
 Zerner damping         CNVZerner       .... off
 Static damping         CNVDamp         .... on
   Fraction old density DampFac         ....    0.7000
   Max. Damping (<1)    DampMax         ....    0.9800
   Min. Damping (>=0)   DampMin         ....    0.0000
   Turn off err/grad.   DampErr         ....    0.1000
 Fernandez-Rico         CNVRico         .... off

SCF Procedure:
 Maximum # iterations   MaxIter         ....   125
 SCF integral mode      SCFMode         .... Direct
   Integral package                     .... LIBINT
 Reset frequency        DirectResetFreq ....    20
 Integral Threshold     Thresh          ....  1.000e-10 Eh
 Primitive CutOff       TCut            ....  1.000e-11 Eh

Convergence Tolerance:
 Convergence Check Mode ConvCheckMode   .... Total+1el-Energy
 Convergence forced     ConvForced      .... 0
 Energy Change          TolE            ....  1.000e-06 Eh
 1-El. energy change                    ....  1.000e-03 Eh
 DIIS Error             TolErr          ....  1.000e-06


Diagonalization of the overlap matrix:
Smallest eigenvalue                        ... 3.674e-02
Time for diagonalization                   ...    0.008 sec
Threshold for overlap eigenvalues          ... 1.000e-08
Number of eigenvalues below threshold      ... 0
Time for construction of square roots      ...    0.092 sec
Total time needed                          ...    0.100 sec

-------------------
DFT GRID GENERATION
-------------------

General Integration Accuracy     IntAcc      ...  4.670
Radial Grid Type                 RadialGrid  ... Gauss-Chebyshev
Angular Grid (max. acc.)         AngularGrid ... Lebedev-302
Angular grid pruning method      GridPruning ... 3 (G Style)
Weight generation scheme         WeightScheme... Becke
Basis function cutoff            BFCut       ...    1.0000e-10
Integration weight cutoff        WCut        ...    1.0000e-14
Grids for H and He will be reduced by one unit

# of grid points (after initial pruning)     ...   9664 (   0.0 sec)
# of grid points (after weights+screening)   ...   9664 (   0.0 sec)
Grid point division into batches done        ...    0.1 sec
Reduced shell lists constructed in    0.1 sec

Total number of grid points                  ...     9664
Total number of batches                      ...      152
Average number of points per batch           ...       63
Average number of grid points per atom       ...     9664
Average number of shells per batch           ...     3.43 (18.05%)
Average number of basis functions per batch  ...    10.29 (15.35%)
Average number of large shells per batch     ...     3.43 (100.00%)
Average number of large basis fcns per batch ...    10.29 (100.00%)
Average number of aux-shells per batch       ...     3.43 ( 5.91%)
Average number of aux functions per batch    ...    10.29 ( 3.90%)
Maximum spatial batch extension              ...  22.27, 22.27, 22.27 au
Average spatial batch extension              ...   0.77,  0.76,  0.74 au

Time for grid setup =    2.134 sec

------------------------------
INITIAL GUESS: MODEL POTENTIAL
------------------------------
Loading Hartree-Fock densities                     ... done
Calculating cut-offs                               ... done
Setting up the integral package                    ... done
Initializing the effective Hamiltonian             ... done
Starting the Coulomb interaction                   ... done (   0.0 sec)
Reading the grid                                   ... done
Mapping shells                                     ... done
Starting the XC term evaluation                    ... done (   0.0 sec)
  promolecular density results
     # of electrons  =     23.000003052
     EX              =    -44.136839810
     EC              =     -0.365539218
     EX+EC           =    -44.502379027
Transforming the Hamiltonian                       ... done (   0.0 sec)
Diagonalizing the Hamiltonian                      ... done (   0.0 sec)
Back transforming the eigenvectors                 ... done (   0.0 sec)
Now organizing SCF variables                       ... done
                      ------------------
                      INITIAL GUESS DONE (   2.6 sec)
                      ------------------
--------------
SCF ITERATIONS
--------------
ITER       Energy         Delta-E        Max-DP      RMS-DP      [F,P]     Damp
  0   -943.3537998576   0.000000000000 0.04201915  0.00189238  0.2459367 0.7000
  1   -943.1480199321   0.205779925501 0.03690705  0.00158388  0.1460295 0.7000
                               ***Turning on DIIS***
  2   -943.2024779477  -0.054458015595 0.05216495  0.00249354  0.0363411 0.0000
  3   -943.4288591301  -0.226381182413 0.00690085  0.00032072  0.1451224 0.7000
  4   -943.4976995119  -0.068840381770 0.00775735  0.00036145  0.1353176 0.7000
  5   -943.5222559987  -0.024556486772 0.00773765  0.00035055  0.1140139 0.7000
  6   -943.5345829285  -0.012326929848 0.02392504  0.00108848  0.0926816 0.0000
  7   -943.5176606632   0.016922265267 0.00457573  0.00024019  0.0197744 0.0000
  8   -943.5192969500  -0.001636286795 0.00254128  0.00013313  0.0082079 0.0000
  9   -943.5196697497  -0.000372799694 0.00156995  0.00007681  0.0029795 0.0000
 10   -943.5197456662  -0.000075916463 0.00080423  0.00003768  0.0010076 0.0000
 11   -943.5197576228  -0.000011956656 0.00061702  0.00002754  0.0003791 0.0000
 12   -943.5197599556  -0.000002332738 0.00006970  0.00000265  0.0001432 0.0000
                 **** Energy Check signals convergence ****

               *****************************************************
               *                     SUCCESS                       *
               *           SCF CONVERGED AFTER  13 CYCLES          *
               *****************************************************


----------------
TOTAL SCF ENERGY
----------------

Total Energy       :         -943.51976003 Eh          -25674.47794 eV

Components:
Nuclear Repulsion  :            0.00000000 Eh               0.00000 eV
Electronic Energy  :         -943.51976003 Eh          -25674.47794 eV
One Electron Energy:        -1300.20013919 Eh          -35380.24448 eV
Two Electron Energy:          356.68037916 Eh            9705.76655 eV

Virial components:
Potential Energy   :        -1885.83914786 Eh          -51316.29208 eV
Kinetic Energy     :          942.31938783 Eh           25641.81415 eV
Virial Ratio       :            2.00127385


DFT components:
N(Alpha)           :       13.999999663241 electrons
N(Beta)            :        8.999999663100 electrons
N(Total)           :       22.999999326340 electrons
E(X)               :      -20.954391875510 Eh       
E(C)               :       -0.709175348200 Eh       
E(XC)              :      -21.663567223710 Eh       
DFET-embed. en.    :        0.000000000000 Eh       

---------------
SCF CONVERGENCE
---------------

  Last Energy change         ...   -7.2441e-08  Tolerance :   1.0000e-06
  Last MAX-Density change    ...    1.4141e-05  Tolerance :   1.0000e-05
  Last RMS-Density change    ...    6.0572e-07  Tolerance :   1.0000e-06
  Last DIIS Error            ...    1.3486e-05  Tolerance :   1.0000e-06

             **** THE GBW FILE WAS UPDATED (V.in.gbw) ****
             **** DENSITY FILE WAS UPDATED (V.in.scfp) ****
             **** ENERGY FILE WAS UPDATED (V.in.en.tmp) ****
----------------------
UHF SPIN CONTAMINATION
----------------------

Warning: in a DFT calculation there is little theoretical justification to 
         calculate <S**2> as in Hartree-Fock theory. We will do it anyways
         but you should keep in mind that the values have only limited relevance

Expectation value of <S**2>     :     8.750027
Ideal value S*(S+1) for S=2.5   :     8.750000
Deviation                       :     0.000027

             **** THE GBW FILE WAS UPDATED (V.in.gbw) ****
             **** DENSITY FILE WAS UPDATED (V.in.scfp) ****
----------------
ORBITAL ENERGIES
----------------
                 SPIN UP ORBITALS
  NO   OCC          E(Eh)            E(eV) 
   0   1.0000    -198.573803     -5403.4679 
   1   1.0000     -22.660709      -616.6292 
   2   1.0000     -19.019445      -517.5454 
   3   1.0000     -19.019445      -517.5454 
   4   1.0000     -19.019445      -517.5454 
   5   1.0000      -2.683625       -73.0251 
   6   1.0000      -1.666219       -45.3401 
   7   1.0000      -1.666219       -45.3401 
   8   1.0000      -1.666219       -45.3401 
   9   1.0000      -0.118852        -3.2341 
  10   1.0000      -0.118852        -3.2341 
  11   1.0000      -0.118852        -3.2341 
  12   1.0000      -0.118852        -3.2341 
  13   1.0000      -0.118852        -3.2341 
  14   0.0000      -0.043767        -1.1910 
  15   0.0000       0.018218         0.4957 
  16   0.0000       0.018218         0.4957 
  17   0.0000       0.018218         0.4957 
  18   0.0000       0.124156         3.3784 
  19   0.0000       0.124156         3.3784 
  20   0.0000       0.124156         3.3784 
  21   0.0000       0.164688         4.4814 
  22   0.0000       0.184534         5.0214 
  23   0.0000       0.184534         5.0214 
  24   0.0000       0.184534         5.0214 
  25   0.0000       0.184534         5.0214 
  26   0.0000       0.184534         5.0214 
  27   0.0000       0.487633        13.2692 
  28   0.0000       0.487633        13.2692 
  29   0.0000       0.487633        13.2692 
  30   0.0000       0.766768        20.8648 
  31   0.0000       0.766768        20.8648 
  32   0.0000       0.766768        20.8648 
  33   0.0000       0.766768        20.8648 
  34   0.0000       0.766768        20.8648 
  35   0.0000       1.271287        34.5935 
  36   0.0000       1.271287        34.5935 
  37   0.0000       1.271287        34.5935 
  38   0.0000       1.271287        34.5935 
  39   0.0000       1.271287        34.5935 
  40   0.0000       1.271287        34.5935 
  41   0.0000       1.271287        34.5935 
  42   0.0000       1.948339        53.0170 
  43   0.0000       1.948339        53.0170 
  44   0.0000       1.948339        53.0170 
  45   0.0000       2.137674        58.1691 
  46   0.0000       2.714326        73.8606 
  47   0.0000       2.714326        73.8606 
  48   0.0000       2.714326        73.8606 
  49   0.0000       2.714326        73.8606 
  50   0.0000       2.714326        73.8606 
  51   0.0000       4.388257       119.4106 
  52   0.0000       4.388257       119.4106 
  53   0.0000       4.388257       119.4106 
  54   0.0000       4.388257       119.4106 
  55   0.0000       4.388257       119.4106 
  56   0.0000       4.388257       119.4106 
  57   0.0000       4.388257       119.4106 
  58   0.0000       4.388258       119.4106 
  59   0.0000       4.388258       119.4106 
  60   0.0000       4.931547       134.1942 
  61   0.0000       4.931547       134.1942 
  62   0.0000       4.931547       134.1942 
  63   0.0000       4.931547       134.1942 
  64   0.0000       4.931547       134.1942 
  65   0.0000       4.931547       134.1942 
  66   0.0000       4.931547       134.1942 

                 SPIN DOWN ORBITALS
  NO   OCC          E(Eh)            E(eV) 
   0   1.0000    -198.574007     -5403.4734 
   1   1.0000     -22.607041      -615.1688 
   2   1.0000     -18.969769      -516.1937 
   3   1.0000     -18.969769      -516.1937 
   4   1.0000     -18.969769      -516.1937 
   5   1.0000      -2.490806       -67.7783 
   6   1.0000      -1.440227       -39.1906 
   7   1.0000      -1.440227       -39.1906 
   8   1.0000      -1.440227       -39.1906 
   9   0.0000      -0.011129        -0.3028 
  10   0.0000       0.032327         0.8796 
  11   0.0000       0.032327         0.8797 
  12   0.0000       0.032327         0.8797 
  13   0.0000       0.146064         3.9746 
  14   0.0000       0.146064         3.9746 
  15   0.0000       0.146064         3.9746 
  16   0.0000       0.150624         4.0987 
  17   0.0000       0.150624         4.0987 
  18   0.0000       0.150624         4.0987 
  19   0.0000       0.150624         4.0987 
  20   0.0000       0.150624         4.0987 
  21   0.0000       0.198330         5.3968 
  22   0.0000       0.318483         8.6664 
  23   0.0000       0.318483         8.6664 
  24   0.0000       0.318483         8.6664 
  25   0.0000       0.318483         8.6664 
  26   0.0000       0.318484         8.6664 
  27   0.0000       0.525618        14.3028 
  28   0.0000       0.525618        14.3028 
  29   0.0000       0.525618        14.3028 
  30   0.0000       0.859878        23.3985 
  31   0.0000       0.859878        23.3985 
  32   0.0000       0.859878        23.3985 
  33   0.0000       0.859878        23.3985 
  34   0.0000       0.859878        23.3985 
  35   0.0000       1.345390        36.6099 
  36   0.0000       1.345390        36.6099 
  37   0.0000       1.345390        36.6099 
  38   0.0000       1.345390        36.6099 
  39   0.0000       1.345390        36.6099 
  40   0.0000       1.345390        36.6099 
  41   0.0000       1.345390        36.6099 
  42   0.0000       2.023847        55.0717 
  43   0.0000       2.023847        55.0717 
  44   0.0000       2.023847        55.0717 
  45   0.0000       2.224757        60.5387 
  46   0.0000       2.819500        76.7225 
  47   0.0000       2.819500        76.7225 
  48   0.0000       2.819500        76.7225 
  49   0.0000       2.819500        76.7225 
  50   0.0000       2.819500        76.7225 
  51   0.0000       4.473802       121.7383 
  52   0.0000       4.473802       121.7383 
  53   0.0000       4.473802       121.7383 
  54   0.0000       4.473802       121.7383 
  55   0.0000       4.473802       121.7383 
  56   0.0000       4.473802       121.7383 
  57   0.0000       4.473802       121.7383 
  58   0.0000       4.473802       121.7383 
  59   0.0000       4.473802       121.7383 
  60   0.0000       5.080707       138.2531 
  61   0.0000       5.080707       138.2531 
  62   0.0000       5.080707       138.2531 
  63   0.0000       5.080707       138.2531 
  64   0.0000       5.080707       138.2531 
  65   0.0000       5.080707       138.2531 
  66   0.0000       5.080707       138.2531 

                    ********************************
                    * MULLIKEN POPULATION ANALYSIS *
                    ********************************

--------------------------------------------
MULLIKEN ATOMIC CHARGES AND SPIN POPULATIONS
--------------------------------------------
   0 V :   -0.000000    5.000000
Sum of atomic charges         :   -0.0000000
Sum of atomic spin populations:    5.0000000

-----------------------------------------------------
MULLIKEN REDUCED ORBITAL CHARGES AND SPIN POPULATIONS
-----------------------------------------------------
CHARGE
  0 V s       :     6.000000  s :     6.000000
      pz      :     4.000000  p :    12.000000
      px      :     4.000000
      py      :     4.000000
      dz2     :     1.000000  d :     5.000000
      dxz     :     1.000000
      dyz     :     1.000000
      dx2y2   :     1.000000
      dxy     :     1.000000
      f0      :     0.000000  f :     0.000000
      f+1     :     0.000000
      f-1     :     0.000000
      f+2     :     0.000000
      f-2     :     0.000000
      f+3     :     0.000000
      f-3     :     0.000000
      g0      :     0.000000  g :     0.000000
      g+1     :     0.000000
      g-1     :     0.000000
      g+2     :     0.000000
      g-2     :     0.000000
      g+3     :     0.000000
      g-3     :     0.000000
      g+4     :     0.000000
      g-4     :     0.000000

SPIN
  0 V s       :     0.000000  s :     0.000000
      pz      :    -0.000000  p :    -0.000000
      px      :    -0.000000
      py      :    -0.000000
      dz2     :     1.000000  d :     5.000000
      dxz     :     1.000000
      dyz     :     1.000000
      dx2y2   :     1.000000
      dxy     :     1.000000
      f0      :    -0.000000  f :    -0.000000
      f+1     :    -0.000000
      f-1     :    -0.000000
      f+2     :    -0.000000
      f-2     :    -0.000000
      f+3     :    -0.000000
      f-3     :    -0.000000
      g0      :     0.000000  g :     0.000000
      g+1     :     0.000000
      g-1     :     0.000000
      g+2     :     0.000000
      g-2     :     0.000000
      g+3     :     0.000000
      g-3     :     0.000000
      g+4     :     0.000000
      g-4     :     0.000000


                     *******************************
                     * LOEWDIN POPULATION ANALYSIS *
                     *******************************

-------------------------------------------
LOEWDIN ATOMIC CHARGES AND SPIN POPULATIONS
-------------------------------------------
   0 V :   -0.000000    5.000000

----------------------------------------------------
LOEWDIN REDUCED ORBITAL CHARGES AND SPIN POPULATIONS
----------------------------------------------------
CHARGE
  0 V s       :     6.000000  s :     6.000000
      pz      :     4.000000  p :    12.000000
      px      :     4.000000
      py      :     4.000000
      dz2     :     1.000000  d :     5.000000
      dxz     :     1.000000
      dyz     :     1.000000
      dx2y2   :     1.000000
      dxy     :     1.000000
      f0      :     0.000000  f :     0.000000
      f+1     :     0.000000
      f-1     :     0.000000
      f+2     :     0.000000
      f-2     :     0.000000
      f+3     :     0.000000
      f-3     :     0.000000
      g0      :     0.000000  g :     0.000000
      g+1     :     0.000000
      g-1     :     0.000000
      g+2     :     0.000000
      g-2     :     0.000000
      g+3     :     0.000000
      g-3     :     0.000000
      g+4     :     0.000000
      g-4     :     0.000000

SPIN
  0 V s       :     0.000000  s :     0.000000
      pz      :    -0.000000  p :    -0.000000
      px      :    -0.000000
      py      :    -0.000000
      dz2     :     1.000000  d :     5.000000
      dxz     :     1.000000
      dyz     :     1.000000
      dx2y2   :     1.000000
      dxy     :     1.000000
      f0      :    -0.000000  f :    -0.000000
      f+1     :    -0.000000
      f-1     :    -0.000000
      f+2     :    -0.000000
      f-2     :    -0.000000
      f+3     :    -0.000000
      f-3     :    -0.000000
      g0      :     0.000000  g :     0.000000
      g+1     :     0.000000
      g-1     :     0.000000
      g+2     :     0.000000
      g-2     :     0.000000
      g+3     :     0.000000
      g-3     :     0.000000
      g+4     :     0.000000
      g-4     :     0.000000


                      *****************************
                      * MAYER POPULATION ANALYSIS *
                      *****************************

  NA   - Mulliken gross atomic population
  ZA   - Total nuclear charge
  QA   - Mulliken gross atomic charge
  VA   - Mayer's total valence
  BVA  - Mayer's bonded valence
  FA   - Mayer's free valence

  ATOM       NA         ZA         QA         VA         BVA        FA
  0 V     23.0000    23.0000    -0.0000     5.0001     0.0000     5.0001

  Mayer bond orders larger than 0.100000


-------
TIMINGS
-------

Total SCF time: 0 days 0 hours 3 min 10 sec 

Total time                  ....     190.578 sec
Sum of individual times     ....     189.464 sec  ( 99.4%)

Fock matrix formation       ....     182.816 sec  ( 95.9%)
  XC integration            ....     174.529 sec  ( 95.5% of F)
    Basis function eval.    ....       0.010 sec  (  0.0% of XC)
    Density eval.           ....       0.010 sec  (  0.0% of XC)
    XC-Functional eval.     ....       0.016 sec  (  0.0% of XC)
    XC-Potential eval.      ....       0.017 sec  (  0.0% of XC)
Diagonalization             ....       2.823 sec  (  1.5%)
Density matrix formation    ....       0.008 sec  (  0.0%)
Population analysis         ....       1.085 sec  (  0.6%)
Initial guess               ....       0.486 sec  (  0.3%)
Orbital Transformation      ....       0.000 sec  (  0.0%)
Orbital Orthonormalization  ....       0.000 sec  (  0.0%)
DIIS solution               ....       0.112 sec  (  0.1%)
Grid generation             ....       2.134 sec  (  1.1%)


           ************************************************************
           *        Program running with 28 parallel MPI-processes    *
           *              working on a common directory               *
           ************************************************************

------------------------------------------------------------------------------
                                ORCA  MP2 
------------------------------------------------------------------------------

Freezing NCore=10 chemical core electrons

-------------
RI-MP2 ENERGY
-------------
Dimension of the basis                    ...   67
Memory devoted to MP2                     ... 5000 MB   
Data format for buffers                   ... DOUBLE
Compression type for matrix containers    ... UNCOMPRESSED
Overall scaling of the MP2 energy         ...   2.700e-01
Calculating two index integrals           ... done (    0.014 sec)
Cholesky decomposition of V**-1           ... done (    0.117 sec)

-----------------
RI-TRANSFORMATION (AUX index driven)
-----------------

Dimension of the orbital-basis         ... 67
Dimension of the aux-basis             ... 225
Transformation of internal/external MOs...    5-  13 to   14-  66
Number Format for Storage              ... Double (8 Byte)
Integral mode                          ... Direct

First Phase: integral generation and transformation of MO indices
  Aux angular momentum 0               ... done (    0.001 sec)
  Aux angular momentum 1               ... done (    0.002 sec)
  Aux angular momentum 2               ... done (    0.001 sec)
  Aux angular momentum 3               ... done (    0.001 sec)
  Aux angular momentum 4               ... done (    0.001 sec)
  Aux angular momentum 5               ... done (    0.002 sec)
  Aux angular momentum 6               ... done (    0.003 sec)
Closing buffer VIA ( 0.00 GB; CompressionRatio= 1.00)
  Phase 1 completed in     3.300 sec
Second Phase: sorting and transformation of aux index

IA-Transformation
Memory available                       ... 5000 MB 
Max. # MO pairs treated in a batch     ... 1    
# of internal orbitals                 ... 9
# batches for internal orbitals        ... 1
Closing buffer IAV ( 0.00 GB; CompressionRatio= 1.00)
(ia|v) transformation done in     0.049 sec

  Phase 2 completed in     3.737 sec
RI-Integral transformation completed in     7.935 sec

-----------------
RI-TRANSFORMATION (AUX index driven)
-----------------

Dimension of the orbital-basis         ... 67
Dimension of the aux-basis             ... 225
Transformation of internal/external MOs...    5-   8 to    9-  66
Number Format for Storage              ... Double (8 Byte)
Integral mode                          ... Direct

First Phase: integral generation and transformation of MO indices
  Aux angular momentum 0               ... done (    0.000 sec)
  Aux angular momentum 1               ... done (    0.002 sec)
  Aux angular momentum 2               ... done (    0.001 sec)
  Aux angular momentum 3               ... done (    0.001 sec)
  Aux angular momentum 4               ... done (    0.001 sec)
  Aux angular momentum 5               ... done (    0.002 sec)
  Aux angular momentum 6               ... done (    0.003 sec)
Closing buffer VIA ( 0.00 GB; CompressionRatio= 0.99)
  Phase 1 completed in     2.635 sec
Second Phase: sorting and transformation of aux index

IA-Transformation
Memory available                       ... 5000 MB 
Max. # MO pairs treated in a batch     ... 1    
# of internal orbitals                 ... 4
# batches for internal orbitals        ... 1
Closing buffer IAV ( 0.00 GB; CompressionRatio= 1.00)
(ia|v) transformation done in     0.158 sec

  Phase 2 completed in     3.245 sec
RI-Integral transformation completed in     7.202 sec
Opening buffers                              ... done

Starting loop over batches of integrals:

Operator 0  - window                       ... (  5- 13)x( 14- 66)
Operator 0  - Memory available             ...  5000 MB
Operator 0  - Memory needed per MO         ...   0.1 MB
Operator 0  - Number of orbitals per batch ... 1
Operator 0  - Number of batches            ... 1

OPERATOR  0   PASS   0:  MOs     5 ...    5 +    6 ...    6 +    7 ...    7 +    8 ...    8
                            +    9 ...    9 +   10 ...   10 +   11 ...   11 +   12 ...   12
                            +   13 ...   13
  Reading integrals       ... ok

Operator 1  - window                       ... (  5-  8)x(  9- 66)
Operator 1  - Memory available             ...  5000 MB
Operator 1  - Memory needed per MO         ...   0.1 MB
Operator 1  - Number of orbitals per batch ... 1
Operator 1  - Number of batches            ... 1

OPERATOR  1   PASS   0:  MOs     5 ...    5 +    6 ...    6 +    7 ...    7 +    8 ...    8
  Reading integrals       ... ok
Time spent in pair loops =     0.005 sec
Deleting buffer (Ka|jb)[aa] ...done
Deleting buffer (Ka|jb)[ab] ...done
Deleting buffer (Ka|jb)[ba] ...done
Deleting buffer (Ka|jb)[bb] ...done

Correlation energy components}
 E2 and T2 for alpha/alpha pairs :     -0.052680798 Eh      0.000000000
 E2 and T2 for beta/beta   pairs :     -0.008887964 Eh      0.000000000
 E2 and T2 for alpha/beta  pairs :     -0.070993696 Eh      0.000000000


-----------------------------------------------
 RI-MP2 CORRELATION ENERGY:     -0.132562459 Eh
-----------------------------------------------


-------
TIMINGS
-------

Total time                :   19.457 sec
Integral trafo            :   15.167 sec ( 78.0%)
I/O of integrals          :    0.002 sec (  0.0%)
K(i,j) Operators          :    0.001 sec (  0.0%)
T(i,j) pair energies      :    0.000 sec (  0.0%)
V-calculation             :    0.014 sec (  0.1%)
V**(-1/2)                 :    0.117 sec (  0.6%)
Gamma(ia|P)               :    0.000 sec (  0.0%)
Gamma-Trafo               :    0.000 sec (  0.0%)
D(virtual)                :    0.000 sec (  0.0%)
D(internal)               :    0.000 sec (  0.0%)
W(virtual)                :    0.000 sec (  0.0%)
W(internal)               :    0.000 sec (  0.0%)
L(virtual)                :    0.000 sec (  0.0%)
L(internal)               :    0.000 sec (  0.0%)
G(D)                      :    0.000 sec (  0.0%)
G(Z)                      :    0.000 sec (  0.0%)
Z-Vector Solution         :    0.000 sec (  0.0%)
Z-Vector Solution         :    0.000 sec (  0.0%)
3-Index Derivative 
+ Separable RIJ part      :    0.000 sec (  0.0%)
2-Index Derivative 
+ Separable RIJ part      :    0.000 sec (  0.0%)
Separable Gradient (X)    :    0.000 sec (  0.0%)


---------------------------------------
MP2 TOTAL ENERGY:     -943.652322487 Eh
---------------------------------------


-------------------------------------------------------------------------------
                          DFT DISPERSION CORRECTION                            
                                                                               
                              DFTD3 V3.1  Rev 1                                
                          USING Becke-Johnson damping                          
-------------------------------------------------------------------------------
The B2PLYP functional is recognized
Active option DFTDOPT                   ...         4   

molecular C6(AA) [au] = 1116.097907 


            DFT-D V3
 parameters
 s6 scaling factor         :     0.6400 
 a1 scaling factor         :     0.3065 
 s8 scaling factor         :     0.9147 
 a2 scaling factor         :     5.0570 
 ad hoc parameters k1-k3   :    16.0000     1.3333    -4.0000 

 Edisp/kcal,au: -0.000000000000  -0.000000000000 
 E6   /kcal   :  -0.000000000 
 E8   /kcal   :  -0.000000000 
 % E8         :          -nan 

-------------------------   ----------------
Dispersion correction            0.000000000
-------------------------   ----------------


-------------------------   --------------------
FINAL SINGLE POINT ENERGY      -943.652322486615
-------------------------   --------------------


                            ***************************************
                            *     ORCA property calculations      *
                            ***************************************


  WARNING: The energy has been calculated at the MP2 level but the densities
           used in the property calculations are still SCF densities
           MP2 response densities have not been calculated 
           use %mp2 Density relaxed end
           or  %mp2 Density unrelaxed end

                                    ---------------------
                                    Active property flags
                                    ---------------------
   (+) Dipole Moment


------------------------------------------------------------------------------
                       ORCA ELECTRIC PROPERTIES CALCULATION
------------------------------------------------------------------------------

Dipole Moment Calculation                       ... on
Quadrupole Moment Calculation                   ... off
Polarizability Calculation                      ... off
GBWName                                         ... V.in.gbw
Electron density file                           ... V.in.scfp
The origin for moment calculation is the CENTER OF MASS  = ( 0.000000,  0.000000  0.000000)

-------------
DIPOLE MOMENT
-------------
                                X             Y             Z
Electronic contribution:     -0.00000      -0.00000      -0.00000
Nuclear contribution   :      0.00000       0.00000       0.00000
                        -----------------------------------------
Total Dipole Moment    :     -0.00000      -0.00000      -0.00000
                        -----------------------------------------
Magnitude (a.u.)       :      0.00000
Magnitude (Debye)      :      0.00000



--------------------
Rotational spectrum 
--------------------
 
Rotational constants in cm-1:     0.000000     0.000000     0.000000 
Rotational constants in MHz :     0.000000     0.000000     0.000000 

 Dipole components along the rotational axes: 
x,y,z [a.u.] :    -0.000000    -0.000000    -0.000000 
x,y,z [Debye]:    -0.000000    -0.000000    -0.000000 

 

Timings for individual modules:

Sum of individual times         ...      224.040 sec (=   3.734 min)
GTO integral calculation        ...        7.441 sec (=   0.124 min)   3.3 %
SCF iterations                  ...      193.341 sec (=   3.222 min)  86.3 %
MP2 module                      ...       23.258 sec (=   0.388 min)  10.4 %
                             ****ORCA TERMINATED NORMALLY****
TOTAL RUN TIME: 0 days 0 hours 4 minutes 9 seconds 305 msec
