
                                 *****************
                                 * O   R   C   A *
                                 *****************

           --- An Ab Initio, DFT and Semiempirical electronic structure package ---

                  #######################################################
                  #                        -***-                        #
                  #          Department of theory and spectroscopy      #
                  #               Directorship: Frank Neese             #
                  #        Max Planck Institute fuer Kohlenforschung    #
                  #                Kaiser Wilhelm Platz 1               #
                  #                 D-45470 Muelheim/Ruhr               #
                  #                      Germany                        #
                  #                                                     #
                  #                  All rights reserved                #
                  #                        -***-                        #
                  #######################################################


                         Program Version 4.2.0 -  RELEASE  -


 With contributions from (in alphabetic order):
   Daniel Aravena         : Magnetic Suceptibility
   Michael Atanasov       : Ab Initio Ligand Field Theory (pilot matlab implementation)
   Alexander A. Auer      : GIAO ZORA, VPT2
   Ute Becker             : Parallelization
   Giovanni Bistoni       : ED, misc. LED, open-shell LED, HFLED
   Martin Brehm           : Molecular dynamics
   Dmytro Bykov           : SCF Hessian
   Vijay G. Chilkuri      : MRCI spin determinant printing, contributions to CSF-ICE
   Dipayan Datta          : RHF DLPNO-CCSD density
   Achintya Kumar Dutta   : EOM-CC, STEOM-CC
   Dmitry Ganyushin       : Spin-Orbit,Spin-Spin,Magnetic field MRCI
   Miquel Garcia          : C-PCM Hessian, Gaussian charge scheme
   Yang Guo               : DLPNO-NEVPT2, CIM, IAO-localization
   Andreas Hansen         : Spin unrestricted coupled pair/coupled cluster methods
   Benjamin Helmich-Paris : CASSCF linear response (MC-RPA)
   Lee Huntington         : MR-EOM, pCC
   Robert Izsak           : Overlap fitted RIJCOSX, COSX-SCS-MP3, EOM
   Christian Kollmar      : KDIIS, OOCD, Brueckner-CCSD(T), CCSD density
   Simone Kossmann        : Meta GGA functionals, TD-DFT gradient, OOMP2, MP2 Hessian
   Martin Krupicka        : AUTO-CI
   Lucas Lang             : DCDCAS
   Dagmar Lenk            : GEPOL surface, SMD
   Dimitrios Liakos       : Extrapolation schemes; Compound Job, initial MDCI parallelization
   Dimitrios Manganas     : Further ROCIS development; embedding schemes
   Dimitrios Pantazis     : SARC Basis sets
   Taras Petrenko         : DFT Hessian,TD-DFT gradient, ASA, ECA, R-Raman, ABS, FL, XAS/XES, NRVS
   Peter Pinski           : DLPNO-MP2, DLPNO-MP2 Gradient
   Christoph Reimann      : Effective Core Potentials
   Marius Retegan         : Local ZFS, SOC
   Christoph Riplinger    : Optimizer, TS searches, QM/MM, DLPNO-CCSD(T), (RO)-DLPNO pert. Triples
   Tobias Risthaus        : Range-separated hybrids, TD-DFT gradient, RPA, STAB
   Michael Roemelt        : Original ROCIS implementation
   Masaaki Saitow         : Open-shell DLPNO-CCSD energy and density
   Barbara Sandhoefer     : DKH picture change effects
   Avijit Sen             : IP-ROCIS
   Kantharuban Sivalingam : CASSCF convergence, NEVPT2, FIC-MRCI
   Bernardo de Souza      : ESD, SOC TD-DFT
   Georgi Stoychev        : AutoAux, RI-MP2 NMR
   Willem Van den Heuvel  : Paramagnetic NMR
   Boris Wezisla          : Elementary symmetry handling
   Frank Wennmohs         : Technical directorship


 We gratefully acknowledge several colleagues who have allowed us to
 interface, adapt or use parts of their codes:
   Stefan Grimme, W. Hujo, H. Kruse,             : VdW corrections, initial TS optimization,
                  C. Bannwarth                     DFT functionals, gCP, sTDA/sTD-DF
   Ed Valeev, F. Pavosevic, A. Kumar             : LibInt (2-el integral package), F12 methods
   Garnet Chan, S. Sharma, J. Yang, R. Olivares  : DMRG
   Ulf Ekstrom                                   : XCFun DFT Library
   Mihaly Kallay                                 : mrcc  (arbitrary order and MRCC methods)
   Andreas Klamt, Michael Diedenhofen            : otool_cosmo (COSMO solvation model)
   Jiri Pittner, Ondrej Demel                    : Mk-CCSD
   Frank Weinhold                                : gennbo (NPA and NBO analysis)
   Christopher J. Cramer and Donald G. Truhlar   : smd solvation model
   Lars Goerigk                                  : TD-DFT with DH, B97 family of functionals
   V. Asgeirsson, H. Jonsson                     : NEB implementation
   FAccTs GmbH                                   : IRC, NEB, NEB-TS, Multilevel, MM, QM/MM, CI optimization
   S Lehtola, MJT Oliveira, MAL Marques          : LibXC Library


 Your calculation uses the libint2 library for the computation of 2-el integrals
 For citations please refer to: http://libint.valeyev.net

 Your ORCA version has been built with support for libXC version: 4.2.3
 For citations please refer to: https://tddft.org/programs/libxc/

 This ORCA versions uses:
   CBLAS   interface :  Fast vector & matrix operations
   LAPACKE interface :  Fast linear algebra routines
   SCALAPACK package :  Parallel linear algebra routines


Your calculation utilizes the atom-pairwise dispersion correction
with the Becke-Johnson damping scheme (D3BJ)
Cite in your paper:
S.Grimme, S.Ehrlich, L.Goerigk, J Comput Chem, (2011), 32, 1456–1465 
S.Grimme, J.Antony, S.Ehrlich and H.Krieg, J.Chem.Phys., 132, (2010), 154104 
   

----- Orbital basis set information -----
Your calculation utilizes the basis: def2-TZVPPD
   F. Weigend and R. Ahlrichs, Phys. Chem. Chem. Phys. 7, 3297 (2005).
   D. Rappoport and F. Furche, J. Chem. Phys. 133 134105 (2010).

----- AuxC basis set information -----
Your calculation utilizes the auxiliary basis: def2-TZVPPD/C
   A. Hellweg, C. Hattig, S. Hofener and W. Klopper, Theor. Chem. Acc. 117, 587 (2007).

----- AuxJK basis set information -----
Your calculation utilizes the auxiliary basis: def2/JK
   H-Ba, Hf-Rn: F. Weigend, J. Comput. Chem. 29, 167 (2008).

================================================================================
                                        WARNINGS
                       Please study these warnings very carefully!
================================================================================


WARNING: your system is open-shell and RHF/RKS was chosen
  ===> : WILL SWITCH to UHF/UKS


WARNING: No MP2 level density has been requested!
         To caclulate MP2 level properties use
         %mp2 Density relaxed end
         or
         %mp2 Density unrelaxed end
         Otherwise for double-hybrid DFT only the energy is correct!

WARNING: The frozen-core approximation is turned on by default for 
         the MP2 part of double-hybrid DFT.

INFO   : the flag for use of LIBINT has been found!

================================================================================
                                       INPUT FILE
================================================================================
NAME = V2.in
|  1> #
|  2> # V2 ri-B2PLYP-D3BJ/Def2-TZVPPD
|  3> #
|  4> ! rijk ri-b2plyp d3bj def2-tzvppd def2/jk def2-tzvppd/c grid4 nofinalgrid
|  5> 
|  6> *xyz 0 3
|  7> V          0.00000        0.00000        0.00000
|  8> V          0.00000        0.00000        1.77000
|  9> *
| 10> 
| 11> %maxcore 5000
| 12> 
| 13> %pal
| 14> nprocs = 28
| 15> end
| 16> 
| 17> 
| 18>                          ****END OF INPUT****
================================================================================

                       ****************************
                       * Single Point Calculation *
                       ****************************

---------------------------------
CARTESIAN COORDINATES (ANGSTROEM)
---------------------------------
  V      0.000000    0.000000    0.000000
  V      0.000000    0.000000    1.770000

----------------------------
CARTESIAN COORDINATES (A.U.)
----------------------------
  NO LB      ZA    FRAG     MASS         X           Y           Z
   0 V    23.0000    0    50.940    0.000000    0.000000    0.000000
   1 V    23.0000    0    50.940    0.000000    0.000000    3.344815

--------------------------------
INTERNAL COORDINATES (ANGSTROEM)
--------------------------------
 V      0   0   0     0.000000000000     0.00000000     0.00000000
 V      1   0   0     1.770000000000     0.00000000     0.00000000

---------------------------
INTERNAL COORDINATES (A.U.)
---------------------------
 V      0   0   0     0.000000000000     0.00000000     0.00000000
 V      1   0   0     3.344815257041     0.00000000     0.00000000

---------------------
BASIS SET INFORMATION
---------------------
There are 1 groups of distinct atoms

 Group   1 Type V   : 17s13p7d2f1g contracted to 6s6p4d2f1g pattern {842111/631111/4111/11/1}

Atom   0V    basis set group =>   1
Atom   1V    basis set group =>   1
---------------------------------
AUXILIARY/C BASIS SET INFORMATION
---------------------------------
There are 1 groups of distinct atoms

 Group   1 Type V   : 10s10p9d7f5g3h1i contracted to 10s10p9d7f5g3h1i pattern {1111111111/1111111111/111111111/1111111/11111/111/1}

Atom   0V    basis set group =>   1
Atom   1V    basis set group =>   1
----------------------------------
AUXILIARY/JK BASIS SET INFORMATION
----------------------------------
There are 1 groups of distinct atoms

 Group   1 Type V   : 19s14p12d10f7g3h1i contracted to 16s13p11d9f5g3h1i pattern {4111111111111111/2111111111111/21111111111/211111111/31111/111/1}

Atom   0V    basis set group =>   1
Atom   1V    basis set group =>   1


           ************************************************************
           *        Program running with 28 parallel MPI-processes    *
           *              working on a common directory               *
           ************************************************************
------------------------------------------------------------------------------
                           ORCA GTO INTEGRAL CALCULATION
                           -- RI-GTO INTEGRALS CHOSEN --
------------------------------------------------------------------------------

                         BASIS SET STATISTICS AND STARTUP INFO

Gaussian basis set:
 # of primitive gaussian shells          ...   80
 # of primitive gaussian functions       ...  228
 # of contracted shells                  ...   38
 # of contracted basis functions         ...  134
 Highest angular momentum                ...    4
 Maximum contraction depth               ...    8
Auxiliary gaussian basis set:
 # of primitive gaussian shells          ...  132
 # of primitive gaussian functions       ...  600
 # of contracted shells                  ...  116
 # of contracted aux-basis functions     ...  528
 Highest angular momentum                ...    6
 Maximum contraction depth               ...    4
Ratio of auxiliary to basis functions    ...  3.94
Integral package used                  ... LIBINT
 One Electron integrals                  ... done
 Ordering auxiliary basis shells         ... done
 Integral threshhold             Thresh  ...  1.000e-10
 Primitive cut-off               TCut    ...  1.000e-11
 Pre-screening matrix                    ... done
 Shell pair data                         ... 
 Ordering of the shell pairs             ... done (   0.000 sec) 732 of 741 pairs
 Determination of significant pairs      ... done (   0.000 sec)
 Creation of shell pair data             ... done (   0.000 sec)
 Storage of shell pair data              ... done (   0.048 sec)
 Shell pair data done in (   0.049 sec)
 Computing two index integrals           ... done
 Cholesky decomposition of the V-matrix  ... done


Timings:
 Total evaluation time                   ...   0.696 sec (  0.012 min)
 One electron matrix time                ...   0.134 sec (  0.002 min) = 19.2%
 Schwartz matrix evaluation time         ...   0.182 sec (  0.003 min) = 26.1%
 Two index repulsion integral time       ...   0.138 sec (  0.002 min) = 19.8%
 Cholesky decomposition of V             ...   0.096 sec (  0.002 min) = 13.8%
 Three index repulsion integral time     ...   0.000 sec (  0.000 min) =  0.0%



           ************************************************************
           *        Program running with 28 parallel MPI-processes    *
           *              working on a common directory               *
           ************************************************************
-------------------------------------------------------------------------------
                                 ORCA SCF
-------------------------------------------------------------------------------

------------
SCF SETTINGS
------------
Hamiltonian:
 Density Functional     Method          .... DFT(GTOs)
 Exchange Functional    Exchange        .... B88
   X-Alpha parameter    XAlpha          ....  0.666667
   Becke's b parameter  XBeta           ....  0.004200
 Correlation Functional Correlation     .... LYP
 LDA part of GGA corr.  LDAOpt          .... VWN-3
 Gradients option       PostSCFGGA      .... off
 Hybrid DFT is turned on
   Fraction HF Exchange ScalHFX         ....  0.530000
   Scaling of DF-GGA-X  ScalDFX         ....  0.470000
   Scaling of DF-GGA-C  ScalDFC         ....  0.730000
   Scaling of DF-LDA-C  ScalLDAC        ....  0.730000
   Perturbative correction              ....  0.270000
   Density functional embedding theory  .... OFF
 RI-approximation to the Coulomb term is turned on
   Number of auxiliary basis functions  .... 528
   RI-JK (J+K treated both via RI)      .... on


General Settings:
 Integral files         IntName         .... V2
 Hartree-Fock type      HFTyp           .... UHF
 Total Charge           Charge          ....    0
 Multiplicity           Mult            ....    3
 Number of Electrons    NEL             ....   46
 Basis Dimension        Dim             ....  134
 Nuclear Repulsion      ENuc            ....    158.1552221416 Eh

Convergence Acceleration:
 DIIS                   CNVDIIS         .... on
   Start iteration      DIISMaxIt       ....    12
   Startup error        DIISStart       ....  0.200000
   # of expansion vecs  DIISMaxEq       ....     5
   Bias factor          DIISBfac        ....   1.050
   Max. coefficient     DIISMaxC        ....  10.000
 Newton-Raphson         CNVNR           .... off
 SOSCF                  CNVSOSCF        .... off
 Level Shifting         CNVShift        .... on
   Level shift para.    LevelShift      ....    0.2500
   Turn off err/grad.   ShiftErr        ....    0.0010
 Zerner damping         CNVZerner       .... off
 Static damping         CNVDamp         .... on
   Fraction old density DampFac         ....    0.7000
   Max. Damping (<1)    DampMax         ....    0.9800
   Min. Damping (>=0)   DampMin         ....    0.0000
   Turn off err/grad.   DampErr         ....    0.1000
 Fernandez-Rico         CNVRico         .... off

SCF Procedure:
 Maximum # iterations   MaxIter         ....   125
 SCF integral mode      SCFMode         .... Direct
   Integral package                     .... LIBINT
 Reset frequency        DirectResetFreq ....    20
 Integral Threshold     Thresh          ....  1.000e-10 Eh
 Primitive CutOff       TCut            ....  1.000e-11 Eh

Convergence Tolerance:
 Convergence Check Mode ConvCheckMode   .... Total+1el-Energy
 Convergence forced     ConvForced      .... 0
 Energy Change          TolE            ....  1.000e-06 Eh
 1-El. energy change                    ....  1.000e-03 Eh
 DIIS Error             TolErr          ....  1.000e-06


Diagonalization of the overlap matrix:
Smallest eigenvalue                        ... 7.006e-05
Time for diagonalization                   ...    0.072 sec
Threshold for overlap eigenvalues          ... 1.000e-08
Number of eigenvalues below threshold      ... 0
Time for construction of square roots      ...    0.046 sec
Total time needed                          ...    0.118 sec

-------------------
DFT GRID GENERATION
-------------------

General Integration Accuracy     IntAcc      ...  4.670
Radial Grid Type                 RadialGrid  ... Gauss-Chebyshev
Angular Grid (max. acc.)         AngularGrid ... Lebedev-302
Angular grid pruning method      GridPruning ... 3 (G Style)
Weight generation scheme         WeightScheme... Becke
Basis function cutoff            BFCut       ...    1.0000e-10
Integration weight cutoff        WCut        ...    1.0000e-14
Grids for H and He will be reduced by one unit

# of grid points (after initial pruning)     ...  19328 (   0.0 sec)
# of grid points (after weights+screening)   ...  19286 (   0.0 sec)
nearest neighbour list constructed           ...    0.0 sec
Grid point re-assignment to atoms done       ...    0.0 sec
Grid point division into batches done        ...    0.2 sec
Reduced shell lists constructed in    0.2 sec

Total number of grid points                  ...    19286
Total number of batches                      ...      302
Average number of points per batch           ...       63
Average number of grid points per atom       ...     9643
Average number of shells per batch           ...     7.67 (20.18%)
Average number of basis functions per batch  ...    21.83 (16.29%)
Average number of large shells per batch     ...     6.25 (81.52%)
Average number of large basis fcns per batch ...    17.92 (82.06%)
Average number of aux-shells per batch       ...     7.67 ( 6.61%)
Average number of aux functions per batch    ...    21.83 ( 4.14%)
Maximum spatial batch extension              ...  24.19, 24.19, 15.73 au
Average spatial batch extension              ...   0.70,  0.70,  0.51 au

Time for grid setup =    1.742 sec

------------------------------
INITIAL GUESS: MODEL POTENTIAL
------------------------------
Loading Hartree-Fock densities                     ... done
Calculating cut-offs                               ... done
Setting up the integral package                    ... done
Initializing the effective Hamiltonian             ... done
Starting the Coulomb interaction                   ... done (   0.0 sec)
Reading the grid                                   ... done
Mapping shells                                     ... done
Starting the XC term evaluation                    ... done (   0.0 sec)
  promolecular density results
     # of electrons  =     45.999999476
     EX              =    -88.470141363
     EC              =     -0.754377891
     EX+EC           =    -89.224519254
Transforming the Hamiltonian                       ... done (   0.0 sec)
Diagonalizing the Hamiltonian                      ... done (   0.0 sec)
Back transforming the eigenvectors                 ... done (   0.0 sec)
Now organizing SCF variables                       ... done
                      ------------------
                      INITIAL GUESS DONE (   2.6 sec)
                      ------------------
--------------
SCF ITERATIONS
--------------
ITER       Energy         Delta-E        Max-DP      RMS-DP      [F,P]     Damp
  0  -1886.6822467603   0.000000000000 0.05731402  0.00138702  0.2334255 0.7000
  1  -1886.4644285492   0.217818211164 0.05228153  0.00120522  0.1515978 0.7000
                               ***Turning on DIIS***
  2  -1886.5840668836  -0.119638334450 0.12711094  0.00244414  0.0394778 0.0000
  3  -1886.9121980678  -0.328131184135 0.00645497  0.00021638  0.1566626 0.7000
  4  -1887.0100295606  -0.097831492873 0.00783565  0.00023989  0.1415985 0.7000
  5  -1887.0434970847  -0.033467524071 0.00794077  0.00023358  0.1160087 0.7000
  6  -1887.0587677649  -0.015270680232 0.02478096  0.00074747  0.0914383 0.0000
  7  -1887.0472522816   0.011515483321 0.00841744  0.00022376  0.0161127 0.0000
  8  -1887.0501717788  -0.002919497221 0.00575642  0.00014765  0.0108494 0.0000
  9  -1887.0519725057  -0.001800726852 0.00463614  0.00012570  0.0069221 0.0000
 10  -1887.0533308480  -0.001358342316 0.00384762  0.00010958  0.0072779 0.0000
 11  -1887.0544600899  -0.001129241903 0.00915053  0.00023288  0.0073847 0.0000
 12  -1887.0566694212  -0.002209331308 0.00603745  0.00016932  0.0079053 0.0000
 13  -1887.0581685078  -0.001499086593 0.00822650  0.00024423  0.0074792 0.0000
 14  -1887.0600624271  -0.001893919264 0.00528904  0.00016084  0.0069795 0.0000
 15  -1887.0611833060  -0.001120878965 0.00975838  0.00034521  0.0059486 0.0000
 16  -1887.0626942549  -0.001510948862 0.00425252  0.00009094  0.0065585 0.0000
 17  -1887.0631569204  -0.000462665461 0.00468368  0.00012065  0.0036707 0.0000
 18  -1887.0635201943  -0.000363273958 0.00340645  0.00007396  0.0028960 0.0000
 19  -1887.0636990996  -0.000178905245 0.00312323  0.00007347  0.0023884 0.0000
 20  -1887.0638279267  -0.000128827175 0.00253135  0.00005809  0.0011609 0.0000
 21  -1887.0639007087  -0.000072782005 0.00583925  0.00012202  0.0007111 0.0000
 22  -1887.0639482942  -0.000047585482 0.00048190  0.00001455  0.0015607 0.0000
 23  -1887.0639559000  -0.000007605813 0.00076784  0.00002185  0.0004335 0.0000
 24  -1887.0639602501  -0.000004350019 0.00016424  0.00000570  0.0002061 0.0000
 25  -1887.0639616038  -0.000001353783 0.00015311  0.00000537  0.0001069 0.0000
                 **** Energy Check signals convergence ****

               *****************************************************
               *                     SUCCESS                       *
               *           SCF CONVERGED AFTER  26 CYCLES          *
               *****************************************************


----------------
TOTAL SCF ENERGY
----------------

Total Energy       :        -1887.06396259 Eh          -51349.62099 eV

Components:
Nuclear Repulsion  :          158.15522214 Eh            4303.62239 eV
Electronic Energy  :        -2045.21918473 Eh          -55653.24337 eV
One Electron Energy:        -2907.59123439 Eh          -79119.57985 eV
Two Electron Energy:          862.37204966 Eh           23466.33648 eV

Virial components:
Potential Energy   :        -3771.37914529 Eh         -102624.44387 eV
Kinetic Energy     :         1884.31518270 Eh           51274.82288 eV
Virial Ratio       :            2.00145877


DFT components:
N(Alpha)           :       24.000002590651 electrons
N(Beta)            :       22.000002822514 electrons
N(Total)           :       46.000005413165 electrons
E(X)               :      -41.649165308079 Eh       
E(C)               :       -1.489793066342 Eh       
E(XC)              :      -43.138958374421 Eh       
DFET-embed. en.    :        0.000000000000 Eh       

---------------
SCF CONVERGENCE
---------------

  Last Energy change         ...   -9.8706e-07  Tolerance :   1.0000e-06
  Last MAX-Density change    ...    5.8892e-05  Tolerance :   1.0000e-05
  Last RMS-Density change    ...    1.0349e-06  Tolerance :   1.0000e-06
  Last DIIS Error            ...    1.5801e-04  Tolerance :   1.0000e-06

             **** THE GBW FILE WAS UPDATED (V2.gbw) ****
             **** DENSITY FILE WAS UPDATED (V2.scfp) ****
             **** ENERGY FILE WAS UPDATED (V2.en.tmp) ****
----------------------
UHF SPIN CONTAMINATION
----------------------

Warning: in a DFT calculation there is little theoretical justification to 
         calculate <S**2> as in Hartree-Fock theory. We will do it anyways
         but you should keep in mind that the values have only limited relevance

Expectation value of <S**2>     :     2.006512
Ideal value S*(S+1) for S=1.0   :     2.000000
Deviation                       :     0.006512

             **** THE GBW FILE WAS UPDATED (V2.gbw) ****
             **** DENSITY FILE WAS UPDATED (V2.scfp) ****
----------------
ORBITAL ENERGIES
----------------
                 SPIN UP ORBITALS
  NO   OCC          E(Eh)            E(eV) 
   0   1.0000    -198.793863     -5409.4560 
   1   1.0000    -198.793848     -5409.4556 
   2   1.0000     -22.889629      -622.8585 
   3   1.0000     -22.889589      -622.8574 
   4   1.0000     -19.246194      -523.7156 
   5   1.0000     -19.246194      -523.7156 
   6   1.0000     -19.246031      -523.7111 
   7   1.0000     -19.246031      -523.7111 
   8   1.0000     -19.245943      -523.7087 
   9   1.0000     -19.245720      -523.7027 
  10   1.0000      -2.864265       -77.9406 
  11   1.0000      -2.801042       -76.2202 
  12   1.0000      -1.897369       -51.6300 
  13   1.0000      -1.803312       -49.0706 
  14   1.0000      -1.803312       -49.0706 
  15   1.0000      -1.762106       -47.9493 
  16   1.0000      -1.762106       -47.9493 
  17   1.0000      -1.695303       -46.1315 
  18   1.0000      -0.277804        -7.5594 
  19   1.0000      -0.272035        -7.4025 
  20   1.0000      -0.272035        -7.4025 
  21   1.0000      -0.198416        -5.3992 
  22   1.0000      -0.189679        -5.1614 
  23   1.0000      -0.185678        -5.0525 
  24   0.0000      -0.046818        -1.2740 
  25   0.0000      -0.008474        -0.2306 
  26   0.0000      -0.008474        -0.2306 
  27   0.0000       0.010786         0.2935 
  28   0.0000       0.023947         0.6516 
  29   0.0000       0.025957         0.7063 
  30   0.0000       0.025957         0.7063 
  31   0.0000       0.034019         0.9257 
  32   0.0000       0.046390         1.2623 
  33   0.0000       0.064214         1.7474 
  34   0.0000       0.082677         2.2497 
  35   0.0000       0.082677         2.2497 
  36   0.0000       0.096990         2.6392 
  37   0.0000       0.096990         2.6392 
  38   0.0000       0.129758         3.5309 
  39   0.0000       0.138844         3.7781 
  40   0.0000       0.160960         4.3800 
  41   0.0000       0.162930         4.4335 
  42   0.0000       0.165446         4.5020 
  43   0.0000       0.201653         5.4873 
  44   0.0000       0.201653         5.4873 
  45   0.0000       0.204415         5.5624 
  46   0.0000       0.204415         5.5624 
  47   0.0000       0.215887         5.8746 
  48   0.0000       0.217146         5.9089 
  49   0.0000       0.228377         6.2144 
  50   0.0000       0.278579         7.5805 
  51   0.0000       0.278579         7.5805 
  52   0.0000       0.281054         7.6479 
  53   0.0000       0.432899        11.7798 
  54   0.0000       0.432899        11.7798 
  55   0.0000       0.434061        11.8114 
  56   0.0000       0.489660        13.3243 
  57   0.0000       0.533929        14.5290 
  58   0.0000       0.533929        14.5290 
  59   0.0000       0.685343        18.6491 
  60   0.0000       0.692217        18.8362 
  61   0.0000       0.703216        19.1355 
  62   0.0000       0.761926        20.7331 
  63   0.0000       0.761926        20.7331 
  64   0.0000       0.781090        21.2545 
  65   0.0000       0.786773        21.4092 
  66   0.0000       0.832047        22.6412 
  67   0.0000       0.851466        23.1696 
  68   0.0000       0.875410        23.8211 
  69   0.0000       0.875410        23.8211 
  70   0.0000       1.112766        30.2799 
  71   0.0000       1.117992        30.4221 
  72   0.0000       1.147157        31.2157 
  73   0.0000       1.147157        31.2157 
  74   0.0000       1.328326        36.1456 
  75   0.0000       1.328326        36.1456 
  76   0.0000       1.360190        37.0126 
  77   0.0000       1.360190        37.0126 
  78   0.0000       1.483945        40.3802 
  79   0.0000       1.493298        40.6347 
  80   0.0000       1.619468        44.0680 
  81   0.0000       1.625187        44.2236 
  82   0.0000       1.755804        47.7779 
  83   0.0000       1.842624        50.1403 
  84   0.0000       1.842624        50.1403 
  85   0.0000       1.862701        50.6867 
  86   0.0000       1.862701        50.6867 
  87   0.0000       2.020420        54.9784 
  88   0.0000       2.020420        54.9784 
  89   0.0000       2.125228        57.8304 
  90   0.0000       2.530731        68.8647 
  91   0.0000       2.530731        68.8647 
  92   0.0000       2.541128        69.1476 
  93   0.0000       2.561382        69.6988 
  94   0.0000       2.571330        69.9694 
  95   0.0000       2.642682        71.9110 
  96   0.0000       2.653127        72.1952 
  97   0.0000       2.672063        72.7105 
  98   0.0000       2.889187        78.6188 
  99   0.0000       2.940322        80.0102 
 100   0.0000       2.940322        80.0102 
 101   0.0000       3.802562       103.4730 
 102   0.0000       3.966732       107.9403 
 103   0.0000       3.973931       108.1362 
 104   0.0000       4.041119       109.9644 
 105   0.0000       4.041119       109.9644 
 106   0.0000       4.118177       112.0613 
 107   0.0000       4.139604       112.6444 
 108   0.0000       4.139604       112.6444 
 109   0.0000       4.268524       116.1524 
 110   0.0000       4.268714       116.1576 
 111   0.0000       4.306023       117.1728 
 112   0.0000       4.306248       117.1790 
 113   0.0000       4.442963       120.8992 
 114   0.0000       4.442963       120.8992 
 115   0.0000       4.745713       129.1374 
 116   0.0000       4.754494       129.3764 
 117   0.0000       4.779030       130.0440 
 118   0.0000       4.779367       130.0532 
 119   0.0000       4.779367       130.0532 
 120   0.0000       4.824003       131.2678 
 121   0.0000       4.833904       131.5372 
 122   0.0000       4.841207       131.7359 
 123   0.0000       4.841207       131.7359 
 124   0.0000       4.967251       135.1658 
 125   0.0000       4.967251       135.1658 
 126   0.0000       5.096721       138.6888 
 127   0.0000       5.105008       138.9143 
 128   0.0000       5.168980       140.6551 
 129   0.0000       5.168980       140.6551 
 130   0.0000       5.568548       151.5279 
 131   0.0000       5.568548       151.5279 
 132   0.0000       5.664196       154.1306 
 133   0.0000       5.734089       156.0325 

                 SPIN DOWN ORBITALS
  NO   OCC          E(Eh)            E(eV) 
   0   1.0000    -198.793496     -5409.4460 
   1   1.0000    -198.793481     -5409.4456 
   2   1.0000     -22.877024      -622.5155 
   3   1.0000     -22.876964      -622.5138 
   4   1.0000     -19.235069      -523.4128 
   5   1.0000     -19.235069      -523.4128 
   6   1.0000     -19.234956      -523.4098 
   7   1.0000     -19.234956      -523.4098 
   8   1.0000     -19.233853      -523.3798 
   9   1.0000     -19.233745      -523.3768 
  10   1.0000      -2.817893       -76.6788 
  11   1.0000      -2.756046       -74.9958 
  12   1.0000      -1.841355       -50.1058 
  13   1.0000      -1.748624       -47.5825 
  14   1.0000      -1.748624       -47.5825 
  15   1.0000      -1.709373       -46.5144 
  16   1.0000      -1.709373       -46.5144 
  17   1.0000      -1.651232       -44.9323 
  18   1.0000      -0.254165        -6.9162 
  19   1.0000      -0.254165        -6.9162 
  20   1.0000      -0.189903        -5.1675 
  21   1.0000      -0.170892        -4.6502 
  22   0.0000      -0.033159        -0.9023 
  23   0.0000      -0.012757        -0.3471 
  24   0.0000      -0.005572        -0.1516 
  25   0.0000      -0.005572        -0.1516 
  26   0.0000       0.031152         0.8477 
  27   0.0000       0.031152         0.8477 
  28   0.0000       0.035179         0.9573 
  29   0.0000       0.040703         1.1076 
  30   0.0000       0.048963         1.3323 
  31   0.0000       0.055093         1.4992 
  32   0.0000       0.090263         2.4562 
  33   0.0000       0.090263         2.4562 
  34   0.0000       0.099849         2.7170 
  35   0.0000       0.099849         2.7170 
  36   0.0000       0.122300         3.3279 
  37   0.0000       0.134221         3.6524 
  38   0.0000       0.134705         3.6655 
  39   0.0000       0.164350         4.4722 
  40   0.0000       0.166035         4.5180 
  41   0.0000       0.169663         4.6168 
  42   0.0000       0.188285         5.1235 
  43   0.0000       0.206128         5.6090 
  44   0.0000       0.206128         5.6090 
  45   0.0000       0.208363         5.6698 
  46   0.0000       0.208363         5.6698 
  47   0.0000       0.218401         5.9430 
  48   0.0000       0.233703         6.3594 
  49   0.0000       0.271870         7.3980 
  50   0.0000       0.279585         7.6079 
  51   0.0000       0.279585         7.6079 
  52   0.0000       0.282829         7.6962 
  53   0.0000       0.439297        11.9539 
  54   0.0000       0.439297        11.9539 
  55   0.0000       0.441749        12.0206 
  56   0.0000       0.504308        13.7229 
  57   0.0000       0.540865        14.7177 
  58   0.0000       0.540865        14.7177 
  59   0.0000       0.697500        18.9799 
  60   0.0000       0.723827        19.6963 
  61   0.0000       0.737383        20.0652 
  62   0.0000       0.768879        20.9223 
  63   0.0000       0.768879        20.9223 
  64   0.0000       0.790674        21.5153 
  65   0.0000       0.810433        22.0530 
  66   0.0000       0.851319        23.1656 
  67   0.0000       0.866347        23.5745 
  68   0.0000       0.882341        24.0097 
  69   0.0000       0.882341        24.0097 
  70   0.0000       1.118107        30.4252 
  71   0.0000       1.132100        30.8060 
  72   0.0000       1.167020        31.7562 
  73   0.0000       1.167020        31.7562 
  74   0.0000       1.344509        36.5860 
  75   0.0000       1.344509        36.5860 
  76   0.0000       1.384266        37.6678 
  77   0.0000       1.384266        37.6678 
  78   0.0000       1.504381        40.9363 
  79   0.0000       1.526251        41.5314 
  80   0.0000       1.625781        44.2398 
  81   0.0000       1.634621        44.4803 
  82   0.0000       1.778527        48.3962 
  83   0.0000       1.858856        50.5820 
  84   0.0000       1.858856        50.5820 
  85   0.0000       1.880137        51.1611 
  86   0.0000       1.880137        51.1611 
  87   0.0000       2.036605        55.4189 
  88   0.0000       2.036605        55.4189 
  89   0.0000       2.152001        58.5589 
  90   0.0000       2.543475        69.2115 
  91   0.0000       2.543475        69.2115 
  92   0.0000       2.581622        70.2495 
  93   0.0000       2.590641        70.4949 
  94   0.0000       2.603800        70.8530 
  95   0.0000       2.663466        72.4766 
  96   0.0000       2.685748        73.0829 
  97   0.0000       2.701892        73.5222 
  98   0.0000       2.915141        79.3250 
  99   0.0000       2.950238        80.2801 
 100   0.0000       2.950238        80.2801 
 101   0.0000       3.819180       103.9252 
 102   0.0000       3.984943       108.4358 
 103   0.0000       3.992571       108.6434 
 104   0.0000       4.071660       110.7955 
 105   0.0000       4.071660       110.7955 
 106   0.0000       4.150364       112.9371 
 107   0.0000       4.150364       112.9371 
 108   0.0000       4.162791       113.2753 
 109   0.0000       4.291823       116.7864 
 110   0.0000       4.292073       116.7932 
 111   0.0000       4.328932       117.7962 
 112   0.0000       4.329152       117.8022 
 113   0.0000       4.454230       121.2058 
 114   0.0000       4.454230       121.2058 
 115   0.0000       4.759777       129.5201 
 116   0.0000       4.770021       129.7989 
 117   0.0000       4.820785       131.1802 
 118   0.0000       4.823270       131.2478 
 119   0.0000       4.823270       131.2478 
 120   0.0000       4.837963       131.6477 
 121   0.0000       4.852297       132.0377 
 122   0.0000       4.882579       132.8617 
 123   0.0000       4.882579       132.8617 
 124   0.0000       5.001821       136.1065 
 125   0.0000       5.001821       136.1065 
 126   0.0000       5.111587       139.0934 
 127   0.0000       5.120341       139.3316 
 128   0.0000       5.201943       141.5521 
 129   0.0000       5.201943       141.5521 
 130   0.0000       5.592442       152.1781 
 131   0.0000       5.592442       152.1781 
 132   0.0000       5.703306       155.1948 
 133   0.0000       5.776196       157.1783 

                    ********************************
                    * MULLIKEN POPULATION ANALYSIS *
                    ********************************

--------------------------------------------
MULLIKEN ATOMIC CHARGES AND SPIN POPULATIONS
--------------------------------------------
   0 V :    0.000132    1.002859
   1 V :   -0.000132    0.997141
Sum of atomic charges         :   -0.0000000
Sum of atomic spin populations:    2.0000000

-----------------------------------------------------
MULLIKEN REDUCED ORBITAL CHARGES AND SPIN POPULATIONS
-----------------------------------------------------
CHARGE
  0 V s       :     6.948895  s :     6.948895
      pz      :     3.995892  p :    12.035430
      px      :     4.019769
      py      :     4.019769
      dz2     :     0.545532  d :     3.982391
      dxz     :     0.971542
      dyz     :     0.971542
      dx2y2   :     0.995065
      dxy     :     0.498709
      f0      :     0.008338  f :     0.030355
      f+1     :     0.007785
      f-1     :     0.007785
      f+2     :     0.004254
      f-2     :     0.002128
      f+3     :     0.000032
      f-3     :     0.000032
      g0      :     0.001029  g :     0.002798
      g+1     :     0.000707
      g-1     :     0.000707
      g+2     :     0.000255
      g-2     :     0.000093
      g+3     :     0.000001
      g-3     :     0.000001
      g+4     :     0.000004
      g-4     :     0.000000
  1 V s       :     6.949579  s :     6.949579
      pz      :     3.995947  p :    12.035479
      px      :     4.019766
      py      :     4.019766
      dz2     :     0.545413  d :     3.981919
      dxz     :     0.971873
      dyz     :     0.971873
      dx2y2   :     0.995920
      dxy     :     0.496841
      f0      :     0.008338  f :     0.030356
      f+1     :     0.007784
      f-1     :     0.007784
      f+2     :     0.004251
      f-2     :     0.002135
      f+3     :     0.000032
      f-3     :     0.000032
      g0      :     0.001029  g :     0.002798
      g+1     :     0.000707
      g-1     :     0.000707
      g+2     :     0.000255
      g-2     :     0.000093
      g+3     :     0.000001
      g-3     :     0.000001
      g+4     :     0.000004
      g-4     :     0.000000

SPIN
  0 V s       :     0.047828  s :     0.047828
      pz      :     0.005656  p :     0.004827
      px      :    -0.000415
      py      :    -0.000415
      dz2     :     0.445348  d :     0.946512
      dxz     :     0.000535
      dyz     :     0.000535
      dx2y2   :     0.001384
      dxy     :     0.498709
      f0      :     0.000987  f :     0.003101
      f+1     :     0.000058
      f-1     :     0.000058
      f+2     :    -0.000076
      f-2     :     0.002128
      f+3     :    -0.000027
      f-3     :    -0.000027
      g0      :     0.000378  g :     0.000592
      g+1     :     0.000079
      g-1     :     0.000079
      g+2     :    -0.000035
      g-2     :     0.000093
      g+3     :    -0.000001
      g-3     :    -0.000001
      g+4     :    -0.000001
      g-4     :    -0.000000
  1 V s       :     0.047602  s :     0.047602
      pz      :     0.005661  p :     0.004828
      px      :    -0.000417
      py      :    -0.000417
      dz2     :     0.445179  d :     0.940996
      dxz     :     0.000074
      dyz     :     0.000074
      dx2y2   :    -0.001171
      dxy     :     0.496841
      f0      :     0.000986  f :     0.003121
      f+1     :     0.000061
      f-1     :     0.000061
      f+2     :    -0.000068
      f-2     :     0.002135
      f+3     :    -0.000027
      f-3     :    -0.000027
      g0      :     0.000378  g :     0.000594
      g+1     :     0.000080
      g-1     :     0.000080
      g+2     :    -0.000034
      g-2     :     0.000093
      g+3     :    -0.000001
      g-3     :    -0.000001
      g+4     :    -0.000002
      g-4     :    -0.000000


                     *******************************
                     * LOEWDIN POPULATION ANALYSIS *
                     *******************************

-------------------------------------------
LOEWDIN ATOMIC CHARGES AND SPIN POPULATIONS
-------------------------------------------
   0 V :   -0.000249    1.002654
   1 V :    0.000249    0.997346

----------------------------------------------------
LOEWDIN REDUCED ORBITAL CHARGES AND SPIN POPULATIONS
----------------------------------------------------
CHARGE
  0 V s       :     6.707404  s :     6.707404
      pz      :     4.063812  p :    12.063825
      px      :     4.000006
      py      :     4.000006
      dz2     :     0.651195  d :     4.089003
      dxz     :     0.974273
      dyz     :     0.974273
      dx2y2   :     0.992063
      dxy     :     0.497199
      f0      :     0.071564  f :     0.129794
      f+1     :     0.023744
      f-1     :     0.023744
      f+2     :     0.007141
      f-2     :     0.003538
      f+3     :     0.000032
      f-3     :     0.000032
      g0      :     0.006065  g :     0.010224
      g+1     :     0.001799
      g-1     :     0.001799
      g+2     :     0.000385
      g-2     :     0.000168
      g+3     :     0.000001
      g-3     :     0.000001
      g+4     :     0.000004
      g-4     :     0.000000
  1 V s       :     6.707444  s :     6.707444
      pz      :     4.063792  p :    12.063787
      px      :     3.999998
      py      :     3.999998
      dz2     :     0.651086  d :     4.088506
      dxz     :     0.974577
      dyz     :     0.974577
      dx2y2   :     0.992892
      dxy     :     0.495375
      f0      :     0.071565  f :     0.129791
      f+1     :     0.023738
      f-1     :     0.023738
      f+2     :     0.007134
      f-2     :     0.003553
      f+3     :     0.000032
      f-3     :     0.000032
      g0      :     0.006065  g :     0.010223
      g+1     :     0.001799
      g-1     :     0.001799
      g+2     :     0.000385
      g-2     :     0.000168
      g+3     :     0.000001
      g-3     :     0.000001
      g+4     :     0.000004
      g-4     :     0.000000

SPIN
  0 V s       :     0.052020  s :     0.052020
      pz      :     0.009696  p :     0.009013
      px      :    -0.000342
      py      :    -0.000342
      dz2     :     0.437441  d :     0.936929
      dxz     :     0.000460
      dyz     :     0.000460
      dx2y2   :     0.001368
      dxy     :     0.497199
      f0      :     0.000510  f :     0.003974
      f+1     :     0.000045
      f-1     :     0.000045
      f+2     :    -0.000109
      f-2     :     0.003538
      f+3     :    -0.000027
      f-3     :    -0.000027
      g0      :     0.000449  g :     0.000718
      g+1     :     0.000066
      g-1     :     0.000066
      g+2     :    -0.000026
      g-2     :     0.000168
      g+3     :    -0.000001
      g-3     :    -0.000001
      g+4     :    -0.000001
      g-4     :    -0.000000
  1 V s       :     0.051917  s :     0.051917
      pz      :     0.009732  p :     0.009069
      px      :    -0.000332
      py      :    -0.000332
      dz2     :     0.437278  d :     0.931610
      dxz     :     0.000038
      dyz     :     0.000038
      dx2y2   :    -0.001119
      dxy     :     0.495375
      f0      :     0.000511  f :     0.004028
      f+1     :     0.000054
      f-1     :     0.000054
      f+2     :    -0.000088
      f-2     :     0.003553
      f+3     :    -0.000027
      f-3     :    -0.000027
      g0      :     0.000449  g :     0.000722
      g+1     :     0.000066
      g-1     :     0.000066
      g+2     :    -0.000025
      g-2     :     0.000168
      g+3     :    -0.000001
      g-3     :    -0.000001
      g+4     :    -0.000002
      g-4     :    -0.000000


                      *****************************
                      * MAYER POPULATION ANALYSIS *
                      *****************************

  NA   - Mulliken gross atomic population
  ZA   - Total nuclear charge
  QA   - Mulliken gross atomic charge
  VA   - Mayer's total valence
  BVA  - Mayer's bonded valence
  FA   - Mayer's free valence

  ATOM       NA         ZA         QA         VA         BVA        FA
  0 V     22.9999    23.0000     0.0001     5.6673     5.1603     0.5070
  1 V     23.0001    23.0000    -0.0001     5.6653     5.1603     0.5050

  Mayer bond orders larger than 0.100000
B(  0-V ,  1-V ) :   5.1603 

-------
TIMINGS
-------

Total SCF time: 0 days 0 hours 4 min 1 sec 

Total time                  ....     241.124 sec
Sum of individual times     ....     240.147 sec  ( 99.6%)

Fock matrix formation       ....     232.089 sec  ( 96.3%)
  XC integration            ....     204.897 sec  ( 88.3% of F)
    Basis function eval.    ....       0.068 sec  (  0.0% of XC)
    Density eval.           ....       0.075 sec  (  0.0% of XC)
    XC-Functional eval.     ....       0.040 sec  (  0.0% of XC)
    XC-Potential eval.      ....       0.186 sec  (  0.1% of XC)
Diagonalization             ....       5.005 sec  (  2.1%)
Density matrix formation    ....       0.023 sec  (  0.0%)
Population analysis         ....       0.083 sec  (  0.0%)
Initial guess               ....       0.855 sec  (  0.4%)
Orbital Transformation      ....       0.000 sec  (  0.0%)
Orbital Orthonormalization  ....       0.000 sec  (  0.0%)
DIIS solution               ....       0.350 sec  (  0.1%)
Grid generation             ....       1.742 sec  (  0.7%)


           ************************************************************
           *        Program running with 28 parallel MPI-processes    *
           *              working on a common directory               *
           ************************************************************

------------------------------------------------------------------------------
                                ORCA  MP2 
------------------------------------------------------------------------------

Freezing NCore=20 chemical core electrons

-------------
RI-MP2 ENERGY
-------------
Dimension of the basis                    ...  134
Memory devoted to MP2                     ... 5000 MB   
Data format for buffers                   ... DOUBLE
Compression type for matrix containers    ... UNCOMPRESSED
Overall scaling of the MP2 energy         ...   2.700e-01
Calculating two index integrals           ... done (    0.017 sec)
Cholesky decomposition of V**-1           ... done (    0.091 sec)

-----------------
RI-TRANSFORMATION (AUX index driven)
-----------------

Dimension of the orbital-basis         ... 134
Dimension of the aux-basis             ... 450
Transformation of internal/external MOs...   10-  23 to   24- 133
Number Format for Storage              ... Double (8 Byte)
Integral mode                          ... Direct

First Phase: integral generation and transformation of MO indices
  Aux angular momentum 0               ... done (    0.001 sec)
  Aux angular momentum 1               ... done (    0.001 sec)
  Aux angular momentum 2               ... done (    0.002 sec)
  Aux angular momentum 3               ... done (    0.003 sec)
  Aux angular momentum 4               ... done (    0.006 sec)
  Aux angular momentum 5               ... done (    0.008 sec)
  Aux angular momentum 6               ... done (    0.012 sec)
Closing buffer VIA ( 0.01 GB; CompressionRatio= 1.00)
  Phase 1 completed in     0.135 sec
Second Phase: sorting and transformation of aux index

IA-Transformation
Memory available                       ... 4997 MB 
Max. # MO pairs treated in a batch     ... 1    
# of internal orbitals                 ... 14
# batches for internal orbitals        ... 1
Closing buffer IAV ( 0.00 GB; CompressionRatio= 1.00)
(ia|v) transformation done in     0.029 sec

  Phase 2 completed in     0.104 sec
RI-Integral transformation completed in     0.256 sec

-----------------
RI-TRANSFORMATION (AUX index driven)
-----------------

Dimension of the orbital-basis         ... 134
Dimension of the aux-basis             ... 450
Transformation of internal/external MOs...   10-  21 to   22- 133
Number Format for Storage              ... Double (8 Byte)
Integral mode                          ... Direct

First Phase: integral generation and transformation of MO indices
  Aux angular momentum 0               ... done (    0.001 sec)
  Aux angular momentum 1               ... done (    0.001 sec)
  Aux angular momentum 2               ... done (    0.002 sec)
  Aux angular momentum 3               ... done (    0.003 sec)
  Aux angular momentum 4               ... done (    0.006 sec)
  Aux angular momentum 5               ... done (    0.007 sec)
  Aux angular momentum 6               ... done (    0.011 sec)
Closing buffer VIA ( 0.00 GB; CompressionRatio= 1.00)
  Phase 1 completed in     0.140 sec
Second Phase: sorting and transformation of aux index

IA-Transformation
Memory available                       ... 4997 MB 
Max. # MO pairs treated in a batch     ... 1    
# of internal orbitals                 ... 12
# batches for internal orbitals        ... 1
Closing buffer IAV ( 0.00 GB; CompressionRatio= 1.00)
(ia|v) transformation done in     0.029 sec

  Phase 2 completed in     0.119 sec
RI-Integral transformation completed in     0.309 sec
Opening buffers                              ... done

Starting loop over batches of integrals:

Operator 0  - window                       ... ( 10- 23)x( 24-133)
Operator 0  - Memory available             ...  5000 MB
Operator 0  - Memory needed per MO         ...   0.4 MB
Operator 0  - Number of orbitals per batch ... 1
Operator 0  - Number of batches            ... 1

OPERATOR  0   PASS   0:  MOs    10 ...   10 +   11 ...   11 +   12 ...   12 +   13 ...   13
                            +   14 ...   14 +   15 ...   15 +   16 ...   16 +   17 ...   17
                            +   18 ...   18 +   19 ...   19 +   20 ...   20 +   21 ...   21
                            +   22 ...   22 +   23 ...   23
  Reading integrals       ... ok

Operator 1  - window                       ... ( 10- 21)x( 22-133)
Operator 1  - Memory available             ...  5000 MB
Operator 1  - Memory needed per MO         ...   0.4 MB
Operator 1  - Number of orbitals per batch ... 1
Operator 1  - Number of batches            ... 1

OPERATOR  1   PASS   0:  MOs    10 ...   10 +   11 ...   11 +   12 ...   12 +   13 ...   13
                            +   14 ...   14 +   15 ...   15 +   16 ...   16 +   17 ...   17
                            +   18 ...   18 +   19 ...   19 +   20 ...   20 +   21 ...   21
  Reading integrals       ... ok
Time spent in pair loops =     0.024 sec
Deleting buffer (Ka|jb)[aa] ...done
Deleting buffer (Ka|jb)[ab] ...done
Deleting buffer (Ka|jb)[ba] ...done
Deleting buffer (Ka|jb)[bb] ...done

Correlation energy components}
 E2 and T2 for alpha/alpha pairs :     -0.184124169 Eh      0.000000000
 E2 and T2 for beta/beta   pairs :     -0.076481476 Eh      0.000000000
 E2 and T2 for alpha/beta  pairs :     -0.416695094 Eh      0.000000000


-----------------------------------------------
 RI-MP2 CORRELATION ENERGY:     -0.677300739 Eh
-----------------------------------------------


-------
TIMINGS
-------

Total time                :    0.759 sec
Integral trafo            :    0.597 sec ( 78.7%)
I/O of integrals          :    0.001 sec (  0.1%)
K(i,j) Operators          :    0.010 sec (  1.3%)
T(i,j) pair energies      :    0.001 sec (  0.1%)
V-calculation             :    0.017 sec (  2.2%)
V**(-1/2)                 :    0.091 sec ( 11.9%)
Gamma(ia|P)               :    0.000 sec (  0.0%)
Gamma-Trafo               :    0.000 sec (  0.0%)
D(virtual)                :    0.000 sec (  0.0%)
D(internal)               :    0.000 sec (  0.0%)
W(virtual)                :    0.000 sec (  0.0%)
W(internal)               :    0.000 sec (  0.0%)
L(virtual)                :    0.000 sec (  0.0%)
L(internal)               :    0.000 sec (  0.0%)
G(D)                      :    0.000 sec (  0.0%)
G(Z)                      :    0.000 sec (  0.0%)
Z-Vector Solution         :    0.000 sec (  0.0%)
Z-Vector Solution         :    0.000 sec (  0.0%)
3-Index Derivative 
+ Separable RIJ part      :    0.000 sec (  0.0%)
2-Index Derivative 
+ Separable RIJ part      :    0.000 sec (  0.0%)
Separable Gradient (X)    :    0.000 sec (  0.0%)


---------------------------------------
MP2 TOTAL ENERGY:    -1887.741263330 Eh
---------------------------------------


-------------------------------------------------------------------------------
                          DFT DISPERSION CORRECTION                            
                                                                               
                              DFTD3 V3.1  Rev 1                                
                          USING Becke-Johnson damping                          
-------------------------------------------------------------------------------
The B2PLYP functional is recognized
Active option DFTDOPT                   ...         4   

molecular C6(AA) [au] = 2008.341783 


            DFT-D V3
 parameters
 s6 scaling factor         :     0.6400 
 a1 scaling factor         :     0.3065 
 s8 scaling factor         :     0.9147 
 a2 scaling factor         :     5.0570 
 ad hoc parameters k1-k3   :    16.0000     1.3333    -4.0000 

 Edisp/kcal,au: -2.061344907952  -0.003284961858 
 E6   /kcal   :  -0.621567005 
 E8   /kcal   :  -1.439777903 
 % E8         :  69.846530634 

-------------------------   ----------------
Dispersion correction           -0.003284962
-------------------------   ----------------


-------------------------   --------------------
FINAL SINGLE POINT ENERGY     -1887.744548292173
-------------------------   --------------------


                            ***************************************
                            *     ORCA property calculations      *
                            ***************************************


  WARNING: The energy has been calculated at the MP2 level but the densities
           used in the property calculations are still SCF densities
           MP2 response densities have not been calculated 
           use %mp2 Density relaxed end
           or  %mp2 Density unrelaxed end

                                    ---------------------
                                    Active property flags
                                    ---------------------
   (+) Dipole Moment


------------------------------------------------------------------------------
                       ORCA ELECTRIC PROPERTIES CALCULATION
------------------------------------------------------------------------------

Dipole Moment Calculation                       ... on
Quadrupole Moment Calculation                   ... off
Polarizability Calculation                      ... off
GBWName                                         ... V2.gbw
Electron density file                           ... V2.scfp
The origin for moment calculation is the CENTER OF MASS  = ( 0.000000,  0.000000  1.672408)

-------------
DIPOLE MOMENT
-------------
                                X             Y             Z
Electronic contribution:      0.00000       0.00000       0.00074
Nuclear contribution   :      0.00000       0.00000       0.00000
                        -----------------------------------------
Total Dipole Moment    :      0.00000       0.00000       0.00074
                        -----------------------------------------
Magnitude (a.u.)       :      0.00074
Magnitude (Debye)      :      0.00187



--------------------
Rotational spectrum 
--------------------
 
Rotational constants in cm-1:     0.000000     0.211262     0.211262 
Rotational constants in MHz :     0.000000  6333.475957  6333.475957 

 Dipole components along the rotational axes: 
x,y,z [a.u.] :     0.000737     0.000000     0.000000 
x,y,z [Debye]:     0.001873     0.000000     0.000000 

 

Timings for individual modules:

Sum of individual times         ...      254.800 sec (=   4.247 min)
GTO integral calculation        ...        6.283 sec (=   0.105 min)   2.5 %
SCF iterations                  ...      244.164 sec (=   4.069 min)  95.8 %
MP2 module                      ...        4.353 sec (=   0.073 min)   1.7 %
                             ****ORCA TERMINATED NORMALLY****
TOTAL RUN TIME: 0 days 0 hours 4 minutes 17 seconds 944 msec
