
                                 *****************
                                 * O   R   C   A *
                                 *****************

           --- An Ab Initio, DFT and Semiempirical electronic structure package ---

                  #######################################################
                  #                        -***-                        #
                  #          Department of theory and spectroscopy      #
                  #               Directorship: Frank Neese             #
                  #        Max Planck Institute fuer Kohlenforschung    #
                  #                Kaiser Wilhelm Platz 1               #
                  #                 D-45470 Muelheim/Ruhr               #
                  #                      Germany                        #
                  #                                                     #
                  #                  All rights reserved                #
                  #                        -***-                        #
                  #######################################################


                         Program Version 4.2.0 -  RELEASE  -


 With contributions from (in alphabetic order):
   Daniel Aravena         : Magnetic Suceptibility
   Michael Atanasov       : Ab Initio Ligand Field Theory (pilot matlab implementation)
   Alexander A. Auer      : GIAO ZORA, VPT2
   Ute Becker             : Parallelization
   Giovanni Bistoni       : ED, misc. LED, open-shell LED, HFLED
   Martin Brehm           : Molecular dynamics
   Dmytro Bykov           : SCF Hessian
   Vijay G. Chilkuri      : MRCI spin determinant printing, contributions to CSF-ICE
   Dipayan Datta          : RHF DLPNO-CCSD density
   Achintya Kumar Dutta   : EOM-CC, STEOM-CC
   Dmitry Ganyushin       : Spin-Orbit,Spin-Spin,Magnetic field MRCI
   Miquel Garcia          : C-PCM Hessian, Gaussian charge scheme
   Yang Guo               : DLPNO-NEVPT2, CIM, IAO-localization
   Andreas Hansen         : Spin unrestricted coupled pair/coupled cluster methods
   Benjamin Helmich-Paris : CASSCF linear response (MC-RPA)
   Lee Huntington         : MR-EOM, pCC
   Robert Izsak           : Overlap fitted RIJCOSX, COSX-SCS-MP3, EOM
   Christian Kollmar      : KDIIS, OOCD, Brueckner-CCSD(T), CCSD density
   Simone Kossmann        : Meta GGA functionals, TD-DFT gradient, OOMP2, MP2 Hessian
   Martin Krupicka        : AUTO-CI
   Lucas Lang             : DCDCAS
   Dagmar Lenk            : GEPOL surface, SMD
   Dimitrios Liakos       : Extrapolation schemes; Compound Job, initial MDCI parallelization
   Dimitrios Manganas     : Further ROCIS development; embedding schemes
   Dimitrios Pantazis     : SARC Basis sets
   Taras Petrenko         : DFT Hessian,TD-DFT gradient, ASA, ECA, R-Raman, ABS, FL, XAS/XES, NRVS
   Peter Pinski           : DLPNO-MP2, DLPNO-MP2 Gradient
   Christoph Reimann      : Effective Core Potentials
   Marius Retegan         : Local ZFS, SOC
   Christoph Riplinger    : Optimizer, TS searches, QM/MM, DLPNO-CCSD(T), (RO)-DLPNO pert. Triples
   Tobias Risthaus        : Range-separated hybrids, TD-DFT gradient, RPA, STAB
   Michael Roemelt        : Original ROCIS implementation
   Masaaki Saitow         : Open-shell DLPNO-CCSD energy and density
   Barbara Sandhoefer     : DKH picture change effects
   Avijit Sen             : IP-ROCIS
   Kantharuban Sivalingam : CASSCF convergence, NEVPT2, FIC-MRCI
   Bernardo de Souza      : ESD, SOC TD-DFT
   Georgi Stoychev        : AutoAux, RI-MP2 NMR
   Willem Van den Heuvel  : Paramagnetic NMR
   Boris Wezisla          : Elementary symmetry handling
   Frank Wennmohs         : Technical directorship


 We gratefully acknowledge several colleagues who have allowed us to
 interface, adapt or use parts of their codes:
   Stefan Grimme, W. Hujo, H. Kruse,             : VdW corrections, initial TS optimization,
                  C. Bannwarth                     DFT functionals, gCP, sTDA/sTD-DF
   Ed Valeev, F. Pavosevic, A. Kumar             : LibInt (2-el integral package), F12 methods
   Garnet Chan, S. Sharma, J. Yang, R. Olivares  : DMRG
   Ulf Ekstrom                                   : XCFun DFT Library
   Mihaly Kallay                                 : mrcc  (arbitrary order and MRCC methods)
   Andreas Klamt, Michael Diedenhofen            : otool_cosmo (COSMO solvation model)
   Jiri Pittner, Ondrej Demel                    : Mk-CCSD
   Frank Weinhold                                : gennbo (NPA and NBO analysis)
   Christopher J. Cramer and Donald G. Truhlar   : smd solvation model
   Lars Goerigk                                  : TD-DFT with DH, B97 family of functionals
   V. Asgeirsson, H. Jonsson                     : NEB implementation
   FAccTs GmbH                                   : IRC, NEB, NEB-TS, Multilevel, MM, QM/MM, CI optimization
   S Lehtola, MJT Oliveira, MAL Marques          : LibXC Library


 Your calculation uses the libint2 library for the computation of 2-el integrals
 For citations please refer to: http://libint.valeyev.net

 Your ORCA version has been built with support for libXC version: 4.2.3
 For citations please refer to: https://tddft.org/programs/libxc/

 This ORCA versions uses:
   CBLAS   interface :  Fast vector & matrix operations
   LAPACKE interface :  Fast linear algebra routines
   SCALAPACK package :  Parallel linear algebra routines


Your calculation utilizes the atom-pairwise dispersion correction
with the Becke-Johnson damping scheme (D3BJ)
Cite in your paper:
S.Grimme, S.Ehrlich, L.Goerigk, J Comput Chem, (2011), 32, 1456–1465 
S.Grimme, J.Antony, S.Ehrlich and H.Krieg, J.Chem.Phys., 132, (2010), 154104 
   

----- Orbital basis set information -----
Your calculation utilizes the basis: def2-TZVPPD
   F. Weigend and R. Ahlrichs, Phys. Chem. Chem. Phys. 7, 3297 (2005).
   D. Rappoport and F. Furche, J. Chem. Phys. 133 134105 (2010).

----- AuxC basis set information -----
Your calculation utilizes the auxiliary basis: def2-TZVPPD/C
   A. Hellweg, C. Hattig, S. Hofener and W. Klopper, Theor. Chem. Acc. 117, 587 (2007).

----- AuxJK basis set information -----
Your calculation utilizes the auxiliary basis: def2/JK
   H-Ba, Hf-Rn: F. Weigend, J. Comput. Chem. 29, 167 (2008).

cite the ECPs for Ag [Def2-ECP] as follows:
Ce-Yb(ecp-28): M. Dolg, H. Stoll, H.Preuss, J. Chem. Phys., 1989, 90, 1730-1734.
Y-Cd(ecp-28), Hf-Hg(ecp-46): D. Andrae,U. Haeussermann, M. Dolg, H. Stoll, H. Preuss, Theor. Chim. Acta, 1990, 77, 123-141.
In-Sb(ecp-28), Tl-Bi(ecp-46): B. Metz, H. Stoll, M. Dolg, J. Chem. Phys., 2000, 113, 2563-2569.
Te-Xe(ecp-28), Po-Rn(ecp-46): K. A. Peterson, D. Figgen, E. Goll, H. Stoll, M. Dolg, J. Chem. Phys., 2003, 119, 11113-11123.
Rb(ecp-28), Cs(ecp-46): T. Leininger, A. Nicklass, W. Kuechle, H. Stoll, M. Dolg, A. Bergner, Chem. Phys. Lett., 1996, 255, 274-280.
Sr(ecp-28), Ba(ecp-46): M. Kaupp, P. V. Schleyer, H. Stoll and H. Preuss, J. Chem. Phys., 1991, 94, 1360-1366.
La(ecp-46): M. Dolg, H. Stoll, A. Savin, H. Preuss, Theor. Chim. Acta, 1989, 75, 173-194.
Lu(ecp-28): X. Cao, M. Dolg, J. Chem. Phys., 2001, 115, 7348-7355.

ECP parameters for Ag [Def2-ECP] have been obtained from:
TURBOMOLE (7.0.2)

================================================================================
                                        WARNINGS
                       Please study these warnings very carefully!
================================================================================


WARNING: No MP2 level density has been requested!
         To caclulate MP2 level properties use
         %mp2 Density relaxed end
         or
         %mp2 Density unrelaxed end
         Otherwise for double-hybrid DFT only the energy is correct!

WARNING: The frozen-core approximation is turned on by default for 
         the MP2 part of double-hybrid DFT.

INFO   : the flag for use of LIBINT has been found!

================================================================================
                                       INPUT FILE
================================================================================
NAME = Ag2.in
|  1> #
|  2> # Ag2 ri-B2PLYP-D3BJ/Def2-TZVPPD
|  3> #
|  4> ! rijk ri-b2plyp d3bj def2-tzvppd def2/jk def2-tzvppd/c grid4 nofinalgrid
|  5> 
|  6> *xyz 0 1
|  7> Ag         0.00000        0.00000        0.00000
|  8> Ag         0.00000        0.00000        2.58711
|  9> *
| 10> 
| 11> %maxcore 5000
| 12> 
| 13> %pal
| 14> nprocs = 28
| 15> end
| 16> 
| 17> 
| 18>                          ****END OF INPUT****
================================================================================

                       ****************************
                       * Single Point Calculation *
                       ****************************

---------------------------------
CARTESIAN COORDINATES (ANGSTROEM)
---------------------------------
  Ag     0.000000    0.000000    0.000000
  Ag     0.000000    0.000000    2.587110

----------------------------
CARTESIAN COORDINATES (A.U.)
----------------------------
  NO LB      ZA    FRAG     MASS         X           Y           Z
   0 Ag   19.0000*   0   107.870    0.000000    0.000000    0.000000
   1 Ag   19.0000*   0   107.870    0.000000    0.000000    4.888929
* core charge reduced due to ECP

--------------------------------
INTERNAL COORDINATES (ANGSTROEM)
--------------------------------
 Ag     0   0   0     0.000000000000     0.00000000     0.00000000
 Ag     1   0   0     2.587110000000     0.00000000     0.00000000

---------------------------
INTERNAL COORDINATES (A.U.)
---------------------------
 Ag     0   0   0     0.000000000000     0.00000000     0.00000000
 Ag     1   0   0     4.888929378329     0.00000000     0.00000000

---------------------
BASIS SET INFORMATION
---------------------
There are 1 groups of distinct atoms

 Group   1 Type Ag  : 7s7p6d2f1g contracted to 6s4p3d2f1g pattern {211111/4111/411/11/1}

Atom   0Ag   basis set group =>   1
Atom   1Ag   basis set group =>   1
---------------------------------
AUXILIARY/C BASIS SET INFORMATION
---------------------------------
There are 1 groups of distinct atoms

 Group   1 Type Ag  : 8s7p6d5f4g3h1i contracted to 8s7p6d5f4g3h1i pattern {11111111/1111111/111111/11111/1111/111/1}

Atom   0Ag   basis set group =>   1
Atom   1Ag   basis set group =>   1
----------------------------------
AUXILIARY/JK BASIS SET INFORMATION
----------------------------------
There are 1 groups of distinct atoms

 Group   1 Type Ag  : 13s12p10d9f6g3h2i contracted to 11s10p9d8f6g3h2i pattern {31111111111/3111111111/211111111/21111111/111111/111/11}

Atom   0Ag   basis set group =>   1
Atom   1Ag   basis set group =>   1
-------------------------
ECP PARAMETER INFORMATION
-------------------------

 Group 1, Type Ag ECP Def2-ECP (replacing 28 core electrons, lmax=3)

Atom   0Ag   ECP group =>   1
Atom   1Ag   ECP group =>   1



           ************************************************************
           *        Program running with 28 parallel MPI-processes    *
           *              working on a common directory               *
           ************************************************************
------------------------------------------------------------------------------
                           ORCA GTO INTEGRAL CALCULATION
                           -- RI-GTO INTEGRALS CHOSEN --
------------------------------------------------------------------------------

                         BASIS SET STATISTICS AND STARTUP INFO

Gaussian basis set:
 # of primitive gaussian shells          ...   46
 # of primitive gaussian functions       ...  162
 # of contracted shells                  ...   32
 # of contracted basis functions         ...  112
 Highest angular momentum                ...    4
 Maximum contraction depth               ...    4
Auxiliary gaussian basis set:
 # of primitive gaussian shells          ...  110
 # of primitive gaussian functions       ...  550
 # of contracted shells                  ...   98
 # of contracted aux-basis functions     ...  510
 Highest angular momentum                ...    6
 Maximum contraction depth               ...    3
Ratio of auxiliary to basis functions    ...  4.55
Integral package used                  ... LIBINT
 One Electron integrals                  
   ECP integrals                         ... done
 Ordering auxiliary basis shells         ... done
 Integral threshhold             Thresh  ...  1.000e-10
 Primitive cut-off               TCut    ...  1.000e-11
 Pre-screening matrix                    ... done
 Shell pair data                         ... 
 Ordering of the shell pairs             ... done (   0.000 sec) 518 of 528 pairs
 Determination of significant pairs      ... done (   0.000 sec)
 Creation of shell pair data             ... done (   0.000 sec)
 Storage of shell pair data              ... done (   0.040 sec)
 Shell pair data done in (   0.040 sec)
 Computing two index integrals           ... done
 Cholesky decomposition of the V-matrix  ... done


Timings:
 Total evaluation time                   ...   0.685 sec (  0.011 min)
 One electron matrix time                ...   0.247 sec (  0.004 min) = 36.0%
 Schwartz matrix evaluation time         ...   0.144 sec (  0.002 min) = 21.0%
 Two index repulsion integral time       ...   0.123 sec (  0.002 min) = 17.9%
 Cholesky decomposition of V             ...   0.061 sec (  0.001 min) =  8.8%
 Three index repulsion integral time     ...   0.000 sec (  0.000 min) =  0.0%



           ************************************************************
           *        Program running with 28 parallel MPI-processes    *
           *              working on a common directory               *
           ************************************************************
-------------------------------------------------------------------------------
                                 ORCA SCF
-------------------------------------------------------------------------------

------------
SCF SETTINGS
------------
Hamiltonian:
 Density Functional     Method          .... DFT(GTOs)
 Exchange Functional    Exchange        .... B88
   X-Alpha parameter    XAlpha          ....  0.666667
   Becke's b parameter  XBeta           ....  0.004200
 Correlation Functional Correlation     .... LYP
 LDA part of GGA corr.  LDAOpt          .... VWN-3
 Gradients option       PostSCFGGA      .... off
 Hybrid DFT is turned on
   Fraction HF Exchange ScalHFX         ....  0.530000
   Scaling of DF-GGA-X  ScalDFX         ....  0.470000
   Scaling of DF-GGA-C  ScalDFC         ....  0.730000
   Scaling of DF-LDA-C  ScalLDAC        ....  0.730000
   Perturbative correction              ....  0.270000
   Density functional embedding theory  .... OFF
 RI-approximation to the Coulomb term is turned on
   Number of auxiliary basis functions  .... 510
   RI-JK (J+K treated both via RI)      .... on


General Settings:
 Integral files         IntName         .... Ag2
 Hartree-Fock type      HFTyp           .... RHF
 Total Charge           Charge          ....    0
 Multiplicity           Mult            ....    1
 Number of Electrons    NEL             ....   38
 Basis Dimension        Dim             ....  112
 Nuclear Repulsion      ENuc            ....     73.8402975507 Eh

Convergence Acceleration:
 DIIS                   CNVDIIS         .... on
   Start iteration      DIISMaxIt       ....    12
   Startup error        DIISStart       ....  0.200000
   # of expansion vecs  DIISMaxEq       ....     5
   Bias factor          DIISBfac        ....   1.050
   Max. coefficient     DIISMaxC        ....  10.000
 Newton-Raphson         CNVNR           .... off
 SOSCF                  CNVSOSCF        .... off
 Level Shifting         CNVShift        .... on
   Level shift para.    LevelShift      ....    0.2500
   Turn off err/grad.   ShiftErr        ....    0.0010
 Zerner damping         CNVZerner       .... off
 Static damping         CNVDamp         .... on
   Fraction old density DampFac         ....    0.7000
   Max. Damping (<1)    DampMax         ....    0.9800
   Min. Damping (>=0)   DampMin         ....    0.0000
   Turn off err/grad.   DampErr         ....    0.1000
 Fernandez-Rico         CNVRico         .... off

SCF Procedure:
 Maximum # iterations   MaxIter         ....   125
 SCF integral mode      SCFMode         .... Direct
   Integral package                     .... LIBINT
 Reset frequency        DirectResetFreq ....    20
 Integral Threshold     Thresh          ....  1.000e-10 Eh
 Primitive CutOff       TCut            ....  1.000e-11 Eh

Convergence Tolerance:
 Convergence Check Mode ConvCheckMode   .... Total+1el-Energy
 Convergence forced     ConvForced      .... 0
 Energy Change          TolE            ....  1.000e-06 Eh
 1-El. energy change                    ....  1.000e-03 Eh
 DIIS Error             TolErr          ....  1.000e-06


Diagonalization of the overlap matrix:
Smallest eigenvalue                        ... 4.719e-03
Time for diagonalization                   ...    0.010 sec
Threshold for overlap eigenvalues          ... 1.000e-08
Number of eigenvalues below threshold      ... 0
Time for construction of square roots      ...    0.072 sec
Total time needed                          ...    0.083 sec

-------------------
DFT GRID GENERATION
-------------------

General Integration Accuracy     IntAcc      ...  4.670
Radial Grid Type                 RadialGrid  ... Gauss-Chebyshev
Angular Grid (max. acc.)         AngularGrid ... Lebedev-302
Angular grid pruning method      GridPruning ... 3 (G Style)
Weight generation scheme         WeightScheme... Becke
Basis function cutoff            BFCut       ...    1.0000e-10
Integration weight cutoff        WCut        ...    1.0000e-14
Grids for H and He will be reduced by one unit

# of grid points (after initial pruning)     ...  21316 (   0.0 sec)
# of grid points (after weights+screening)   ...  21282 (   0.0 sec)
nearest neighbour list constructed           ...    0.0 sec
Grid point re-assignment to atoms done       ...    0.0 sec
Grid point division into batches done        ...    0.2 sec
Reduced shell lists constructed in    0.2 sec

Total number of grid points                  ...    21282
Total number of batches                      ...      334
Average number of points per batch           ...       63
Average number of grid points per atom       ...    10641
Average number of shells per batch           ...     1.00 ( 3.12%)
Average number of basis functions per batch  ...     2.08 ( 1.85%)
Average number of large shells per batch     ...     0.77 (76.92%)
Average number of large basis fcns per batch ...     1.85 (88.89%)
Average number of aux-shells per batch       ...     1.00 ( 1.02%)
Average number of aux functions per batch    ...     2.08 ( 0.41%)
Maximum spatial batch extension              ...  31.14, 31.14, 19.99 au
Average spatial batch extension              ...   0.86,  0.86,  0.64 au

Time for grid setup =    3.090 sec

------------------------------
INITIAL GUESS: MODEL POTENTIAL
------------------------------
Loading Hartree-Fock densities                     ... done
  calling /mnt/storage/software/apps/orca-4.2.0/orca_4_2_0_linux_x86-64_openmpi314/orca Ag2_atom47.inp > Ag2_atom47.out in order to generate an atomic fitting density for atom 0 (Ag with ECP) on-the-fly... 
    atom 0 (Ag), assumed electronic state with S=2: 1s2 2s2 2p6 3s2 3p6 4s2 3d10 4p6 5s2 4d9           ... done
Calculating cut-offs                               ... done
Setting up the integral package                    ... done
Initializing the effective Hamiltonian             ... done
Starting the Coulomb interaction                   ... done (   0.0 sec)
Reading the grid                                   ... done
Mapping shells                                     ... done
Starting the XC term evaluation                    ... done (   0.0 sec)
  promolecular density results
     # of electrons  =     94.001387293
     EX              =   -288.139245096
     EC              =     -1.799401695
     EX+EC           =   -289.938646791
Transforming the Hamiltonian                       ... done (   0.1 sec)
Diagonalizing the Hamiltonian                      ... done (   0.0 sec)
Back transforming the eigenvectors                 ... done (   0.0 sec)
Now organizing SCF variables                       ... done
                      ------------------
                      INITIAL GUESS DONE (  14.2 sec)
                      ------------------
--------------
SCF ITERATIONS
--------------
ITER       Energy         Delta-E        Max-DP      RMS-DP      [F,P]     Damp
  0   -293.2500818222   0.000000000000 0.11701354  0.00294421  0.4916914 0.7000
  1   -293.0523524470   0.197729375136 0.08041274  0.00235210  0.3389719 0.7000
  2   -293.1470062965  -0.094653849468 0.04815890  0.00132893  0.2203719 0.7000
                               ***Turning on DIIS***
  3   -293.2950846826  -0.148078386105 0.03361717  0.00075654  0.1469043 0.7000
  4   -293.3850226812  -0.089937998638 0.02319302  0.00056675  0.1023623 0.7000
  5   -293.4275160196  -0.042493338328 0.06318925  0.00159793  0.0744007 0.0000
  6   -293.4089894390   0.018526580603 0.00577171  0.00025563  0.0213399 0.0000
  7   -293.4103009085  -0.001311469548 0.00452001  0.00014535  0.0079140 0.0000
  8   -293.4105221094  -0.000221200894 0.00174768  0.00007693  0.0031603 0.0000
  9   -293.4105608060  -0.000038696540 0.00231823  0.00006234  0.0005469 0.0000
 10   -293.4105642239  -0.000003417943 0.00053845  0.00001310  0.0001957 0.0000
                 **** Energy Check signals convergence ****

               *****************************************************
               *                     SUCCESS                       *
               *           SCF CONVERGED AFTER  11 CYCLES          *
               *****************************************************


----------------
TOTAL SCF ENERGY
----------------

Total Energy       :         -293.41056443 Eh           -7984.10736 eV

Components:
Nuclear Repulsion  :           73.84029755 Eh            2009.29665 eV
Electronic Energy  :         -367.25086198 Eh           -9993.40401 eV
One Electron Energy:         -670.67850410 Eh          -18250.08991 eV
Two Electron Energy:          303.42764212 Eh            8256.68590 eV

Virial components:
Potential Energy   :         -406.28593863 Eh          -11055.60245 eV
Kinetic Energy     :          112.87537420 Eh            3071.49508 eV
Virial Ratio       :            3.59942052


DFT components:
N(Alpha)           :       18.999987750311 electrons
N(Beta)            :       18.999987750311 electrons
N(Total)           :       37.999975500622 electrons
E(X)               :      -12.620527805123 Eh       
E(C)               :       -1.049010233088 Eh       
E(XC)              :      -13.669538038211 Eh       
DFET-embed. en.    :        0.000000000000 Eh       

---------------
SCF CONVERGENCE
---------------

  Last Energy change         ...   -2.0168e-07  Tolerance :   1.0000e-06
  Last MAX-Density change    ...    2.7744e-04  Tolerance :   1.0000e-05
  Last RMS-Density change    ...    6.3493e-06  Tolerance :   1.0000e-06
  Last DIIS Error            ...    5.9910e-05  Tolerance :   1.0000e-06

             **** THE GBW FILE WAS UPDATED (Ag2.gbw) ****
             **** DENSITY FILE WAS UPDATED (Ag2.scfp) ****
             **** ENERGY FILE WAS UPDATED (Ag2.en.tmp) ****
             **** THE GBW FILE WAS UPDATED (Ag2.gbw) ****
             **** DENSITY FILE WAS UPDATED (Ag2.scfp) ****
----------------
ORBITAL ENERGIES
----------------

  NO   OCC          E(Eh)            E(eV) 
   0   2.0000      -3.969333      -108.0110 
   1   2.0000      -3.968782      -107.9961 
   2   2.0000      -2.508342       -68.2555 
   3   2.0000      -2.502658       -68.1008 
   4   2.0000      -2.502658       -68.1008 
   5   2.0000      -2.502117       -68.0861 
   6   2.0000      -2.502117       -68.0861 
   7   2.0000      -2.501897       -68.0801 
   8   2.0000      -0.427258       -11.6263 
   9   2.0000      -0.411008       -11.1841 
  10   2.0000      -0.411008       -11.1841 
  11   2.0000      -0.392575       -10.6825 
  12   2.0000      -0.392574       -10.6825 
  13   2.0000      -0.385676       -10.4948 
  14   2.0000      -0.385675       -10.4947 
  15   2.0000      -0.373574       -10.1655 
  16   2.0000      -0.373574       -10.1655 
  17   2.0000      -0.364686        -9.9236 
  18   2.0000      -0.218413        -5.9433 
  19   0.0000      -0.052003        -1.4151 
  20   0.0000       0.010072         0.2741 
  21   0.0000       0.010072         0.2741 
  22   0.0000       0.030430         0.8280 
  23   0.0000       0.068187         1.8555 
  24   0.0000       0.068187         1.8555 
  25   0.0000       0.117019         3.1843 
  26   0.0000       0.140917         3.8346 
  27   0.0000       0.184554         5.0220 
  28   0.0000       0.228010         6.2045 
  29   0.0000       0.233324         6.3491 
  30   0.0000       0.233324         6.3491 
  31   0.0000       0.292916         7.9706 
  32   0.0000       0.292916         7.9706 
  33   0.0000       0.431249        11.7349 
  34   0.0000       0.441270        12.0076 
  35   0.0000       0.441271        12.0076 
  36   0.0000       0.479539        13.0489 
  37   0.0000       0.479539        13.0489 
  38   0.0000       0.529238        14.4013 
  39   0.0000       0.529239        14.4013 
  40   0.0000       0.642748        17.4901 
  41   0.0000       0.648986        17.6598 
  42   0.0000       0.648986        17.6598 
  43   0.0000       0.781421        21.2636 
  44   0.0000       1.557639        42.3855 
  45   0.0000       1.676000        45.6063 
  46   0.0000       1.676000        45.6063 
  47   0.0000       1.715914        46.6924 
  48   0.0000       1.715916        46.6924 
  49   0.0000       1.729047        47.0498 
  50   0.0000       1.729047        47.0498 
  51   0.0000       1.730820        47.0980 
  52   0.0000       1.730820        47.0980 
  53   0.0000       1.741292        47.3830 
  54   0.0000       1.741293        47.3830 
  55   0.0000       1.747503        47.5520 
  56   0.0000       1.747503        47.5520 
  57   0.0000       1.748257        47.5725 
  58   0.0000       1.748257        47.5725 
  59   0.0000       1.771911        48.2162 
  60   0.0000       1.858156        50.5630 
  61   0.0000       1.858156        50.5630 
  62   0.0000       1.858768        50.5796 
  63   0.0000       1.883736        51.2591 
  64   0.0000       2.080251        56.6065 
  65   0.0000       2.187046        59.5125 
  66   0.0000       2.187058        59.5129 
  67   0.0000       2.213756        60.2394 
  68   0.0000       2.213756        60.2394 
  69   0.0000       2.223565        60.5063 
  70   0.0000       2.223576        60.5066 
  71   0.0000       2.284738        62.1709 
  72   0.0000       2.284738        62.1709 
  73   0.0000       2.297790        62.5261 
  74   0.0000       2.437249        66.3209 
  75   0.0000       2.491753        67.8040 
  76   0.0000       5.039537       137.1328 
  77   0.0000       5.043829       137.2496 
  78   0.0000       5.043829       137.2496 
  79   0.0000       5.076295       138.1330 
  80   0.0000       5.076462       138.1376 
  81   0.0000       5.085334       138.3790 
  82   0.0000       5.085334       138.3790 
  83   0.0000       5.086688       138.4158 
  84   0.0000       5.086688       138.4158 
  85   0.0000       5.096225       138.6753 
  86   0.0000       5.096392       138.6799 
  87   0.0000       5.168045       140.6296 
  88   0.0000       5.168045       140.6296 
  89   0.0000       5.349739       145.5738 
  90   0.0000       5.792571       157.6239 
  91   0.0000       5.792571       157.6239 
  92   0.0000       5.793823       157.6579 
  93   0.0000       5.794187       157.6679 
  94   0.0000       5.794201       157.6682 
  95   0.0000       5.794567       157.6782 
  96   0.0000       5.794580       157.6785 
  97   0.0000       5.795849       157.7131 
  98   0.0000       5.795849       157.7131 
  99   0.0000       5.795872       157.7137 
 100   0.0000       5.795872       157.7137 
 101   0.0000       5.796065       157.7190 
 102   0.0000       5.796065       157.7190 
 103   0.0000       5.797401       157.7553 
 104   0.0000       5.797402       157.7553 
 105   0.0000       5.797751       157.7648 
 106   0.0000       5.797751       157.7648 
 107   0.0000       5.806156       157.9935 
 108   0.0000      33.496531       911.4869 
 109   0.0000      33.740001       918.1121 
 110   0.0000     109.471074      2978.8594 
 111   0.0000     109.547441      2980.9374 

                    ********************************
                    * MULLIKEN POPULATION ANALYSIS *
                    ********************************

-----------------------
MULLIKEN ATOMIC CHARGES
-----------------------
   0 Ag:   -0.000000
   1 Ag:    0.000000
Sum of atomic charges:    0.0000000

--------------------------------
MULLIKEN REDUCED ORBITAL CHARGES
--------------------------------
  0 Ags       :     2.976162  s :     2.976162
      pz      :     2.041104  p :     6.050658
      px      :     2.004777
      py      :     2.004777
      dz2     :     1.982184  d :     9.972020
      dxz     :     1.994965
      dyz     :     1.994965
      dx2y2   :     1.999953
      dxy     :     1.999953
      f0      :     0.000543  f :     0.001146
      f+1     :     0.000255
      f-1     :     0.000255
      f+2     :     0.000047
      f-2     :     0.000047
      f+3     :     0.000000
      f-3     :     0.000000
      g0      :     0.000007  g :     0.000014
      g+1     :     0.000003
      g-1     :     0.000003
      g+2     :     0.000000
      g-2     :     0.000000
      g+3     :     0.000000
      g-3     :     0.000000
      g+4     :     0.000000
      g-4     :     0.000000
  1 Ags       :     2.976162  s :     2.976162
      pz      :     2.041104  p :     6.050658
      px      :     2.004777
      py      :     2.004777
      dz2     :     1.982184  d :     9.972020
      dxz     :     1.994965
      dyz     :     1.994965
      dx2y2   :     1.999953
      dxy     :     1.999953
      f0      :     0.000543  f :     0.001146
      f+1     :     0.000255
      f-1     :     0.000255
      f+2     :     0.000047
      f-2     :     0.000047
      f+3     :     0.000000
      f-3     :     0.000000
      g0      :     0.000007  g :     0.000014
      g+1     :     0.000003
      g-1     :     0.000003
      g+2     :     0.000000
      g-2     :     0.000000
      g+3     :     0.000000
      g-3     :     0.000000
      g+4     :     0.000000
      g-4     :     0.000000


                     *******************************
                     * LOEWDIN POPULATION ANALYSIS *
                     *******************************

----------------------
LOEWDIN ATOMIC CHARGES
----------------------
   0 Ag:    0.000000
   1 Ag:   -0.000000

-------------------------------
LOEWDIN REDUCED ORBITAL CHARGES
-------------------------------
  0 Ags       :     2.910382  s :     2.910382
      pz      :     2.093280  p :     6.106714
      px      :     2.006717
      py      :     2.006717
      dz2     :     1.995574  d :     9.981293
      dxz     :     1.992912
      dyz     :     1.992912
      dx2y2   :     1.999947
      dxy     :     1.999947
      f0      :     0.000756  f :     0.001593
      f+1     :     0.000367
      f-1     :     0.000367
      f+2     :     0.000052
      f-2     :     0.000052
      f+3     :     0.000000
      f-3     :     0.000000
      g0      :     0.000009  g :     0.000018
      g+1     :     0.000004
      g-1     :     0.000004
      g+2     :     0.000001
      g-2     :     0.000001
      g+3     :     0.000000
      g-3     :     0.000000
      g+4     :     0.000000
      g-4     :     0.000000
  1 Ags       :     2.910382  s :     2.910382
      pz      :     2.093280  p :     6.106714
      px      :     2.006717
      py      :     2.006717
      dz2     :     1.995574  d :     9.981293
      dxz     :     1.992912
      dyz     :     1.992912
      dx2y2   :     1.999947
      dxy     :     1.999947
      f0      :     0.000756  f :     0.001593
      f+1     :     0.000367
      f-1     :     0.000367
      f+2     :     0.000052
      f-2     :     0.000052
      f+3     :     0.000000
      f-3     :     0.000000
      g0      :     0.000009  g :     0.000018
      g+1     :     0.000004
      g-1     :     0.000004
      g+2     :     0.000001
      g-2     :     0.000001
      g+3     :     0.000000
      g-3     :     0.000000
      g+4     :     0.000000
      g-4     :     0.000000


                      *****************************
                      * MAYER POPULATION ANALYSIS *
                      *****************************

  NA   - Mulliken gross atomic population
  ZA   - Total nuclear charge
  QA   - Mulliken gross atomic charge
  VA   - Mayer's total valence
  BVA  - Mayer's bonded valence
  FA   - Mayer's free valence

  ATOM       NA         ZA         QA         VA         BVA        FA
  0 Ag    19.0000    19.0000    -0.0000     1.0318     1.0318     0.0000
  1 Ag    19.0000    19.0000     0.0000     1.0318     1.0318     0.0000

  Mayer bond orders larger than 0.100000
B(  0-Ag,  1-Ag) :   1.0318 

-------
TIMINGS
-------

Total SCF time: 0 days 0 hours 4 min 5 sec 

Total time                  ....     245.537 sec
Sum of individual times     ....     244.444 sec  ( 99.6%)

Fock matrix formation       ....     227.386 sec  ( 92.6%)
  XC integration            ....     222.660 sec  ( 97.9% of F)
    Basis function eval.    ....       0.020 sec  (  0.0% of XC)
    Density eval.           ....       0.012 sec  (  0.0% of XC)
    XC-Functional eval.     ....       0.016 sec  (  0.0% of XC)
    XC-Potential eval.      ....       0.021 sec  (  0.0% of XC)
Diagonalization             ....       2.322 sec  (  0.9%)
Density matrix formation    ....       0.009 sec  (  0.0%)
Population analysis         ....       0.420 sec  (  0.2%)
Initial guess               ....      11.107 sec  (  4.5%)
Orbital Transformation      ....       0.000 sec  (  0.0%)
Orbital Orthonormalization  ....       0.000 sec  (  0.0%)
DIIS solution               ....       0.110 sec  (  0.0%)
Grid generation             ....       3.090 sec  (  1.3%)


           ************************************************************
           *        Program running with 28 parallel MPI-processes    *
           *              working on a common directory               *
           ************************************************************

------------------------------------------------------------------------------
                                ORCA  MP2 
------------------------------------------------------------------------------

Freezing NCore=0 chemical core electrons

-------------
RI-MP2 ENERGY
-------------
Dimension of the basis                    ...  112
Memory devoted to MP2                     ... 5000 MB   
Data format for buffers                   ... DOUBLE
Compression type for matrix containers    ... UNCOMPRESSED
Overall scaling of the MP2 energy         ...   2.700e-01
Calculating two index integrals           ... done (    0.011 sec)
Cholesky decomposition of V**-1           ... done (    0.232 sec)

-----------------
RI-TRANSFORMATION (AUX index driven)
-----------------

Dimension of the orbital-basis         ... 112
Dimension of the aux-basis             ... 352
Transformation of internal/external MOs...    0-  18 to   19- 111
Number Format for Storage              ... Double (8 Byte)
Integral mode                          ... Direct

First Phase: integral generation and transformation of MO indices
  Aux angular momentum 0               ... done (    0.001 sec)
  Aux angular momentum 1               ... done (    0.001 sec)
  Aux angular momentum 2               ... done (    0.001 sec)
  Aux angular momentum 3               ... done (    0.002 sec)
  Aux angular momentum 4               ... done (    0.005 sec)
  Aux angular momentum 5               ... done (    0.005 sec)
  Aux angular momentum 6               ... done (    0.007 sec)
Closing buffer VIA ( 0.00 GB; CompressionRatio= 1.00)
  Phase 1 completed in     6.898 sec
Second Phase: sorting and transformation of aux index

IA-Transformation
Memory available                       ... 4999 MB 
Max. # MO pairs treated in a batch     ... 1    
# of internal orbitals                 ... 19
# batches for internal orbitals        ... 1
Closing buffer IAV ( 0.00 GB; CompressionRatio= 1.00)
(ia|v) transformation done in     0.255 sec

  Phase 2 completed in     7.019 sec
RI-Integral transformation completed in    15.421 sec
Opening buffers                              ... done

Starting loop over batches of integrals:

Operator 0  - window                       ... (  0- 18)x( 19-111)
Operator 0  - Memory available             ...  5000 MB
Operator 0  - Memory needed per MO         ...   0.2 MB
Operator 0  - Number of orbitals per batch ... 1
Operator 0  - Number of batches            ... 1

OPERATOR  0   PASS   0:  MOs     0 ...    0 +    1 ...    1 +    2 ...    2 +    3 ...    3
                            +    4 ...    4 +    5 ...    5 +    6 ...    6 +    7 ...    7
                            +    8 ...    8 +    9 ...    9 +   10 ...   10 +   11 ...   11
                            +   12 ...   12 +   13 ...   13 +   14 ...   14 +   15 ...   15
                            +   16 ...   16 +   17 ...   17 +   18 ...   18
  Reading integrals       ... ok
Time spent in pair loops =     0.010 sec

-----------------------------------------------
 RI-MP2 CORRELATION ENERGY:     -0.422134569 Eh
-----------------------------------------------


-------
TIMINGS
-------

Total time                :   15.839 sec
Integral trafo            :   15.436 sec ( 97.5%)
I/O of integrals          :    0.004 sec (  0.0%)
K(i,j) Operators          :    0.000 sec (  0.0%)
T(i,j) pair energies      :    0.000 sec (  0.0%)
V-calculation             :    0.011 sec (  0.1%)
V**(-1/2)                 :    0.232 sec (  1.5%)
Gamma(ia|P)               :    0.000 sec (  0.0%)
Gamma-Trafo               :    0.000 sec (  0.0%)
D(virtual)                :    0.000 sec (  0.0%)
D(internal)               :    0.000 sec (  0.0%)
W(virtual)                :    0.000 sec (  0.0%)
W(internal)               :    0.000 sec (  0.0%)
L(virtual)                :    0.000 sec (  0.0%)
L(internal)               :    0.000 sec (  0.0%)
G(D)                      :    0.000 sec (  0.0%)
G(Z)                      :    0.000 sec (  0.0%)
Z-Vector Solution         :    0.000 sec (  0.0%)
Z-Vector Solution         :    0.000 sec (  0.0%)
3-Index Derivative 
+ Separable RIJ part      :    0.000 sec (  0.0%)
2-Index Derivative 
+ Separable RIJ part      :    0.000 sec (  0.0%)
Separable Gradient (X)    :    0.000 sec (  0.0%)


---------------------------------------
MP2 TOTAL ENERGY:     -293.832698994 Eh
---------------------------------------


-------------------------------------------------------------------------------
                          DFT DISPERSION CORRECTION                            
                                                                               
                              DFTD3 V3.1  Rev 1                                
                          USING Becke-Johnson damping                          
-------------------------------------------------------------------------------
The B2PLYP functional is recognized
Active option DFTDOPT                   ...         4   

molecular C6(AA) [au] = 1088.046307 


            DFT-D V3
 parameters
 s6 scaling factor         :     0.6400 
 a1 scaling factor         :     0.3065 
 s8 scaling factor         :     0.9147 
 a2 scaling factor         :     5.0570 
 ad hoc parameters k1-k3   :    16.0000     1.3333    -4.0000 

 Edisp/kcal,au: -1.266753119977  -0.002018699378 
 E6   /kcal   :  -0.411570525 
 E8   /kcal   :  -0.855182595 
 % E8         :  67.509807674 

-------------------------   ----------------
Dispersion correction           -0.002018699
-------------------------   ----------------


-------------------------   --------------------
FINAL SINGLE POINT ENERGY      -293.834717693497
-------------------------   --------------------


                            ***************************************
                            *     ORCA property calculations      *
                            ***************************************


  WARNING: The energy has been calculated at the MP2 level but the densities
           used in the property calculations are still SCF densities
           MP2 response densities have not been calculated 
           use %mp2 Density relaxed end
           or  %mp2 Density unrelaxed end

                                    ---------------------
                                    Active property flags
                                    ---------------------
   (+) Dipole Moment


------------------------------------------------------------------------------
                       ORCA ELECTRIC PROPERTIES CALCULATION
------------------------------------------------------------------------------

Dipole Moment Calculation                       ... on
Quadrupole Moment Calculation                   ... off
Polarizability Calculation                      ... off
GBWName                                         ... Ag2.gbw
Electron density file                           ... Ag2.scfp
The origin for moment calculation is the CENTER OF MASS  = ( 0.000000,  0.000000  2.444465)

-------------
DIPOLE MOMENT
-------------
                                X             Y             Z
Electronic contribution:      0.00000      -0.00000      -0.00000
Nuclear contribution   :      0.00000       0.00000       0.00000
                        -----------------------------------------
Total Dipole Moment    :      0.00000      -0.00000      -0.00000
                        -----------------------------------------
Magnitude (a.u.)       :      0.00000
Magnitude (Debye)      :      0.00000



--------------------
Rotational spectrum 
--------------------
 
Rotational constants in cm-1:     0.000000     0.046698     0.046698 
Rotational constants in MHz :     0.000000  1399.964850  1399.964850 

 Dipole components along the rotational axes: 
x,y,z [a.u.] :    -0.000000    -0.000000     0.000000 
x,y,z [Debye]:    -0.000000    -0.000000     0.000000 

 

Timings for individual modules:

Sum of individual times         ...      276.927 sec (=   4.615 min)
GTO integral calculation        ...        8.745 sec (=   0.146 min)   3.2 %
SCF iterations                  ...      248.316 sec (=   4.139 min)  89.7 %
MP2 module                      ...       19.866 sec (=   0.331 min)   7.2 %
                             ****ORCA TERMINATED NORMALLY****
TOTAL RUN TIME: 0 days 0 hours 6 minutes 20 seconds 334 msec
