
                                 *****************
                                 * O   R   C   A *
                                 *****************

           --- An Ab Initio, DFT and Semiempirical electronic structure package ---

                  #######################################################
                  #                        -***-                        #
                  #          Department of theory and spectroscopy      #
                  #               Directorship: Frank Neese             #
                  #        Max Planck Institute fuer Kohlenforschung    #
                  #                Kaiser Wilhelm Platz 1               #
                  #                 D-45470 Muelheim/Ruhr               #
                  #                      Germany                        #
                  #                                                     #
                  #                  All rights reserved                #
                  #                        -***-                        #
                  #######################################################


                         Program Version 4.2.0 -  RELEASE  -


 With contributions from (in alphabetic order):
   Daniel Aravena         : Magnetic Suceptibility
   Michael Atanasov       : Ab Initio Ligand Field Theory (pilot matlab implementation)
   Alexander A. Auer      : GIAO ZORA, VPT2
   Ute Becker             : Parallelization
   Giovanni Bistoni       : ED, misc. LED, open-shell LED, HFLED
   Martin Brehm           : Molecular dynamics
   Dmytro Bykov           : SCF Hessian
   Vijay G. Chilkuri      : MRCI spin determinant printing, contributions to CSF-ICE
   Dipayan Datta          : RHF DLPNO-CCSD density
   Achintya Kumar Dutta   : EOM-CC, STEOM-CC
   Dmitry Ganyushin       : Spin-Orbit,Spin-Spin,Magnetic field MRCI
   Miquel Garcia          : C-PCM Hessian, Gaussian charge scheme
   Yang Guo               : DLPNO-NEVPT2, CIM, IAO-localization
   Andreas Hansen         : Spin unrestricted coupled pair/coupled cluster methods
   Benjamin Helmich-Paris : CASSCF linear response (MC-RPA)
   Lee Huntington         : MR-EOM, pCC
   Robert Izsak           : Overlap fitted RIJCOSX, COSX-SCS-MP3, EOM
   Christian Kollmar      : KDIIS, OOCD, Brueckner-CCSD(T), CCSD density
   Simone Kossmann        : Meta GGA functionals, TD-DFT gradient, OOMP2, MP2 Hessian
   Martin Krupicka        : AUTO-CI
   Lucas Lang             : DCDCAS
   Dagmar Lenk            : GEPOL surface, SMD
   Dimitrios Liakos       : Extrapolation schemes; Compound Job, initial MDCI parallelization
   Dimitrios Manganas     : Further ROCIS development; embedding schemes
   Dimitrios Pantazis     : SARC Basis sets
   Taras Petrenko         : DFT Hessian,TD-DFT gradient, ASA, ECA, R-Raman, ABS, FL, XAS/XES, NRVS
   Peter Pinski           : DLPNO-MP2, DLPNO-MP2 Gradient
   Christoph Reimann      : Effective Core Potentials
   Marius Retegan         : Local ZFS, SOC
   Christoph Riplinger    : Optimizer, TS searches, QM/MM, DLPNO-CCSD(T), (RO)-DLPNO pert. Triples
   Tobias Risthaus        : Range-separated hybrids, TD-DFT gradient, RPA, STAB
   Michael Roemelt        : Original ROCIS implementation
   Masaaki Saitow         : Open-shell DLPNO-CCSD energy and density
   Barbara Sandhoefer     : DKH picture change effects
   Avijit Sen             : IP-ROCIS
   Kantharuban Sivalingam : CASSCF convergence, NEVPT2, FIC-MRCI
   Bernardo de Souza      : ESD, SOC TD-DFT
   Georgi Stoychev        : AutoAux, RI-MP2 NMR
   Willem Van den Heuvel  : Paramagnetic NMR
   Boris Wezisla          : Elementary symmetry handling
   Frank Wennmohs         : Technical directorship


 We gratefully acknowledge several colleagues who have allowed us to
 interface, adapt or use parts of their codes:
   Stefan Grimme, W. Hujo, H. Kruse,             : VdW corrections, initial TS optimization,
                  C. Bannwarth                     DFT functionals, gCP, sTDA/sTD-DF
   Ed Valeev, F. Pavosevic, A. Kumar             : LibInt (2-el integral package), F12 methods
   Garnet Chan, S. Sharma, J. Yang, R. Olivares  : DMRG
   Ulf Ekstrom                                   : XCFun DFT Library
   Mihaly Kallay                                 : mrcc  (arbitrary order and MRCC methods)
   Andreas Klamt, Michael Diedenhofen            : otool_cosmo (COSMO solvation model)
   Jiri Pittner, Ondrej Demel                    : Mk-CCSD
   Frank Weinhold                                : gennbo (NPA and NBO analysis)
   Christopher J. Cramer and Donald G. Truhlar   : smd solvation model
   Lars Goerigk                                  : TD-DFT with DH, B97 family of functionals
   V. Asgeirsson, H. Jonsson                     : NEB implementation
   FAccTs GmbH                                   : IRC, NEB, NEB-TS, Multilevel, MM, QM/MM, CI optimization
   S Lehtola, MJT Oliveira, MAL Marques          : LibXC Library


 Your calculation uses the libint2 library for the computation of 2-el integrals
 For citations please refer to: http://libint.valeyev.net

 Your ORCA version has been built with support for libXC version: 4.2.3
 For citations please refer to: https://tddft.org/programs/libxc/

 This ORCA versions uses:
   CBLAS   interface :  Fast vector & matrix operations
   LAPACKE interface :  Fast linear algebra routines
   SCALAPACK package :  Parallel linear algebra routines


Your calculation utilizes the atom-pairwise dispersion correction
with the Becke-Johnson damping scheme (D3BJ)
Cite in your paper:
S.Grimme, S.Ehrlich, L.Goerigk, J Comput Chem, (2011), 32, 1456–1465 
S.Grimme, J.Antony, S.Ehrlich and H.Krieg, J.Chem.Phys., 132, (2010), 154104 
   

----- Orbital basis set information -----
Your calculation utilizes the basis: def2-TZVPPD
   F. Weigend and R. Ahlrichs, Phys. Chem. Chem. Phys. 7, 3297 (2005).
   D. Rappoport and F. Furche, J. Chem. Phys. 133 134105 (2010).

----- AuxC basis set information -----
Your calculation utilizes the auxiliary basis: def2-TZVPPD/C
   A. Hellweg, C. Hattig, S. Hofener and W. Klopper, Theor. Chem. Acc. 117, 587 (2007).

----- AuxJK basis set information -----
Your calculation utilizes the auxiliary basis: def2/JK
   H-Ba, Hf-Rn: F. Weigend, J. Comput. Chem. 29, 167 (2008).

================================================================================
                                        WARNINGS
                       Please study these warnings very carefully!
================================================================================


WARNING: your system is open-shell and RHF/RKS was chosen
  ===> : WILL SWITCH to UHF/UKS


WARNING: No MP2 level density has been requested!
         To caclulate MP2 level properties use
         %mp2 Density relaxed end
         or
         %mp2 Density unrelaxed end
         Otherwise for double-hybrid DFT only the energy is correct!

WARNING: The frozen-core approximation is turned on by default for 
         the MP2 part of double-hybrid DFT.

INFO   : the flag for use of LIBINT has been found!

================================================================================
                                       INPUT FILE
================================================================================
NAME = Co_atm.in
|  1> #
|  2> # Co_atm ri-B2PLYP-D3BJ/Def2-TZVPPD
|  3> #
|  4> ! rijk ri-b2plyp d3bj def2-tzvppd def2/jk def2-tzvppd/c grid4 nofinalgrid
|  5> 
|  6> *xyz 0 4
|  7> Co         0.00000        0.00000        0.00000
|  8> *
|  9> 
| 10> %maxcore 5000
| 11> 
| 12> %pal
| 13> nprocs = 28
| 14> end
| 15> 
| 16> 
| 17>                          ****END OF INPUT****
================================================================================

                       ****************************
                       * Single Point Calculation *
                       ****************************

---------------------------------
CARTESIAN COORDINATES (ANGSTROEM)
---------------------------------
  Co     0.000000    0.000000    0.000000

----------------------------
CARTESIAN COORDINATES (A.U.)
----------------------------
  NO LB      ZA    FRAG     MASS         X           Y           Z
   0 Co   27.0000    0    58.930    0.000000    0.000000    0.000000

--------------------------------
INTERNAL COORDINATES (ANGSTROEM)
--------------------------------
 Co     0   0   0     0.000000000000     0.00000000     0.00000000

---------------------------
INTERNAL COORDINATES (A.U.)
---------------------------
 Co     0   0   0     0.000000000000     0.00000000     0.00000000

---------------------
BASIS SET INFORMATION
---------------------
There are 1 groups of distinct atoms

 Group   1 Type Co  : 17s13p7d2f1g contracted to 6s6p4d2f1g pattern {842111/631111/4111/11/1}

Atom   0Co   basis set group =>   1
---------------------------------
AUXILIARY/C BASIS SET INFORMATION
---------------------------------
There are 1 groups of distinct atoms

 Group   1 Type Co  : 10s10p9d7f5g3h1i contracted to 10s10p9d7f5g3h1i pattern {1111111111/1111111111/111111111/1111111/11111/111/1}

Atom   0Co   basis set group =>   1
----------------------------------
AUXILIARY/JK BASIS SET INFORMATION
----------------------------------
There are 1 groups of distinct atoms

 Group   1 Type Co  : 19s14p12d10f7g3h1i contracted to 16s13p11d9f5g3h1i pattern {4111111111111111/2111111111111/21111111111/211111111/31111/111/1}

Atom   0Co   basis set group =>   1


           ************************************************************
           *        Program running with 28 parallel MPI-processes    *
           *              working on a common directory               *
           ************************************************************
------------------------------------------------------------------------------
                           ORCA GTO INTEGRAL CALCULATION
                           -- RI-GTO INTEGRALS CHOSEN --
------------------------------------------------------------------------------

                         BASIS SET STATISTICS AND STARTUP INFO

Gaussian basis set:
 # of primitive gaussian shells          ...   40
 # of primitive gaussian functions       ...  114
 # of contracted shells                  ...   19
 # of contracted basis functions         ...   67
 Highest angular momentum                ...    4
 Maximum contraction depth               ...    8
Auxiliary gaussian basis set:
 # of primitive gaussian shells          ...   66
 # of primitive gaussian functions       ...  300
 # of contracted shells                  ...   58
 # of contracted aux-basis functions     ...  264
 Highest angular momentum                ...    6
 Maximum contraction depth               ...    4
Ratio of auxiliary to basis functions    ...  3.94
Integral package used                  ... LIBINT
 One Electron integrals                  ... done
 Ordering auxiliary basis shells         ... done
 Integral threshhold             Thresh  ...  1.000e-10
 Primitive cut-off               TCut    ...  1.000e-11
 Pre-screening matrix                    ... done
 Shell pair data                         ... 
 Ordering of the shell pairs             ... done (   0.000 sec) 190 of 190 pairs
 Determination of significant pairs      ... done (   0.000 sec)
 Creation of shell pair data             ... done (   0.000 sec)
 Storage of shell pair data              ... done (   0.098 sec)
 Shell pair data done in (   0.099 sec)
 Computing two index integrals           ... done
 Cholesky decomposition of the V-matrix  ... done


Timings:
 Total evaluation time                   ...   1.194 sec (  0.020 min)
 One electron matrix time                ...   0.376 sec (  0.006 min) = 31.5%
 Schwartz matrix evaluation time         ...   0.128 sec (  0.002 min) = 10.7%
 Two index repulsion integral time       ...   0.200 sec (  0.003 min) = 16.7%
 Cholesky decomposition of V             ...   0.231 sec (  0.004 min) = 19.3%
 Three index repulsion integral time     ...   0.000 sec (  0.000 min) =  0.0%



           ************************************************************
           *        Program running with 28 parallel MPI-processes    *
           *              working on a common directory               *
           ************************************************************
-------------------------------------------------------------------------------
                                 ORCA SCF
-------------------------------------------------------------------------------

------------
SCF SETTINGS
------------
Hamiltonian:
 Density Functional     Method          .... DFT(GTOs)
 Exchange Functional    Exchange        .... B88
   X-Alpha parameter    XAlpha          ....  0.666667
   Becke's b parameter  XBeta           ....  0.004200
 Correlation Functional Correlation     .... LYP
 LDA part of GGA corr.  LDAOpt          .... VWN-3
 Gradients option       PostSCFGGA      .... off
 Hybrid DFT is turned on
   Fraction HF Exchange ScalHFX         ....  0.530000
   Scaling of DF-GGA-X  ScalDFX         ....  0.470000
   Scaling of DF-GGA-C  ScalDFC         ....  0.730000
   Scaling of DF-LDA-C  ScalLDAC        ....  0.730000
   Perturbative correction              ....  0.270000
   Density functional embedding theory  .... OFF
 RI-approximation to the Coulomb term is turned on
   Number of auxiliary basis functions  .... 264
   RI-JK (J+K treated both via RI)      .... on


General Settings:
 Integral files         IntName         .... Co_atm
 Hartree-Fock type      HFTyp           .... UHF
 Total Charge           Charge          ....    0
 Multiplicity           Mult            ....    4
 Number of Electrons    NEL             ....   27
 Basis Dimension        Dim             ....   67
 Nuclear Repulsion      ENuc            ....      0.0000000000 Eh

Convergence Acceleration:
 DIIS                   CNVDIIS         .... on
   Start iteration      DIISMaxIt       ....    12
   Startup error        DIISStart       ....  0.200000
   # of expansion vecs  DIISMaxEq       ....     5
   Bias factor          DIISBfac        ....   1.050
   Max. coefficient     DIISMaxC        ....  10.000
 Newton-Raphson         CNVNR           .... off
 SOSCF                  CNVSOSCF        .... off
 Level Shifting         CNVShift        .... on
   Level shift para.    LevelShift      ....    0.2500
   Turn off err/grad.   ShiftErr        ....    0.0010
 Zerner damping         CNVZerner       .... off
 Static damping         CNVDamp         .... on
   Fraction old density DampFac         ....    0.7000
   Max. Damping (<1)    DampMax         ....    0.9800
   Min. Damping (>=0)   DampMin         ....    0.0000
   Turn off err/grad.   DampErr         ....    0.1000
 Fernandez-Rico         CNVRico         .... off

SCF Procedure:
 Maximum # iterations   MaxIter         ....   125
 SCF integral mode      SCFMode         .... Direct
   Integral package                     .... LIBINT
 Reset frequency        DirectResetFreq ....    20
 Integral Threshold     Thresh          ....  1.000e-10 Eh
 Primitive CutOff       TCut            ....  1.000e-11 Eh

Convergence Tolerance:
 Convergence Check Mode ConvCheckMode   .... Total+1el-Energy
 Convergence forced     ConvForced      .... 0
 Energy Change          TolE            ....  1.000e-06 Eh
 1-El. energy change                    ....  1.000e-03 Eh
 DIIS Error             TolErr          ....  1.000e-06


Diagonalization of the overlap matrix:
Smallest eigenvalue                        ... 4.316e-02
Time for diagonalization                   ...    0.009 sec
Threshold for overlap eigenvalues          ... 1.000e-08
Number of eigenvalues below threshold      ... 0
Time for construction of square roots      ...    0.272 sec
Total time needed                          ...    0.281 sec

-------------------
DFT GRID GENERATION
-------------------

General Integration Accuracy     IntAcc      ...  4.670
Radial Grid Type                 RadialGrid  ... Gauss-Chebyshev
Angular Grid (max. acc.)         AngularGrid ... Lebedev-302
Angular grid pruning method      GridPruning ... 3 (G Style)
Weight generation scheme         WeightScheme... Becke
Basis function cutoff            BFCut       ...    1.0000e-10
Integration weight cutoff        WCut        ...    1.0000e-14
Grids for H and He will be reduced by one unit

# of grid points (after initial pruning)     ...   9640 (   0.0 sec)
# of grid points (after weights+screening)   ...   9640 (   0.0 sec)
Grid point division into batches done        ...    0.1 sec
Reduced shell lists constructed in    0.1 sec

Total number of grid points                  ...     9640
Total number of batches                      ...      151
Average number of points per batch           ...       63
Average number of grid points per atom       ...     9640
Average number of shells per batch           ...     3.43 (18.05%)
Average number of basis functions per batch  ...    10.29 (15.35%)
Average number of large shells per batch     ...     1.71 (50.00%)
Average number of large basis fcns per batch ...     3.43 (33.33%)
Average number of aux-shells per batch       ...     3.43 ( 5.91%)
Average number of aux functions per batch    ...    10.29 ( 3.90%)
Maximum spatial batch extension              ...  22.27, 22.27, 22.27 au
Average spatial batch extension              ...   0.78,  0.77,  0.74 au

Time for grid setup =    4.636 sec

------------------------------
INITIAL GUESS: MODEL POTENTIAL
------------------------------
Loading Hartree-Fock densities                     ... done
Calculating cut-offs                               ... done
Setting up the integral package                    ... done
Initializing the effective Hamiltonian             ... done
Starting the Coulomb interaction                   ... done (   0.0 sec)
Reading the grid                                   ... done
Mapping shells                                     ... done
Starting the XC term evaluation                    ... done (   0.0 sec)
  promolecular density results
     # of electrons  =     27.000029305
     EX              =    -57.987004990
     EC              =     -0.465255642
     EX+EC           =    -58.452260632
Transforming the Hamiltonian                       ... done (   0.1 sec)
Diagonalizing the Hamiltonian                      ... done (   0.0 sec)
Back transforming the eigenvectors                 ... done (   0.0 sec)
Now organizing SCF variables                       ... done
                      ------------------
                      INITIAL GUESS DONE (   6.6 sec)
                      ------------------
--------------
SCF ITERATIONS
--------------
ITER       Energy         Delta-E        Max-DP      RMS-DP      [F,P]     Damp
  0  -1382.3012345080   0.000000000000 0.03977394  0.00083519  0.1800974 0.7000
  1  -1382.1859401891   0.115294318895 0.04447550  0.00072908  0.1013926 0.7000
                               ***Turning on DIIS***
  2  -1382.2383607653  -0.052420576203 0.11858017  0.00173642  0.0295195 0.0000
  3  -1382.3323530736  -0.093992308299 0.00717300  0.00034027  0.0518836 0.0000
  4  -1382.3349906264  -0.002637552795 0.00754841  0.00021931  0.0183416 0.0000
  5  -1382.3358253181  -0.000834691701 0.01012576  0.00022968  0.0101334 0.0000
  6  -1382.3365900440  -0.000764725832 0.00853342  0.00021527  0.0093265 0.0000
  7  -1382.3373631627  -0.000773118761 0.01371065  0.00032734  0.0083035 0.0000
  8  -1382.3384565213  -0.001093358524 0.01184689  0.00030246  0.0070440 0.0000
  9  -1382.3392728038  -0.000816282526 0.01166736  0.00032545  0.0057049 0.0000
 10  -1382.3399091520  -0.000636348209 0.00411002  0.00011190  0.0042374 0.0000
 11  -1382.3400884968  -0.000179344803 0.01468714  0.00037543  0.0031857 0.0000
 12  -1382.3404169192  -0.000328422405 0.00426364  0.00011338  0.0037390 0.0000
 13  -1382.3404751191  -0.000058199933 0.00261556  0.00006049  0.0019275 0.0000
 14  -1382.3404943242  -0.000019205102 0.00294811  0.00006940  0.0007243 0.0000
 15  -1382.3405021437  -0.000007819425 0.00025880  0.00000837  0.0001558 0.0000
 16  -1382.3405029222  -0.000000778552 0.00020198  0.00000553  0.0001338 0.0000
 17  -1382.3405032172  -0.000000295010 0.00026059  0.00000724  0.0001074 0.0000
 18  -1382.3405035910  -0.000000373806 0.00059336  0.00001504  0.0000897 0.0000
                 **** Energy Check signals convergence ****

               *****************************************************
               *                     SUCCESS                       *
               *           SCF CONVERGED AFTER  19 CYCLES          *
               *****************************************************


----------------
TOTAL SCF ENERGY
----------------

Total Energy       :        -1382.34050411 Eh          -37615.39745 eV

Components:
Nuclear Repulsion  :            0.00000000 Eh               0.00000 eV
Electronic Energy  :        -1382.34050411 Eh          -37615.39745 eV
One Electron Energy:        -1918.49995132 Eh          -52205.03773 eV
Two Electron Energy:          536.15944721 Eh           14589.64028 eV

Virial components:
Potential Energy   :        -2763.14242489 Eh          -75188.92791 eV
Kinetic Energy     :         1380.80192079 Eh           37573.53047 eV
Virial Ratio       :            2.00111427


DFT components:
N(Alpha)           :       15.000000000907 electrons
N(Beta)            :       12.000000001628 electrons
N(Total)           :       27.000000002535 electrons
E(X)               :      -27.397878769409 Eh       
E(C)               :       -0.900214389348 Eh       
E(XC)              :      -28.298093158758 Eh       
DFET-embed. en.    :        0.000000000000 Eh       

---------------
SCF CONVERGENCE
---------------

  Last Energy change         ...   -5.1585e-07  Tolerance :   1.0000e-06
  Last MAX-Density change    ...    5.0360e-04  Tolerance :   1.0000e-05
  Last RMS-Density change    ...    1.3075e-05  Tolerance :   1.0000e-06
  Last DIIS Error            ...    5.8585e-05  Tolerance :   1.0000e-06

             **** THE GBW FILE WAS UPDATED (Co_atm.gbw) ****
             **** DENSITY FILE WAS UPDATED (Co_atm.scfp) ****
             **** ENERGY FILE WAS UPDATED (Co_atm.en.tmp) ****
----------------------
UHF SPIN CONTAMINATION
----------------------

Warning: in a DFT calculation there is little theoretical justification to 
         calculate <S**2> as in Hartree-Fock theory. We will do it anyways
         but you should keep in mind that the values have only limited relevance

Expectation value of <S**2>     :     3.752094
Ideal value S*(S+1) for S=1.5   :     3.750000
Deviation                       :     0.002094

             **** THE GBW FILE WAS UPDATED (Co_atm.gbw) ****
             **** DENSITY FILE WAS UPDATED (Co_atm.scfp) ****
----------------
ORBITAL ENERGIES
----------------
                 SPIN UP ORBITALS
  NO   OCC          E(Eh)            E(eV) 
   0   1.0000    -279.717766     -7611.5074 
   1   1.0000     -33.552646      -913.0139 
   2   1.0000     -29.033310      -790.0365 
   3   1.0000     -29.033251      -790.0349 
   4   1.0000     -29.033175      -790.0329 
   5   1.0000      -3.980990      -108.3282 
   6   1.0000      -2.595100       -70.6163 
   7   1.0000      -2.594979       -70.6130 
   8   1.0000      -2.594809       -70.6083 
   9   1.0000      -0.358695        -9.7606 
  10   1.0000      -0.358677        -9.7601 
  11   1.0000      -0.315764        -8.5924 
  12   1.0000      -0.315697        -8.5906 
  13   1.0000      -0.315651        -8.5893 
  14   1.0000      -0.205677        -5.5968 
  15   0.0000       0.009430         0.2566 
  16   0.0000       0.009440         0.2569 
  17   0.0000       0.009465         0.2576 
  18   0.0000       0.157803         4.2940 
  19   0.0000       0.157815         4.2944 
  20   0.0000       0.157850         4.2953 
  21   0.0000       0.173374         4.7178 
  22   0.0000       0.242223         6.5912 
  23   0.0000       0.242225         6.5913 
  24   0.0000       0.245041         6.6679 
  25   0.0000       0.245045         6.6680 
  26   0.0000       0.245065         6.6686 
  27   0.0000       0.685486        18.6530 
  28   0.0000       0.685501        18.6534 
  29   0.0000       0.685573        18.6554 
  30   0.0000       1.070918        29.1412 
  31   0.0000       1.070923        29.1413 
  32   0.0000       1.085796        29.5460 
  33   0.0000       1.085804        29.5462 
  34   0.0000       1.085855        29.5476 
  35   0.0000       2.839976        77.2797 
  36   0.0000       2.840013        77.2807 
  37   0.0000       2.840020        77.2809 
  38   0.0000       2.856504        77.7294 
  39   0.0000       2.856521        77.7299 
  40   0.0000       2.856634        77.7330 
  41   0.0000       2.859485        77.8105 
  42   0.0000       2.859629        77.8145 
  43   0.0000       2.859655        77.8152 
  44   0.0000       2.875768        78.2536 
  45   0.0000       2.985279        81.2336 
  46   0.0000       4.026878       109.5769 
  47   0.0000       4.026886       109.5771 
  48   0.0000       4.057293       110.4046 
  49   0.0000       4.057327       110.4055 
  50   0.0000       4.057385       110.4071 
  51   0.0000      10.275887       279.6211 
  52   0.0000      10.287169       279.9281 
  53   0.0000      10.287179       279.9284 
  54   0.0000      10.287185       279.9285 
  55   0.0000      10.294903       280.1385 
  56   0.0000      10.294912       280.1388 
  57   0.0000      10.318871       280.7908 
  58   0.0000      10.318910       280.7918 
  59   0.0000      10.318989       280.7940 
  60   0.0000      10.834205       294.8137 
  61   0.0000      10.834282       294.8158 
  62   0.0000      10.834349       294.8176 
  63   0.0000      10.859206       295.4940 
  64   0.0000      10.859347       295.4978 
  65   0.0000      10.859490       295.5017 
  66   0.0000      10.890831       296.3546 

                 SPIN DOWN ORBITALS
  NO   OCC          E(Eh)            E(eV) 
   0   1.0000    -279.715186     -7611.4372 
   1   1.0000     -33.501174      -911.6133 
   2   1.0000     -28.987673      -788.7947 
   3   1.0000     -28.987648      -788.7940 
   4   1.0000     -28.987642      -788.7939 
   5   1.0000      -3.847403      -104.6932 
   6   1.0000      -2.445868       -66.5555 
   7   1.0000      -2.445844       -66.5548 
   8   1.0000      -2.445786       -66.5532 
   9   1.0000      -0.262307        -7.1377 
  10   1.0000      -0.262264        -7.1366 
  11   1.0000      -0.262110        -7.1324 
  12   0.0000      -0.050767        -1.3814 
  13   0.0000       0.028267         0.7692 
  14   0.0000       0.028303         0.7702 
  15   0.0000       0.028317         0.7705 
  16   0.0000       0.145335         3.9548 
  17   0.0000       0.145356         3.9553 
  18   0.0000       0.181864         4.9488 
  19   0.0000       0.181872         4.9490 
  20   0.0000       0.181890         4.9495 
  21   0.0000       0.207205         5.6383 
  22   0.0000       0.255295         6.9469 
  23   0.0000       0.255306         6.9472 
  24   0.0000       0.255319         6.9476 
  25   0.0000       0.312632         8.5072 
  26   0.0000       0.312691         8.5088 
  27   0.0000       0.714521        19.4431 
  28   0.0000       0.714568        19.4444 
  29   0.0000       0.714574        19.4446 
  30   0.0000       1.111284        30.2396 
  31   0.0000       1.111297        30.2399 
  32   0.0000       1.111355        30.2415 
  33   0.0000       1.172111        31.8948 
  34   0.0000       1.172141        31.8956 
  35   0.0000       2.886478        78.5451 
  36   0.0000       2.900147        78.9170 
  37   0.0000       2.900156        78.9173 
  38   0.0000       2.900222        78.9191 
  39   0.0000       2.914931        79.3193 
  40   0.0000       2.914955        79.3200 
  41   0.0000       2.914970        79.3204 
  42   0.0000       2.940629        80.0186 
  43   0.0000       2.940689        80.0202 
  44   0.0000       2.940731        80.0214 
  45   0.0000       3.050380        83.0051 
  46   0.0000       4.090543       111.3093 
  47   0.0000       4.090575       111.3102 
  48   0.0000       4.090669       111.3128 
  49   0.0000       4.160639       113.2168 
  50   0.0000       4.160641       113.2168 
  51   0.0000      10.352103       281.6950 
  52   0.0000      10.352110       281.6952 
  53   0.0000      10.352138       281.6960 
  54   0.0000      10.368528       282.1420 
  55   0.0000      10.368533       282.1421 
  56   0.0000      10.372556       282.2516 
  57   0.0000      10.372591       282.2525 
  58   0.0000      10.372613       282.2531 
  59   0.0000      10.383971       282.5622 
  60   0.0000      10.907831       296.8172 
  61   0.0000      10.948049       297.9116 
  62   0.0000      10.948079       297.9124 
  63   0.0000      10.948085       297.9125 
  64   0.0000      10.984096       298.8925 
  65   0.0000      10.984164       298.8943 
  66   0.0000      10.984229       298.8961 

                    ********************************
                    * MULLIKEN POPULATION ANALYSIS *
                    ********************************

--------------------------------------------
MULLIKEN ATOMIC CHARGES AND SPIN POPULATIONS
--------------------------------------------
   0 Co:   -0.000000    3.000000
Sum of atomic charges         :   -0.0000000
Sum of atomic spin populations:    3.0000000

-----------------------------------------------------
MULLIKEN REDUCED ORBITAL CHARGES AND SPIN POPULATIONS
-----------------------------------------------------
CHARGE
  0 Cos       :     6.999982  s :     6.999982
      pz      :     3.999866  p :    11.999599
      px      :     3.999866
      py      :     3.999867
      dz2     :     1.758186  d :     7.999981
      dxz     :     1.562972
      dyz     :     1.425896
      dx2y2   :     1.975442
      dxy     :     1.277484
      f0      :     0.000011  f :     0.000401
      f+1     :     0.000075
      f-1     :     0.000082
      f+2     :     0.000006
      f-2     :     0.000123
      f+3     :     0.000038
      f-3     :     0.000065
      g0      :     0.000005  g :     0.000037
      g+1     :     0.000002
      g-1     :     0.000001
      g+2     :     0.000002
      g-2     :     0.000014
      g+3     :     0.000003
      g-3     :     0.000002
      g+4     :     0.000007
      g-4     :     0.000002

SPIN
  0 Cos       :     1.000004  s :     1.000004
      pz      :     0.000108  p :     0.000323
      px      :     0.000108
      py      :     0.000108
      dz2     :     0.241810  d :     1.999994
      dxz     :     0.437022
      dyz     :     0.574097
      dx2y2   :     0.024556
      dxy     :     0.722509
      f0      :    -0.000009  f :    -0.000323
      f+1     :    -0.000061
      f-1     :    -0.000066
      f+2     :    -0.000005
      f-2     :    -0.000099
      f+3     :    -0.000031
      f-3     :    -0.000052
      g0      :     0.000002  g :     0.000002
      g+1     :     0.000000
      g-1     :     0.000000
      g+2     :    -0.000000
      g-2     :    -0.000004
      g+3     :     0.000003
      g-3     :     0.000001
      g+4     :    -0.000000
      g-4     :    -0.000000


                     *******************************
                     * LOEWDIN POPULATION ANALYSIS *
                     *******************************

-------------------------------------------
LOEWDIN ATOMIC CHARGES AND SPIN POPULATIONS
-------------------------------------------
   0 Co:   -0.000000    3.000000

----------------------------------------------------
LOEWDIN REDUCED ORBITAL CHARGES AND SPIN POPULATIONS
----------------------------------------------------
CHARGE
  0 Cos       :     6.999982  s :     6.999982
      pz      :     3.999866  p :    11.999599
      px      :     3.999866
      py      :     3.999867
      dz2     :     1.758186  d :     7.999981
      dxz     :     1.562972
      dyz     :     1.425896
      dx2y2   :     1.975442
      dxy     :     1.277484
      f0      :     0.000011  f :     0.000401
      f+1     :     0.000075
      f-1     :     0.000082
      f+2     :     0.000006
      f-2     :     0.000123
      f+3     :     0.000038
      f-3     :     0.000065
      g0      :     0.000005  g :     0.000037
      g+1     :     0.000002
      g-1     :     0.000001
      g+2     :     0.000002
      g-2     :     0.000014
      g+3     :     0.000003
      g-3     :     0.000002
      g+4     :     0.000007
      g-4     :     0.000002

SPIN
  0 Cos       :     1.000004  s :     1.000004
      pz      :     0.000108  p :     0.000323
      px      :     0.000108
      py      :     0.000108
      dz2     :     0.241810  d :     1.999994
      dxz     :     0.437022
      dyz     :     0.574097
      dx2y2   :     0.024556
      dxy     :     0.722509
      f0      :    -0.000009  f :    -0.000323
      f+1     :    -0.000061
      f-1     :    -0.000066
      f+2     :    -0.000005
      f-2     :    -0.000099
      f+3     :    -0.000031
      f-3     :    -0.000052
      g0      :     0.000002  g :     0.000002
      g+1     :     0.000000
      g-1     :     0.000000
      g+2     :    -0.000000
      g-2     :    -0.000004
      g+3     :     0.000003
      g-3     :     0.000001
      g+4     :    -0.000000
      g-4     :    -0.000000


                      *****************************
                      * MAYER POPULATION ANALYSIS *
                      *****************************

  NA   - Mulliken gross atomic population
  ZA   - Total nuclear charge
  QA   - Mulliken gross atomic charge
  VA   - Mayer's total valence
  BVA  - Mayer's bonded valence
  FA   - Mayer's free valence

  ATOM       NA         ZA         QA         VA         BVA        FA
  0 Co    27.0000    27.0000     0.0000     3.0042     0.0000     3.0042

  Mayer bond orders larger than 0.100000


-------
TIMINGS
-------

Total SCF time: 0 days 0 hours 4 min 47 sec 

Total time                  ....     287.641 sec
Sum of individual times     ....     286.034 sec  ( 99.4%)

Fock matrix formation       ....     275.172 sec  ( 95.7%)
  XC integration            ....     260.114 sec  ( 94.5% of F)
    Basis function eval.    ....       0.014 sec  (  0.0% of XC)
    Density eval.           ....       0.021 sec  (  0.0% of XC)
    XC-Functional eval.     ....       0.024 sec  (  0.0% of XC)
    XC-Potential eval.      ....       0.021 sec  (  0.0% of XC)
Diagonalization             ....       3.557 sec  (  1.2%)
Density matrix formation    ....       0.008 sec  (  0.0%)
Population analysis         ....       0.518 sec  (  0.2%)
Initial guess               ....       1.952 sec  (  0.7%)
Orbital Transformation      ....       0.000 sec  (  0.0%)
Orbital Orthonormalization  ....       0.000 sec  (  0.0%)
DIIS solution               ....       0.192 sec  (  0.1%)
Grid generation             ....       4.636 sec  (  1.6%)


           ************************************************************
           *        Program running with 28 parallel MPI-processes    *
           *              working on a common directory               *
           ************************************************************

------------------------------------------------------------------------------
                                ORCA  MP2 
------------------------------------------------------------------------------

Freezing NCore=10 chemical core electrons

-------------
RI-MP2 ENERGY
-------------
Dimension of the basis                    ...   67
Memory devoted to MP2                     ... 5000 MB   
Data format for buffers                   ... DOUBLE
Compression type for matrix containers    ... UNCOMPRESSED
Overall scaling of the MP2 energy         ...   2.700e-01
Calculating two index integrals           ... done (    0.013 sec)
Cholesky decomposition of V**-1           ... done (    0.208 sec)

-----------------
RI-TRANSFORMATION (AUX index driven)
-----------------

Dimension of the orbital-basis         ... 67
Dimension of the aux-basis             ... 225
Transformation of internal/external MOs...    5-  14 to   15-  66
Number Format for Storage              ... Double (8 Byte)
Integral mode                          ... Direct

First Phase: integral generation and transformation of MO indices
  Aux angular momentum 0               ... done (    0.000 sec)
  Aux angular momentum 1               ... done (    0.002 sec)
  Aux angular momentum 2               ... done (    0.001 sec)
  Aux angular momentum 3               ... done (    0.001 sec)
  Aux angular momentum 4               ... done (    0.001 sec)
  Aux angular momentum 5               ... done (    0.002 sec)
  Aux angular momentum 6               ... done (    0.003 sec)
Closing buffer VIA ( 0.00 GB; CompressionRatio= 1.00)
  Phase 1 completed in     1.796 sec
Second Phase: sorting and transformation of aux index

IA-Transformation
Memory available                       ... 5000 MB 
Max. # MO pairs treated in a batch     ... 1    
# of internal orbitals                 ... 10
# batches for internal orbitals        ... 1
Closing buffer IAV ( 0.00 GB; CompressionRatio= 1.00)
(ia|v) transformation done in     0.093 sec

  Phase 2 completed in     2.082 sec
RI-Integral transformation completed in     4.408 sec

-----------------
RI-TRANSFORMATION (AUX index driven)
-----------------

Dimension of the orbital-basis         ... 67
Dimension of the aux-basis             ... 225
Transformation of internal/external MOs...    5-  11 to   12-  66
Number Format for Storage              ... Double (8 Byte)
Integral mode                          ... Direct

First Phase: integral generation and transformation of MO indices
  Aux angular momentum 0               ... done (    0.000 sec)
  Aux angular momentum 1               ... done (    0.002 sec)
  Aux angular momentum 2               ... done (    0.001 sec)
  Aux angular momentum 3               ... done (    0.001 sec)
  Aux angular momentum 4               ... done (    0.001 sec)
  Aux angular momentum 5               ... done (    0.002 sec)
  Aux angular momentum 6               ... done (    0.003 sec)
Closing buffer VIA ( 0.00 GB; CompressionRatio= 1.00)
  Phase 1 completed in     1.010 sec
Second Phase: sorting and transformation of aux index

IA-Transformation
Memory available                       ... 5000 MB 
Max. # MO pairs treated in a batch     ... 1    
# of internal orbitals                 ... 7
# batches for internal orbitals        ... 1
Closing buffer IAV ( 0.00 GB; CompressionRatio= 1.00)
(ia|v) transformation done in     0.052 sec

  Phase 2 completed in     1.413 sec
RI-Integral transformation completed in     2.866 sec
Opening buffers                              ... done

Starting loop over batches of integrals:

Operator 0  - window                       ... (  5- 14)x( 15- 66)
Operator 0  - Memory available             ...  5000 MB
Operator 0  - Memory needed per MO         ...   0.1 MB
Operator 0  - Number of orbitals per batch ... 1
Operator 0  - Number of batches            ... 1

OPERATOR  0   PASS   0:  MOs     5 ...    5 +    6 ...    6 +    7 ...    7 +    8 ...    8
                            +    9 ...    9 +   10 ...   10 +   11 ...   11 +   12 ...   12
                            +   13 ...   13 +   14 ...   14
  Reading integrals       ... ok

Operator 1  - window                       ... (  5- 11)x( 12- 66)
Operator 1  - Memory available             ...  5000 MB
Operator 1  - Memory needed per MO         ...   0.1 MB
Operator 1  - Number of orbitals per batch ... 1
Operator 1  - Number of batches            ... 1

OPERATOR  1   PASS   0:  MOs     5 ...    5 +    6 ...    6 +    7 ...    7 +    8 ...    8
                            +    9 ...    9 +   10 ...   10 +   11 ...   11
  Reading integrals       ... ok
Time spent in pair loops =     0.174 sec
Deleting buffer (Ka|jb)[aa] ...done
Deleting buffer (Ka|jb)[ab] ...done
Deleting buffer (Ka|jb)[ba] ...done
Deleting buffer (Ka|jb)[bb] ...done

Correlation energy components}
 E2 and T2 for alpha/alpha pairs :     -0.047183973 Eh      0.000000000
 E2 and T2 for beta/beta   pairs :     -0.023240296 Eh      0.000000000
 E2 and T2 for alpha/beta  pairs :     -0.137284588 Eh      0.000000000


-----------------------------------------------
 RI-MP2 CORRELATION ENERGY:     -0.207708857 Eh
-----------------------------------------------


-------
TIMINGS
-------

Total time                :    8.527 sec
Integral trafo            :    7.309 sec ( 85.7%)
I/O of integrals          :    0.001 sec (  0.0%)
K(i,j) Operators          :    0.001 sec (  0.0%)
T(i,j) pair energies      :    0.002 sec (  0.0%)
V-calculation             :    0.013 sec (  0.1%)
V**(-1/2)                 :    0.208 sec (  2.4%)
Gamma(ia|P)               :    0.000 sec (  0.0%)
Gamma-Trafo               :    0.000 sec (  0.0%)
D(virtual)                :    0.000 sec (  0.0%)
D(internal)               :    0.000 sec (  0.0%)
W(virtual)                :    0.000 sec (  0.0%)
W(internal)               :    0.000 sec (  0.0%)
L(virtual)                :    0.000 sec (  0.0%)
L(internal)               :    0.000 sec (  0.0%)
G(D)                      :    0.000 sec (  0.0%)
G(Z)                      :    0.000 sec (  0.0%)
Z-Vector Solution         :    0.000 sec (  0.0%)
Z-Vector Solution         :    0.000 sec (  0.0%)
3-Index Derivative 
+ Separable RIJ part      :    0.000 sec (  0.0%)
2-Index Derivative 
+ Separable RIJ part      :    0.000 sec (  0.0%)
Separable Gradient (X)    :    0.000 sec (  0.0%)


---------------------------------------
MP2 TOTAL ENERGY:    -1382.548212964 Eh
---------------------------------------


-------------------------------------------------------------------------------
                          DFT DISPERSION CORRECTION                            
                                                                               
                              DFTD3 V3.1  Rev 1                                
                          USING Becke-Johnson damping                          
-------------------------------------------------------------------------------
The B2PLYP functional is recognized
Active option DFTDOPT                   ...         4   

molecular C6(AA) [au] = 532.775878 


            DFT-D V3
 parameters
 s6 scaling factor         :     0.6400 
 a1 scaling factor         :     0.3065 
 s8 scaling factor         :     0.9147 
 a2 scaling factor         :     5.0570 
 ad hoc parameters k1-k3   :    16.0000     1.3333    -4.0000 

 Edisp/kcal,au: -0.000000000000  -0.000000000000 
 E6   /kcal   :  -0.000000000 
 E8   /kcal   :  -0.000000000 
 % E8         :          -nan 

-------------------------   ----------------
Dispersion correction            0.000000000
-------------------------   ----------------


-------------------------   --------------------
FINAL SINGLE POINT ENERGY     -1382.548212964128
-------------------------   --------------------


                            ***************************************
                            *     ORCA property calculations      *
                            ***************************************


  WARNING: The energy has been calculated at the MP2 level but the densities
           used in the property calculations are still SCF densities
           MP2 response densities have not been calculated 
           use %mp2 Density relaxed end
           or  %mp2 Density unrelaxed end

                                    ---------------------
                                    Active property flags
                                    ---------------------
   (+) Dipole Moment


------------------------------------------------------------------------------
                       ORCA ELECTRIC PROPERTIES CALCULATION
------------------------------------------------------------------------------

Dipole Moment Calculation                       ... on
Quadrupole Moment Calculation                   ... off
Polarizability Calculation                      ... off
GBWName                                         ... Co_atm.gbw
Electron density file                           ... Co_atm.scfp
The origin for moment calculation is the CENTER OF MASS  = ( 0.000000,  0.000000  0.000000)

-------------
DIPOLE MOMENT
-------------
                                X             Y             Z
Electronic contribution:      0.00000       0.00000       0.00000
Nuclear contribution   :      0.00000       0.00000       0.00000
                        -----------------------------------------
Total Dipole Moment    :      0.00000       0.00000       0.00000
                        -----------------------------------------
Magnitude (a.u.)       :      0.00000
Magnitude (Debye)      :      0.00000



--------------------
Rotational spectrum 
--------------------
 
Rotational constants in cm-1:     0.000000     0.000000     0.000000 
Rotational constants in MHz :     0.000000     0.000000     0.000000 

 Dipole components along the rotational axes: 
x,y,z [a.u.] :     0.000000     0.000000     0.000000 
x,y,z [Debye]:     0.000000     0.000000     0.000000 

 

Timings for individual modules:

Sum of individual times         ...      314.410 sec (=   5.240 min)
GTO integral calculation        ...       11.203 sec (=   0.187 min)   3.6 %
SCF iterations                  ...      290.738 sec (=   4.846 min)  92.5 %
MP2 module                      ...       12.469 sec (=   0.208 min)   4.0 %
                             ****ORCA TERMINATED NORMALLY****
TOTAL RUN TIME: 0 days 0 hours 5 minutes 30 seconds 152 msec
