
                                 *****************
                                 * O   R   C   A *
                                 *****************

           --- An Ab Initio, DFT and Semiempirical electronic structure package ---

                  #######################################################
                  #                        -***-                        #
                  #          Department of theory and spectroscopy      #
                  #               Directorship: Frank Neese             #
                  #        Max Planck Institute fuer Kohlenforschung    #
                  #                Kaiser Wilhelm Platz 1               #
                  #                 D-45470 Muelheim/Ruhr               #
                  #                      Germany                        #
                  #                                                     #
                  #                  All rights reserved                #
                  #                        -***-                        #
                  #######################################################


                         Program Version 4.2.0 -  RELEASE  -


 With contributions from (in alphabetic order):
   Daniel Aravena         : Magnetic Suceptibility
   Michael Atanasov       : Ab Initio Ligand Field Theory (pilot matlab implementation)
   Alexander A. Auer      : GIAO ZORA, VPT2
   Ute Becker             : Parallelization
   Giovanni Bistoni       : ED, misc. LED, open-shell LED, HFLED
   Martin Brehm           : Molecular dynamics
   Dmytro Bykov           : SCF Hessian
   Vijay G. Chilkuri      : MRCI spin determinant printing, contributions to CSF-ICE
   Dipayan Datta          : RHF DLPNO-CCSD density
   Achintya Kumar Dutta   : EOM-CC, STEOM-CC
   Dmitry Ganyushin       : Spin-Orbit,Spin-Spin,Magnetic field MRCI
   Miquel Garcia          : C-PCM Hessian, Gaussian charge scheme
   Yang Guo               : DLPNO-NEVPT2, CIM, IAO-localization
   Andreas Hansen         : Spin unrestricted coupled pair/coupled cluster methods
   Benjamin Helmich-Paris : CASSCF linear response (MC-RPA)
   Lee Huntington         : MR-EOM, pCC
   Robert Izsak           : Overlap fitted RIJCOSX, COSX-SCS-MP3, EOM
   Christian Kollmar      : KDIIS, OOCD, Brueckner-CCSD(T), CCSD density
   Simone Kossmann        : Meta GGA functionals, TD-DFT gradient, OOMP2, MP2 Hessian
   Martin Krupicka        : AUTO-CI
   Lucas Lang             : DCDCAS
   Dagmar Lenk            : GEPOL surface, SMD
   Dimitrios Liakos       : Extrapolation schemes; Compound Job, initial MDCI parallelization
   Dimitrios Manganas     : Further ROCIS development; embedding schemes
   Dimitrios Pantazis     : SARC Basis sets
   Taras Petrenko         : DFT Hessian,TD-DFT gradient, ASA, ECA, R-Raman, ABS, FL, XAS/XES, NRVS
   Peter Pinski           : DLPNO-MP2, DLPNO-MP2 Gradient
   Christoph Reimann      : Effective Core Potentials
   Marius Retegan         : Local ZFS, SOC
   Christoph Riplinger    : Optimizer, TS searches, QM/MM, DLPNO-CCSD(T), (RO)-DLPNO pert. Triples
   Tobias Risthaus        : Range-separated hybrids, TD-DFT gradient, RPA, STAB
   Michael Roemelt        : Original ROCIS implementation
   Masaaki Saitow         : Open-shell DLPNO-CCSD energy and density
   Barbara Sandhoefer     : DKH picture change effects
   Avijit Sen             : IP-ROCIS
   Kantharuban Sivalingam : CASSCF convergence, NEVPT2, FIC-MRCI
   Bernardo de Souza      : ESD, SOC TD-DFT
   Georgi Stoychev        : AutoAux, RI-MP2 NMR
   Willem Van den Heuvel  : Paramagnetic NMR
   Boris Wezisla          : Elementary symmetry handling
   Frank Wennmohs         : Technical directorship


 We gratefully acknowledge several colleagues who have allowed us to
 interface, adapt or use parts of their codes:
   Stefan Grimme, W. Hujo, H. Kruse,             : VdW corrections, initial TS optimization,
                  C. Bannwarth                     DFT functionals, gCP, sTDA/sTD-DF
   Ed Valeev, F. Pavosevic, A. Kumar             : LibInt (2-el integral package), F12 methods
   Garnet Chan, S. Sharma, J. Yang, R. Olivares  : DMRG
   Ulf Ekstrom                                   : XCFun DFT Library
   Mihaly Kallay                                 : mrcc  (arbitrary order and MRCC methods)
   Andreas Klamt, Michael Diedenhofen            : otool_cosmo (COSMO solvation model)
   Jiri Pittner, Ondrej Demel                    : Mk-CCSD
   Frank Weinhold                                : gennbo (NPA and NBO analysis)
   Christopher J. Cramer and Donald G. Truhlar   : smd solvation model
   Lars Goerigk                                  : TD-DFT with DH, B97 family of functionals
   V. Asgeirsson, H. Jonsson                     : NEB implementation
   FAccTs GmbH                                   : IRC, NEB, NEB-TS, Multilevel, MM, QM/MM, CI optimization
   S Lehtola, MJT Oliveira, MAL Marques          : LibXC Library


 Your calculation uses the libint2 library for the computation of 2-el integrals
 For citations please refer to: http://libint.valeyev.net

 Your ORCA version has been built with support for libXC version: 4.2.3
 For citations please refer to: https://tddft.org/programs/libxc/

 This ORCA versions uses:
   CBLAS   interface :  Fast vector & matrix operations
   LAPACKE interface :  Fast linear algebra routines
   SCALAPACK package :  Parallel linear algebra routines


Your calculation utilizes the atom-pairwise dispersion correction
with the Becke-Johnson damping scheme (D3BJ)
Cite in your paper:
S.Grimme, S.Ehrlich, L.Goerigk, J Comput Chem, (2011), 32, 1456–1465 
S.Grimme, J.Antony, S.Ehrlich and H.Krieg, J.Chem.Phys., 132, (2010), 154104 
   

----- Orbital basis set information -----
Your calculation utilizes the basis: def2-TZVPPD
   F. Weigend and R. Ahlrichs, Phys. Chem. Chem. Phys. 7, 3297 (2005).
   D. Rappoport and F. Furche, J. Chem. Phys. 133 134105 (2010).

----- AuxC basis set information -----
Your calculation utilizes the auxiliary basis: def2-TZVPPD/C
   A. Hellweg, C. Hattig, S. Hofener and W. Klopper, Theor. Chem. Acc. 117, 587 (2007).

----- AuxJK basis set information -----
Your calculation utilizes the auxiliary basis: def2/JK
   H-Ba, Hf-Rn: F. Weigend, J. Comput. Chem. 29, 167 (2008).

================================================================================
                                        WARNINGS
                       Please study these warnings very carefully!
================================================================================


WARNING: your system is open-shell and RHF/RKS was chosen
  ===> : WILL SWITCH to UHF/UKS


WARNING: No MP2 level density has been requested!
         To caclulate MP2 level properties use
         %mp2 Density relaxed end
         or
         %mp2 Density unrelaxed end
         Otherwise for double-hybrid DFT only the energy is correct!

WARNING: The frozen-core approximation is turned on by default for 
         the MP2 part of double-hybrid DFT.

INFO   : the flag for use of LIBINT has been found!

================================================================================
                                       INPUT FILE
================================================================================
NAME = CoH.in
|  1> #
|  2> # CoH ri-B2PLYP-D3BJ/Def2-TZVPPD
|  3> #
|  4> ! rijk ri-b2plyp d3bj def2-tzvppd def2/jk def2-tzvppd/c grid4 nofinalgrid
|  5> 
|  6> *xyz 0 3
|  7> Co         0.00000        0.00000        0.00000
|  8> H          0.00000        0.00000        1.53100
|  9> *
| 10> 
| 11> %maxcore 5000
| 12> 
| 13> %pal
| 14> nprocs = 28
| 15> end
| 16> 
| 17> 
| 18>                          ****END OF INPUT****
================================================================================

                       ****************************
                       * Single Point Calculation *
                       ****************************

---------------------------------
CARTESIAN COORDINATES (ANGSTROEM)
---------------------------------
  Co     0.000000    0.000000    0.000000
  H      0.000000    0.000000    1.531000

----------------------------
CARTESIAN COORDINATES (A.U.)
----------------------------
  NO LB      ZA    FRAG     MASS         X           Y           Z
   0 Co   27.0000    0    58.930    0.000000    0.000000    0.000000
   1 H     1.0000    0     1.008    0.000000    0.000000    2.893171

--------------------------------
INTERNAL COORDINATES (ANGSTROEM)
--------------------------------
 Co     0   0   0     0.000000000000     0.00000000     0.00000000
 H      1   0   0     1.531000000000     0.00000000     0.00000000

---------------------------
INTERNAL COORDINATES (A.U.)
---------------------------
 Co     0   0   0     0.000000000000     0.00000000     0.00000000
 H      1   0   0     2.893170711033     0.00000000     0.00000000

---------------------
BASIS SET INFORMATION
---------------------
There are 2 groups of distinct atoms

 Group   1 Type Co  : 17s13p7d2f1g contracted to 6s6p4d2f1g pattern {842111/631111/4111/11/1}
 Group   2 Type H   : 5s3p1d contracted to 3s3p1d pattern {311/111/1}

Atom   0Co   basis set group =>   1
Atom   1H    basis set group =>   2
---------------------------------
AUXILIARY/C BASIS SET INFORMATION
---------------------------------
There are 2 groups of distinct atoms

 Group   1 Type Co  : 10s10p9d7f5g3h1i contracted to 10s10p9d7f5g3h1i pattern {1111111111/1111111111/111111111/1111111/11111/111/1}
 Group   2 Type H   : 5s4p3d1f contracted to 5s4p3d1f pattern {11111/1111/111/1}

Atom   0Co   basis set group =>   1
Atom   1H    basis set group =>   2
----------------------------------
AUXILIARY/JK BASIS SET INFORMATION
----------------------------------
There are 2 groups of distinct atoms

 Group   1 Type Co  : 19s14p12d10f7g3h1i contracted to 16s13p11d9f5g3h1i pattern {4111111111111111/2111111111111/21111111111/211111111/31111/111/1}
 Group   2 Type H   : 4s2p2d contracted to 2s2p2d pattern {31/11/11}

Atom   0Co   basis set group =>   1
Atom   1H    basis set group =>   2


           ************************************************************
           *        Program running with 28 parallel MPI-processes    *
           *              working on a common directory               *
           ************************************************************
------------------------------------------------------------------------------
                           ORCA GTO INTEGRAL CALCULATION
                           -- RI-GTO INTEGRALS CHOSEN --
------------------------------------------------------------------------------

                         BASIS SET STATISTICS AND STARTUP INFO

Gaussian basis set:
 # of primitive gaussian shells          ...   49
 # of primitive gaussian functions       ...  133
 # of contracted shells                  ...   26
 # of contracted basis functions         ...   84
 Highest angular momentum                ...    4
 Maximum contraction depth               ...    8
Auxiliary gaussian basis set:
 # of primitive gaussian shells          ...   74
 # of primitive gaussian functions       ...  320
 # of contracted shells                  ...   64
 # of contracted aux-basis functions     ...  282
 Highest angular momentum                ...    6
 Maximum contraction depth               ...    4
Ratio of auxiliary to basis functions    ...  3.36
Integral package used                  ... LIBINT
 One Electron integrals                  ... done
 Ordering auxiliary basis shells         ... done
 Integral threshhold             Thresh  ...  1.000e-10
 Primitive cut-off               TCut    ...  1.000e-11
 Pre-screening matrix                    ... done
 Shell pair data                         ... 
 Ordering of the shell pairs             ... done (   0.000 sec) 351 of 351 pairs
 Determination of significant pairs      ... done (   0.000 sec)
 Creation of shell pair data             ... done (   0.000 sec)
 Storage of shell pair data              ... done (   0.036 sec)
 Shell pair data done in (   0.037 sec)
 Computing two index integrals           ... done
 Cholesky decomposition of the V-matrix  ... done


Timings:
 Total evaluation time                   ...   0.558 sec (  0.009 min)
 One electron matrix time                ...   0.104 sec (  0.002 min) = 18.6%
 Schwartz matrix evaluation time         ...   0.126 sec (  0.002 min) = 22.5%
 Two index repulsion integral time       ...   0.095 sec (  0.002 min) = 17.1%
 Cholesky decomposition of V             ...   0.132 sec (  0.002 min) = 23.7%
 Three index repulsion integral time     ...   0.000 sec (  0.000 min) =  0.0%



           ************************************************************
           *        Program running with 28 parallel MPI-processes    *
           *              working on a common directory               *
           ************************************************************
-------------------------------------------------------------------------------
                                 ORCA SCF
-------------------------------------------------------------------------------

------------
SCF SETTINGS
------------
Hamiltonian:
 Density Functional     Method          .... DFT(GTOs)
 Exchange Functional    Exchange        .... B88
   X-Alpha parameter    XAlpha          ....  0.666667
   Becke's b parameter  XBeta           ....  0.004200
 Correlation Functional Correlation     .... LYP
 LDA part of GGA corr.  LDAOpt          .... VWN-3
 Gradients option       PostSCFGGA      .... off
 Hybrid DFT is turned on
   Fraction HF Exchange ScalHFX         ....  0.530000
   Scaling of DF-GGA-X  ScalDFX         ....  0.470000
   Scaling of DF-GGA-C  ScalDFC         ....  0.730000
   Scaling of DF-LDA-C  ScalLDAC        ....  0.730000
   Perturbative correction              ....  0.270000
   Density functional embedding theory  .... OFF
 RI-approximation to the Coulomb term is turned on
   Number of auxiliary basis functions  .... 282
   RI-JK (J+K treated both via RI)      .... on


General Settings:
 Integral files         IntName         .... CoH
 Hartree-Fock type      HFTyp           .... UHF
 Total Charge           Charge          ....    0
 Multiplicity           Mult            ....    3
 Number of Electrons    NEL             ....   28
 Basis Dimension        Dim             ....   84
 Nuclear Repulsion      ENuc            ....      9.3323217662 Eh

Convergence Acceleration:
 DIIS                   CNVDIIS         .... on
   Start iteration      DIISMaxIt       ....    12
   Startup error        DIISStart       ....  0.200000
   # of expansion vecs  DIISMaxEq       ....     5
   Bias factor          DIISBfac        ....   1.050
   Max. coefficient     DIISMaxC        ....  10.000
 Newton-Raphson         CNVNR           .... off
 SOSCF                  CNVSOSCF        .... off
 Level Shifting         CNVShift        .... on
   Level shift para.    LevelShift      ....    0.2500
   Turn off err/grad.   ShiftErr        ....    0.0010
 Zerner damping         CNVZerner       .... off
 Static damping         CNVDamp         .... on
   Fraction old density DampFac         ....    0.7000
   Max. Damping (<1)    DampMax         ....    0.9800
   Min. Damping (>=0)   DampMin         ....    0.0000
   Turn off err/grad.   DampErr         ....    0.1000
 Fernandez-Rico         CNVRico         .... off

SCF Procedure:
 Maximum # iterations   MaxIter         ....   125
 SCF integral mode      SCFMode         .... Direct
   Integral package                     .... LIBINT
 Reset frequency        DirectResetFreq ....    20
 Integral Threshold     Thresh          ....  1.000e-10 Eh
 Primitive CutOff       TCut            ....  1.000e-11 Eh

Convergence Tolerance:
 Convergence Check Mode ConvCheckMode   .... Total+1el-Energy
 Convergence forced     ConvForced      .... 0
 Energy Change          TolE            ....  1.000e-06 Eh
 1-El. energy change                    ....  1.000e-03 Eh
 DIIS Error             TolErr          ....  1.000e-06


Diagonalization of the overlap matrix:
Smallest eigenvalue                        ... 3.034e-03
Time for diagonalization                   ...    0.006 sec
Threshold for overlap eigenvalues          ... 1.000e-08
Number of eigenvalues below threshold      ... 0
Time for construction of square roots      ...    0.096 sec
Total time needed                          ...    0.103 sec

-------------------
DFT GRID GENERATION
-------------------

General Integration Accuracy     IntAcc      ...  4.670
Radial Grid Type                 RadialGrid  ... Gauss-Chebyshev
Angular Grid (max. acc.)         AngularGrid ... Lebedev-302
Angular grid pruning method      GridPruning ... 3 (G Style)
Weight generation scheme         WeightScheme... Becke
Basis function cutoff            BFCut       ...    1.0000e-10
Integration weight cutoff        WCut        ...    1.0000e-14
Grids for H and He will be reduced by one unit

# of grid points (after initial pruning)     ...  13034 (   0.0 sec)
# of grid points (after weights+screening)   ...  12998 (   0.0 sec)
nearest neighbour list constructed           ...    0.0 sec
Grid point re-assignment to atoms done       ...    0.0 sec
Grid point division into batches done        ...    0.1 sec
Reduced shell lists constructed in    0.1 sec

Total number of grid points                  ...    12998
Total number of batches                      ...      204
Average number of points per batch           ...       63
Average number of grid points per atom       ...     6499
Average number of shells per batch           ...     5.22 (20.09%)
Average number of basis functions per batch  ...    13.89 (16.53%)
Average number of large shells per batch     ...     2.44 (46.81%)
Average number of large basis fcns per batch ...     6.22 (44.80%)
Average number of aux-shells per batch       ...     5.22 ( 8.16%)
Average number of aux functions per batch    ...    13.89 ( 4.93%)
Maximum spatial batch extension              ...  31.41, 28.57, 18.66 au
Average spatial batch extension              ...   0.94,  0.82,  0.62 au

Time for grid setup =    2.414 sec

------------------------------
INITIAL GUESS: MODEL POTENTIAL
------------------------------
Loading Hartree-Fock densities                     ... done
Calculating cut-offs                               ... done
Setting up the integral package                    ... done
Initializing the effective Hamiltonian             ... done
Starting the Coulomb interaction                   ... done (   0.0 sec)
Reading the grid                                   ... done
Mapping shells                                     ... done
Starting the XC term evaluation                    ... done (   0.0 sec)
  promolecular density results
     # of electrons  =     27.999537490
     EX              =    -58.293990362
     EC              =     -0.472252575
     EX+EC           =    -58.766242938
Transforming the Hamiltonian                       ... done (   0.0 sec)
Diagonalizing the Hamiltonian                      ... done (   0.0 sec)
Back transforming the eigenvectors                 ... done (   0.0 sec)
Now organizing SCF variables                       ... done
                      ------------------
                      INITIAL GUESS DONE (   3.7 sec)
                      ------------------
--------------
SCF ITERATIONS
--------------
ITER       Energy         Delta-E        Max-DP      RMS-DP      [F,P]     Damp
  0  -1382.8249178796   0.000000000000 0.03059573  0.00092560  0.2134536 0.7000
  1  -1382.6609365614   0.163981318260 0.02153802  0.00068762  0.1055474 0.7000
                               ***Turning on DIIS***
  2  -1382.7483111475  -0.087374586128 0.03963518  0.00133550  0.0804900 0.0000
  3  -1382.9049485320  -0.156637384526 0.01648814  0.00058274  0.0559768 0.0000
  4  -1382.9101728586  -0.005224326608 0.00695676  0.00028471  0.0453800 0.0000
  5  -1382.9127407031  -0.002567844459 0.00549245  0.00015516  0.0094486 0.0000
  6  -1382.9133962930  -0.000655589896 0.00358041  0.00009932  0.0055208 0.0000
  7  -1382.9136731789  -0.000276885866 0.00365763  0.00008507  0.0035175 0.0000
  8  -1382.9138187854  -0.000145606502 0.00224399  0.00005177  0.0018839 0.0000
  9  -1382.9138711224  -0.000052336985 0.00151262  0.00003450  0.0010065 0.0000
 10  -1382.9138924997  -0.000021377303 0.00160581  0.00004157  0.0005344 0.0000
 11  -1382.9139055967  -0.000013097025 0.00045160  0.00001118  0.0002358 0.0000
 12  -1382.9139067298  -0.000001133084 0.00026100  0.00000582  0.0002517 0.0000
 13  -1382.9139069652  -0.000000235458 0.00006927  0.00000163  0.0000474 0.0000
                 **** Energy Check signals convergence ****

               *****************************************************
               *                     SUCCESS                       *
               *           SCF CONVERGED AFTER  14 CYCLES          *
               *****************************************************


----------------
TOTAL SCF ENERGY
----------------

Total Energy       :        -1382.91390699 Eh          -37631.00053 eV

Components:
Nuclear Repulsion  :            9.33232177 Eh             253.94539 eV
Electronic Energy  :        -1392.24622876 Eh          -37884.94592 eV
One Electron Energy:        -1937.52978720 Eh          -52722.86589 eV
Two Electron Energy:          545.28355845 Eh           14837.91997 eV

Virial components:
Potential Energy   :        -2764.30005165 Eh          -75220.42854 eV
Kinetic Energy     :         1381.38614466 Eh           37589.42801 eV
Virial Ratio       :            2.00110596


DFT components:
N(Alpha)           :       14.999999202881 electrons
N(Beta)            :       12.999999756049 electrons
N(Total)           :       27.999998958930 electrons
E(X)               :      -27.547360378830 Eh       
E(C)               :       -0.925635592250 Eh       
E(XC)              :      -28.472995971080 Eh       
DFET-embed. en.    :        0.000000000000 Eh       

---------------
SCF CONVERGENCE
---------------

  Last Energy change         ...   -2.4251e-08  Tolerance :   1.0000e-06
  Last MAX-Density change    ...    2.6759e-05  Tolerance :   1.0000e-05
  Last RMS-Density change    ...    5.9841e-07  Tolerance :   1.0000e-06
  Last DIIS Error            ...    1.1987e-05  Tolerance :   1.0000e-06

             **** THE GBW FILE WAS UPDATED (CoH.gbw) ****
             **** DENSITY FILE WAS UPDATED (CoH.scfp) ****
             **** ENERGY FILE WAS UPDATED (CoH.en.tmp) ****
----------------------
UHF SPIN CONTAMINATION
----------------------

Warning: in a DFT calculation there is little theoretical justification to 
         calculate <S**2> as in Hartree-Fock theory. We will do it anyways
         but you should keep in mind that the values have only limited relevance

Expectation value of <S**2>     :     2.038137
Ideal value S*(S+1) for S=1.0   :     2.000000
Deviation                       :     0.038137

             **** THE GBW FILE WAS UPDATED (CoH.gbw) ****
             **** DENSITY FILE WAS UPDATED (CoH.scfp) ****
----------------
ORBITAL ENERGIES
----------------
                 SPIN UP ORBITALS
  NO   OCC          E(Eh)            E(eV) 
   0   1.0000    -279.726602     -7611.7478 
   1   1.0000     -33.563879      -913.3196 
   2   1.0000     -29.044943      -790.3531 
   3   1.0000     -29.044943      -790.3531 
   4   1.0000     -29.043712      -790.3196 
   5   1.0000      -3.987079      -108.4939 
   6   1.0000      -2.601515       -70.7908 
   7   1.0000      -2.600699       -70.7686 
   8   1.0000      -2.600699       -70.7686 
   9   1.0000      -0.377306       -10.2670 
  10   1.0000      -0.364679        -9.9234 
  11   1.0000      -0.323929        -8.8146 
  12   1.0000      -0.323929        -8.8146 
  13   1.0000      -0.321509        -8.7487 
  14   1.0000      -0.262148        -7.1334 
  15   0.0000      -0.034842        -0.9481 
  16   0.0000       0.016286         0.4432 
  17   0.0000       0.016286         0.4432 
  18   0.0000       0.096631         2.6295 
  19   0.0000       0.109558         2.9812 
  20   0.0000       0.160247         4.3605 
  21   0.0000       0.160247         4.3605 
  22   0.0000       0.197785         5.3820 
  23   0.0000       0.227629         6.1941 
  24   0.0000       0.227629         6.1941 
  25   0.0000       0.246278         6.7016 
  26   0.0000       0.248585         6.7643 
  27   0.0000       0.342545         9.3211 
  28   0.0000       0.346838         9.4379 
  29   0.0000       0.346838         9.4379 
  30   0.0000       0.456842        12.4313 
  31   0.0000       0.538780        14.6610 
  32   0.0000       0.685974        18.6663 
  33   0.0000       0.685974        18.6663 
  34   0.0000       0.731118        19.8947 
  35   0.0000       0.940577        25.5944 
  36   0.0000       0.940577        25.5944 
  37   0.0000       1.071795        29.1650 
  38   0.0000       1.086210        29.5573 
  39   0.0000       1.187191        32.3051 
  40   0.0000       1.247077        33.9347 
  41   0.0000       1.247077        33.9347 
  42   0.0000       1.384504        37.6743 
  43   0.0000       2.589220        70.4563 
  44   0.0000       2.736104        74.4532 
  45   0.0000       2.736104        74.4532 
  46   0.0000       2.781651        75.6926 
  47   0.0000       2.824687        76.8636 
  48   0.0000       2.839683        77.2717 
  49   0.0000       2.843439        77.3739 
  50   0.0000       2.843439        77.3739 
  51   0.0000       2.862605        77.8954 
  52   0.0000       2.862605        77.8954 
  53   0.0000       3.120214        84.9053 
  54   0.0000       3.325964        90.5041 
  55   0.0000       3.433125        93.4201 
  56   0.0000       3.434624        93.4609 
  57   0.0000       3.849583       104.7525 
  58   0.0000       3.849583       104.7525 
  59   0.0000       3.891285       105.8872 
  60   0.0000       4.024778       109.5198 
  61   0.0000       4.055151       110.3463 
  62   0.0000       4.100372       111.5768 
  63   0.0000       4.100372       111.5768 
  64   0.0000       4.133215       112.4705 
  65   0.0000       4.133215       112.4705 
  66   0.0000       4.309098       117.2565 
  67   0.0000       5.233059       142.3988 
  68   0.0000      10.278754       279.6991 
  69   0.0000      10.280463       279.7456 
  70   0.0000      10.289773       279.9990 
  71   0.0000      10.298689       280.2416 
  72   0.0000      10.298689       280.2416 
  73   0.0000      10.313883       280.6550 
  74   0.0000      10.320077       280.8236 
  75   0.0000      10.320077       280.8236 
  76   0.0000      10.337075       281.2861 
  77   0.0000      10.836194       294.8678 
  78   0.0000      10.836194       294.8678 
  79   0.0000      10.853196       295.3305 
  80   0.0000      10.884860       296.1921 
  81   0.0000      10.952061       298.0207 
  82   0.0000      10.952061       298.0207 
  83   0.0000      11.232097       305.6409 

                 SPIN DOWN ORBITALS
  NO   OCC          E(Eh)            E(eV) 
   0   1.0000    -279.725286     -7611.7120 
   1   1.0000     -33.515697      -912.0085 
   2   1.0000     -29.002994      -789.2116 
   3   1.0000     -29.000413      -789.1414 
   4   1.0000     -29.000413      -789.1414 
   5   1.0000      -3.862673      -105.1087 
   6   1.0000      -2.461494       -66.9807 
   7   1.0000      -2.458907       -66.9103 
   8   1.0000      -2.458907       -66.9103 
   9   1.0000      -0.320938        -8.7332 
  10   1.0000      -0.273889        -7.4529 
  11   1.0000      -0.272706        -7.4207 
  12   1.0000      -0.272706        -7.4207 
  13   0.0000      -0.039315        -1.0698 
  14   0.0000       0.023578         0.6416 
  15   0.0000       0.023578         0.6416 
  16   0.0000       0.062272         1.6945 
  17   0.0000       0.115915         3.1542 
  18   0.0000       0.137979         3.7546 
  19   0.0000       0.144598         3.9347 
  20   0.0000       0.171740         4.6733 
  21   0.0000       0.171740         4.6733 
  22   0.0000       0.229013         6.2318 
  23   0.0000       0.229013         6.2318 
  24   0.0000       0.237119         6.4523 
  25   0.0000       0.253414         6.8957 
  26   0.0000       0.306863         8.3502 
  27   0.0000       0.348566         9.4850 
  28   0.0000       0.348566         9.4850 
  29   0.0000       0.368448        10.0260 
  30   0.0000       0.466902        12.7051 
  31   0.0000       0.539367        14.6769 
  32   0.0000       0.705505        19.1978 
  33   0.0000       0.705505        19.1978 
  34   0.0000       0.743860        20.2415 
  35   0.0000       0.938372        25.5344 
  36   0.0000       0.938372        25.5344 
  37   0.0000       1.104409        30.0525 
  38   0.0000       1.165545        31.7161 
  39   0.0000       1.239817        33.7371 
  40   0.0000       1.255856        34.1736 
  41   0.0000       1.255856        34.1736 
  42   0.0000       1.396693        38.0060 
  43   0.0000       2.614054        71.1320 
  44   0.0000       2.769701        75.3674 
  45   0.0000       2.769701        75.3674 
  46   0.0000       2.775343        75.5209 
  47   0.0000       2.844084        77.3915 
  48   0.0000       2.870786        78.1181 
  49   0.0000       2.906312        79.0848 
  50   0.0000       2.906312        79.0848 
  51   0.0000       2.929705        79.7213 
  52   0.0000       2.929705        79.7213 
  53   0.0000       3.161096        86.0178 
  54   0.0000       3.379387        91.9578 
  55   0.0000       3.421343        93.0995 
  56   0.0000       3.423826        93.1670 
  57   0.0000       3.847873       104.7060 
  58   0.0000       3.847873       104.7060 
  59   0.0000       3.983080       108.3851 
  60   0.0000       4.084497       111.1448 
  61   0.0000       4.111030       111.8668 
  62   0.0000       4.111030       111.8668 
  63   0.0000       4.138150       112.6048 
  64   0.0000       4.138150       112.6048 
  65   0.0000       4.154580       113.0519 
  66   0.0000       4.307107       117.2023 
  67   0.0000       5.264585       143.2566 
  68   0.0000      10.344435       281.4864 
  69   0.0000      10.346500       281.5426 
  70   0.0000      10.346500       281.5426 
  71   0.0000      10.360839       281.9328 
  72   0.0000      10.363813       282.0137 
  73   0.0000      10.365236       282.0524 
  74   0.0000      10.385241       282.5968 
  75   0.0000      10.385241       282.5968 
  76   0.0000      10.424410       283.6626 
  77   0.0000      10.902096       296.6611 
  78   0.0000      10.942614       297.7637 
  79   0.0000      10.953738       298.0664 
  80   0.0000      10.953738       298.0664 
  81   0.0000      11.057231       300.8826 
  82   0.0000      11.057231       300.8826 
  83   0.0000      11.364158       309.2344 

                    ********************************
                    * MULLIKEN POPULATION ANALYSIS *
                    ********************************

--------------------------------------------
MULLIKEN ATOMIC CHARGES AND SPIN POPULATIONS
--------------------------------------------
   0 Co:    0.147882    2.161312
   1 H :   -0.147882   -0.161312
Sum of atomic charges         :   -0.0000000
Sum of atomic spin populations:    2.0000000

-----------------------------------------------------
MULLIKEN REDUCED ORBITAL CHARGES AND SPIN POPULATIONS
-----------------------------------------------------
CHARGE
  0 Cos       :     6.748712  s :     6.748712
      pz      :     4.099070  p :    12.101811
      px      :     4.001371
      py      :     4.001371
      dz2     :     1.008501  d :     8.000587
      dxz     :     1.996091
      dyz     :     1.996091
      dx2y2   :     1.999933
      dxy     :     0.999971
      f0      :     0.000536  f :     0.000971
      f+1     :     0.000095
      f-1     :     0.000095
      f+2     :     0.000052
      f-2     :     0.000025
      f+3     :     0.000084
      f-3     :     0.000084
      g0      :     0.000014  g :     0.000036
      g+1     :     0.000000
      g-1     :     0.000000
      g+2     :     0.000002
      g-2     :     0.000004
      g+3     :     0.000002
      g-3     :     0.000002
      g+4     :     0.000011
      g-4     :     0.000000
  1 H s       :     1.150013  s :     1.150013
      pz      :    -0.007382  p :    -0.003307
      px      :     0.002037
      py      :     0.002037
      dz2     :     0.000526  d :     0.001176
      dxz     :     0.000319
      dyz     :     0.000319
      dx2y2   :     0.000013
      dxy     :     0.000000

SPIN
  0 Cos       :     0.294445  s :     0.294445
      pz      :    -0.014813  p :    -0.015104
      px      :    -0.000146
      py      :    -0.000146
      dz2     :     0.880212  d :     1.882292
      dxz     :     0.001049
      dyz     :     0.001049
      dx2y2   :     0.000011
      dxy     :     0.999971
      f0      :    -0.000135  f :    -0.000325
      f+1     :    -0.000039
      f-1     :    -0.000039
      f+2     :    -0.000001
      f-2     :     0.000025
      f+3     :    -0.000068
      f-3     :    -0.000068
      g0      :     0.000001  g :     0.000005
      g+1     :     0.000000
      g-1     :     0.000000
      g+2     :    -0.000000
      g-2     :     0.000004
      g+3     :    -0.000000
      g-3     :    -0.000000
      g+4     :    -0.000000
      g-4     :    -0.000000
  1 H s       :    -0.158701  s :    -0.158701
      pz      :    -0.001348  p :    -0.002888
      px      :    -0.000770
      py      :    -0.000770
      dz2     :     0.000339  d :     0.000277
      dxz     :    -0.000027
      dyz     :    -0.000027
      dx2y2   :    -0.000009
      dxy     :     0.000000


                     *******************************
                     * LOEWDIN POPULATION ANALYSIS *
                     *******************************

-------------------------------------------
LOEWDIN ATOMIC CHARGES AND SPIN POPULATIONS
-------------------------------------------
   0 Co:    0.239680    2.047855
   1 H :   -0.239680   -0.047855

----------------------------------------------------
LOEWDIN REDUCED ORBITAL CHARGES AND SPIN POPULATIONS
----------------------------------------------------
CHARGE
  0 Cos       :     6.630445  s :     6.630445
      pz      :     4.140941  p :    12.143821
      px      :     4.001440
      py      :     4.001440
      dz2     :     1.037572  d :     7.984082
      dxz     :     1.973499
      dyz     :     1.973499
      dx2y2   :     1.999657
      dxy     :     0.999856
      f0      :     0.001281  f :     0.001932
      f+1     :     0.000201
      f-1     :     0.000201
      f+2     :     0.000054
      f-2     :     0.000026
      f+3     :     0.000084
      f-3     :     0.000084
      g0      :     0.000017  g :     0.000040
      g+1     :     0.000000
      g-1     :     0.000000
      g+2     :     0.000002
      g-2     :     0.000004
      g+3     :     0.000002
      g-3     :     0.000002
      g+4     :     0.000011
      g-4     :     0.000000
  1 H s       :     1.108264  s :     1.108264
      pz      :     0.075031  p :     0.116038
      px      :     0.020503
      py      :     0.020503
      dz2     :     0.006437  d :     0.015377
      dxz     :     0.004270
      dyz     :     0.004270
      dx2y2   :     0.000287
      dxy     :     0.000114

SPIN
  0 Cos       :     0.226704  s :     0.226704
      pz      :    -0.040152  p :    -0.041050
      px      :    -0.000449
      py      :    -0.000449
      dz2     :     0.857001  d :     1.862757
      dxz     :     0.002937
      dyz     :     0.002937
      dx2y2   :     0.000024
      dxy     :     0.999856
      f0      :    -0.000357  f :    -0.000555
      f+1     :    -0.000044
      f-1     :    -0.000044
      f+2     :    -0.000001
      f-2     :     0.000026
      f+3     :    -0.000068
      f-3     :    -0.000068
      g0      :    -0.000004  g :    -0.000002
      g+1     :    -0.000000
      g-1     :    -0.000000
      g+2     :    -0.000000
      g-2     :     0.000004
      g+3     :    -0.000000
      g-3     :    -0.000000
      g+4     :    -0.000000
      g-4     :    -0.000000
  1 H s       :    -0.067290  s :    -0.067290
      pz      :     0.021739  p :     0.017272
      px      :    -0.002234
      py      :    -0.002234
      dz2     :     0.002359  d :     0.002164
      dxz     :    -0.000143
      dyz     :    -0.000143
      dx2y2   :    -0.000023
      dxy     :     0.000114


                      *****************************
                      * MAYER POPULATION ANALYSIS *
                      *****************************

  NA   - Mulliken gross atomic population
  ZA   - Total nuclear charge
  QA   - Mulliken gross atomic charge
  VA   - Mayer's total valence
  BVA  - Mayer's bonded valence
  FA   - Mayer's free valence

  ATOM       NA         ZA         QA         VA         BVA        FA
  0 Co    26.8521    27.0000     0.1479     2.9715     0.9432     2.0283
  1 H      1.1479     1.0000    -0.1479     0.9706     0.9432     0.0274

  Mayer bond orders larger than 0.100000
B(  0-Co,  1-H ) :   0.9432 

-------
TIMINGS
-------

Total SCF time: 0 days 0 hours 4 min 46 sec 

Total time                  ....     286.854 sec
Sum of individual times     ....     285.553 sec  ( 99.5%)

Fock matrix formation       ....     276.910 sec  ( 96.5%)
  XC integration            ....     267.673 sec  ( 96.7% of F)
    Basis function eval.    ....       0.017 sec  (  0.0% of XC)
    Density eval.           ....       0.018 sec  (  0.0% of XC)
    XC-Functional eval.     ....       0.021 sec  (  0.0% of XC)
    XC-Potential eval.      ....       0.033 sec  (  0.0% of XC)
Diagonalization             ....       3.946 sec  (  1.4%)
Density matrix formation    ....       0.008 sec  (  0.0%)
Population analysis         ....       0.868 sec  (  0.3%)
Initial guess               ....       1.280 sec  (  0.4%)
Orbital Transformation      ....       0.000 sec  (  0.0%)
Orbital Orthonormalization  ....       0.000 sec  (  0.0%)
DIIS solution               ....       0.127 sec  (  0.0%)
Grid generation             ....       2.414 sec  (  0.8%)


           ************************************************************
           *        Program running with 28 parallel MPI-processes    *
           *              working on a common directory               *
           ************************************************************

------------------------------------------------------------------------------
                                ORCA  MP2 
------------------------------------------------------------------------------

Freezing NCore=10 chemical core electrons

-------------
RI-MP2 ENERGY
-------------
Dimension of the basis                    ...   84
Memory devoted to MP2                     ... 5000 MB   
Data format for buffers                   ... DOUBLE
Compression type for matrix containers    ... UNCOMPRESSED
Overall scaling of the MP2 energy         ...   2.700e-01
Calculating two index integrals           ... done (    0.013 sec)
Cholesky decomposition of V**-1           ... done (    0.164 sec)

-----------------
RI-TRANSFORMATION (AUX index driven)
-----------------

Dimension of the orbital-basis         ... 84
Dimension of the aux-basis             ... 264
Transformation of internal/external MOs...    5-  14 to   15-  83
Number Format for Storage              ... Double (8 Byte)
Integral mode                          ... Direct

First Phase: integral generation and transformation of MO indices
  Aux angular momentum 0               ... done (    0.001 sec)
  Aux angular momentum 1               ... done (    0.002 sec)
  Aux angular momentum 2               ... done (    0.001 sec)
  Aux angular momentum 3               ... done (    0.001 sec)
  Aux angular momentum 4               ... done (    0.002 sec)
  Aux angular momentum 5               ... done (    0.003 sec)
  Aux angular momentum 6               ... done (    0.004 sec)
Closing buffer VIA ( 0.00 GB; CompressionRatio= 1.00)
  Phase 1 completed in     4.085 sec
Second Phase: sorting and transformation of aux index

IA-Transformation
Memory available                       ... 4999 MB 
Max. # MO pairs treated in a batch     ... 1    
# of internal orbitals                 ... 10
# batches for internal orbitals        ... 1
Closing buffer IAV ( 0.00 GB; CompressionRatio= 1.00)
(ia|v) transformation done in     1.598 sec

  Phase 2 completed in     4.270 sec
RI-Integral transformation completed in     9.520 sec

-----------------
RI-TRANSFORMATION (AUX index driven)
-----------------

Dimension of the orbital-basis         ... 84
Dimension of the aux-basis             ... 264
Transformation of internal/external MOs...    5-  12 to   13-  83
Number Format for Storage              ... Double (8 Byte)
Integral mode                          ... Direct

First Phase: integral generation and transformation of MO indices
  Aux angular momentum 0               ... done (    0.000 sec)
  Aux angular momentum 1               ... done (    0.002 sec)
  Aux angular momentum 2               ... done (    0.001 sec)
  Aux angular momentum 3               ... done (    0.001 sec)
  Aux angular momentum 4               ... done (    0.002 sec)
  Aux angular momentum 5               ... done (    0.003 sec)
  Aux angular momentum 6               ... done (    0.004 sec)
Closing buffer VIA ( 0.00 GB; CompressionRatio= 1.00)
  Phase 1 completed in     5.249 sec
Second Phase: sorting and transformation of aux index

IA-Transformation
Memory available                       ... 4999 MB 
Max. # MO pairs treated in a batch     ... 1    
# of internal orbitals                 ... 8
# batches for internal orbitals        ... 1
Closing buffer IAV ( 0.00 GB; CompressionRatio= 1.00)
(ia|v) transformation done in     0.077 sec

  Phase 2 completed in     3.257 sec
RI-Integral transformation completed in     9.322 sec
Opening buffers                              ... done

Starting loop over batches of integrals:

Operator 0  - window                       ... (  5- 14)x( 15- 83)
Operator 0  - Memory available             ...  5000 MB
Operator 0  - Memory needed per MO         ...   0.1 MB
Operator 0  - Number of orbitals per batch ... 1
Operator 0  - Number of batches            ... 1

OPERATOR  0   PASS   0:  MOs     5 ...    5 +    6 ...    6 +    7 ...    7 +    8 ...    8
                            +    9 ...    9 +   10 ...   10 +   11 ...   11 +   12 ...   12
                            +   13 ...   13 +   14 ...   14
  Reading integrals       ... ok

Operator 1  - window                       ... (  5- 12)x( 13- 83)
Operator 1  - Memory available             ...  5000 MB
Operator 1  - Memory needed per MO         ...   0.1 MB
Operator 1  - Number of orbitals per batch ... 1
Operator 1  - Number of batches            ... 1

OPERATOR  1   PASS   0:  MOs     5 ...    5 +    6 ...    6 +    7 ...    7 +    8 ...    8
                            +    9 ...    9 +   10 ...   10 +   11 ...   11 +   12 ...   12
  Reading integrals       ... ok
Time spent in pair loops =     0.120 sec
Deleting buffer (Ka|jb)[aa] ...done
Deleting buffer (Ka|jb)[ab] ...done
Deleting buffer (Ka|jb)[ba] ...done
Deleting buffer (Ka|jb)[bb] ...done

Correlation energy components}
 E2 and T2 for alpha/alpha pairs :     -0.047946750 Eh      0.000000000
 E2 and T2 for beta/beta   pairs :     -0.026246697 Eh      0.000000000
 E2 and T2 for alpha/beta  pairs :     -0.151187460 Eh      0.000000000


-----------------------------------------------
 RI-MP2 CORRELATION ENERGY:     -0.225380907 Eh
-----------------------------------------------


-------
TIMINGS
-------

Total time                :   22.968 sec
Integral trafo            :   18.875 sec ( 82.2%)
I/O of integrals          :    0.001 sec (  0.0%)
K(i,j) Operators          :    0.002 sec (  0.0%)
T(i,j) pair energies      :    0.000 sec (  0.0%)
V-calculation             :    0.013 sec (  0.1%)
V**(-1/2)                 :    0.164 sec (  0.7%)
Gamma(ia|P)               :    0.000 sec (  0.0%)
Gamma-Trafo               :    0.000 sec (  0.0%)
D(virtual)                :    0.000 sec (  0.0%)
D(internal)               :    0.000 sec (  0.0%)
W(virtual)                :    0.000 sec (  0.0%)
W(internal)               :    0.000 sec (  0.0%)
L(virtual)                :    0.000 sec (  0.0%)
L(internal)               :    0.000 sec (  0.0%)
G(D)                      :    0.000 sec (  0.0%)
G(Z)                      :    0.000 sec (  0.0%)
Z-Vector Solution         :    0.000 sec (  0.0%)
Z-Vector Solution         :    0.000 sec (  0.0%)
3-Index Derivative 
+ Separable RIJ part      :    0.000 sec (  0.0%)
2-Index Derivative 
+ Separable RIJ part      :    0.000 sec (  0.0%)
Separable Gradient (X)    :    0.000 sec (  0.0%)


---------------------------------------
MP2 TOTAL ENERGY:    -1383.139287897 Eh
---------------------------------------


-------------------------------------------------------------------------------
                          DFT DISPERSION CORRECTION                            
                                                                               
                              DFTD3 V3.1  Rev 1                                
                          USING Becke-Johnson damping                          
-------------------------------------------------------------------------------
The B2PLYP functional is recognized
Active option DFTDOPT                   ...         4   

molecular C6(AA) [au] = 329.498670 


            DFT-D V3
 parameters
 s6 scaling factor         :     0.6400 
 a1 scaling factor         :     0.3065 
 s8 scaling factor         :     0.9147 
 a2 scaling factor         :     5.0570 
 ad hoc parameters k1-k3   :    16.0000     1.3333    -4.0000 

 Edisp/kcal,au: -0.224712657852  -0.000358102376 
 E6   /kcal   :  -0.111772593 
 E8   /kcal   :  -0.112940064 
 % E8         :  50.259769746 

-------------------------   ----------------
Dispersion correction           -0.000358102
-------------------------   ----------------


-------------------------   --------------------
FINAL SINGLE POINT ENERGY     -1383.139645999299
-------------------------   --------------------


                            ***************************************
                            *     ORCA property calculations      *
                            ***************************************


  WARNING: The energy has been calculated at the MP2 level but the densities
           used in the property calculations are still SCF densities
           MP2 response densities have not been calculated 
           use %mp2 Density relaxed end
           or  %mp2 Density unrelaxed end

                                    ---------------------
                                    Active property flags
                                    ---------------------
   (+) Dipole Moment


------------------------------------------------------------------------------
                       ORCA ELECTRIC PROPERTIES CALCULATION
------------------------------------------------------------------------------

Dipole Moment Calculation                       ... on
Quadrupole Moment Calculation                   ... off
Polarizability Calculation                      ... off
GBWName                                         ... CoH.gbw
Electron density file                           ... CoH.scfp
The origin for moment calculation is the CENTER OF MASS  = ( 0.000000,  0.000000  0.048656)

-------------
DIPOLE MOMENT
-------------
                                X             Y             Z
Electronic contribution:      0.00000      -0.00000      -2.90679
Nuclear contribution   :      0.00000       0.00000       1.53082
                        -----------------------------------------
Total Dipole Moment    :      0.00000      -0.00000      -1.37598
                        -----------------------------------------
Magnitude (a.u.)       :      1.37598
Magnitude (Debye)      :      3.49746



--------------------
Rotational spectrum 
--------------------
 
Rotational constants in cm-1:     0.000000     7.256911     7.256911 
Rotational constants in MHz :     0.000000 217556.717096 217556.717096 

 Dipole components along the rotational axes: 
x,y,z [a.u.] :    -1.375979    -0.000000     0.000000 
x,y,z [Debye]:    -3.497460    -0.000000     0.000000 

 

Timings for individual modules:

Sum of individual times         ...      325.443 sec (=   5.424 min)
GTO integral calculation        ...        8.701 sec (=   0.145 min)   2.7 %
SCF iterations                  ...      289.807 sec (=   4.830 min)  89.1 %
MP2 module                      ...       26.935 sec (=   0.449 min)   8.3 %
                             ****ORCA TERMINATED NORMALLY****
TOTAL RUN TIME: 0 days 0 hours 6 minutes 28 seconds 999 msec
