
                                 *****************
                                 * O   R   C   A *
                                 *****************

           --- An Ab Initio, DFT and Semiempirical electronic structure package ---

                  #######################################################
                  #                        -***-                        #
                  #          Department of theory and spectroscopy      #
                  #               Directorship: Frank Neese             #
                  #        Max Planck Institute fuer Kohlenforschung    #
                  #                Kaiser Wilhelm Platz 1               #
                  #                 D-45470 Muelheim/Ruhr               #
                  #                      Germany                        #
                  #                                                     #
                  #                  All rights reserved                #
                  #                        -***-                        #
                  #######################################################


                         Program Version 4.2.0 -  RELEASE  -


 With contributions from (in alphabetic order):
   Daniel Aravena         : Magnetic Suceptibility
   Michael Atanasov       : Ab Initio Ligand Field Theory (pilot matlab implementation)
   Alexander A. Auer      : GIAO ZORA, VPT2
   Ute Becker             : Parallelization
   Giovanni Bistoni       : ED, misc. LED, open-shell LED, HFLED
   Martin Brehm           : Molecular dynamics
   Dmytro Bykov           : SCF Hessian
   Vijay G. Chilkuri      : MRCI spin determinant printing, contributions to CSF-ICE
   Dipayan Datta          : RHF DLPNO-CCSD density
   Achintya Kumar Dutta   : EOM-CC, STEOM-CC
   Dmitry Ganyushin       : Spin-Orbit,Spin-Spin,Magnetic field MRCI
   Miquel Garcia          : C-PCM Hessian, Gaussian charge scheme
   Yang Guo               : DLPNO-NEVPT2, CIM, IAO-localization
   Andreas Hansen         : Spin unrestricted coupled pair/coupled cluster methods
   Benjamin Helmich-Paris : CASSCF linear response (MC-RPA)
   Lee Huntington         : MR-EOM, pCC
   Robert Izsak           : Overlap fitted RIJCOSX, COSX-SCS-MP3, EOM
   Christian Kollmar      : KDIIS, OOCD, Brueckner-CCSD(T), CCSD density
   Simone Kossmann        : Meta GGA functionals, TD-DFT gradient, OOMP2, MP2 Hessian
   Martin Krupicka        : AUTO-CI
   Lucas Lang             : DCDCAS
   Dagmar Lenk            : GEPOL surface, SMD
   Dimitrios Liakos       : Extrapolation schemes; Compound Job, initial MDCI parallelization
   Dimitrios Manganas     : Further ROCIS development; embedding schemes
   Dimitrios Pantazis     : SARC Basis sets
   Taras Petrenko         : DFT Hessian,TD-DFT gradient, ASA, ECA, R-Raman, ABS, FL, XAS/XES, NRVS
   Peter Pinski           : DLPNO-MP2, DLPNO-MP2 Gradient
   Christoph Reimann      : Effective Core Potentials
   Marius Retegan         : Local ZFS, SOC
   Christoph Riplinger    : Optimizer, TS searches, QM/MM, DLPNO-CCSD(T), (RO)-DLPNO pert. Triples
   Tobias Risthaus        : Range-separated hybrids, TD-DFT gradient, RPA, STAB
   Michael Roemelt        : Original ROCIS implementation
   Masaaki Saitow         : Open-shell DLPNO-CCSD energy and density
   Barbara Sandhoefer     : DKH picture change effects
   Avijit Sen             : IP-ROCIS
   Kantharuban Sivalingam : CASSCF convergence, NEVPT2, FIC-MRCI
   Bernardo de Souza      : ESD, SOC TD-DFT
   Georgi Stoychev        : AutoAux, RI-MP2 NMR
   Willem Van den Heuvel  : Paramagnetic NMR
   Boris Wezisla          : Elementary symmetry handling
   Frank Wennmohs         : Technical directorship


 We gratefully acknowledge several colleagues who have allowed us to
 interface, adapt or use parts of their codes:
   Stefan Grimme, W. Hujo, H. Kruse,             : VdW corrections, initial TS optimization,
                  C. Bannwarth                     DFT functionals, gCP, sTDA/sTD-DF
   Ed Valeev, F. Pavosevic, A. Kumar             : LibInt (2-el integral package), F12 methods
   Garnet Chan, S. Sharma, J. Yang, R. Olivares  : DMRG
   Ulf Ekstrom                                   : XCFun DFT Library
   Mihaly Kallay                                 : mrcc  (arbitrary order and MRCC methods)
   Andreas Klamt, Michael Diedenhofen            : otool_cosmo (COSMO solvation model)
   Jiri Pittner, Ondrej Demel                    : Mk-CCSD
   Frank Weinhold                                : gennbo (NPA and NBO analysis)
   Christopher J. Cramer and Donald G. Truhlar   : smd solvation model
   Lars Goerigk                                  : TD-DFT with DH, B97 family of functionals
   V. Asgeirsson, H. Jonsson                     : NEB implementation
   FAccTs GmbH                                   : IRC, NEB, NEB-TS, Multilevel, MM, QM/MM, CI optimization
   S Lehtola, MJT Oliveira, MAL Marques          : LibXC Library


 Your calculation uses the libint2 library for the computation of 2-el integrals
 For citations please refer to: http://libint.valeyev.net

 Your ORCA version has been built with support for libXC version: 4.2.3
 For citations please refer to: https://tddft.org/programs/libxc/

 This ORCA versions uses:
   CBLAS   interface :  Fast vector & matrix operations
   LAPACKE interface :  Fast linear algebra routines
   SCALAPACK package :  Parallel linear algebra routines


Your calculation utilizes the atom-pairwise dispersion correction
with the Becke-Johnson damping scheme (D3BJ)
Cite in your paper:
S.Grimme, S.Ehrlich, L.Goerigk, J Comput Chem, (2011), 32, 1456–1465 
S.Grimme, J.Antony, S.Ehrlich and H.Krieg, J.Chem.Phys., 132, (2010), 154104 
   

----- Orbital basis set information -----
Your calculation utilizes the basis: def2-TZVPPD
   F. Weigend and R. Ahlrichs, Phys. Chem. Chem. Phys. 7, 3297 (2005).
   D. Rappoport and F. Furche, J. Chem. Phys. 133 134105 (2010).

----- AuxC basis set information -----
Your calculation utilizes the auxiliary basis: def2-TZVPPD/C
   A. Hellweg, C. Hattig, S. Hofener and W. Klopper, Theor. Chem. Acc. 117, 587 (2007).

----- AuxJK basis set information -----
Your calculation utilizes the auxiliary basis: def2/JK
   H-Ba, Hf-Rn: F. Weigend, J. Comput. Chem. 29, 167 (2008).

================================================================================
                                        WARNINGS
                       Please study these warnings very carefully!
================================================================================


WARNING: your system is open-shell and RHF/RKS was chosen
  ===> : WILL SWITCH to UHF/UKS


WARNING: No MP2 level density has been requested!
         To caclulate MP2 level properties use
         %mp2 Density relaxed end
         or
         %mp2 Density unrelaxed end
         Otherwise for double-hybrid DFT only the energy is correct!

WARNING: The frozen-core approximation is turned on by default for 
         the MP2 part of double-hybrid DFT.

INFO   : the flag for use of LIBINT has been found!

================================================================================
                                       INPUT FILE
================================================================================
NAME = CrCH3+.in
|  1> #
|  2> # CrCH3+ ri-B2PLYP-D3BJ/Def2-TZVPPD
|  3> #
|  4> ! rijk ri-b2plyp d3bj def2-tzvppd def2/jk def2-tzvppd/c grid4 nofinalgrid
|  5> 
|  6> *xyz 1 5
|  7> C          0.00000        0.00000        0.00000
|  8> H          0.00000        0.00000        1.10000
|  9> H          1.03709        0.00000       -0.36667
| 10> H         -0.51855        0.89815       -0.36667
| 11> Cr        -0.89567       -1.55134       -0.63333
| 12> *
| 13> 
| 14> %maxcore 5000
| 15> 
| 16> %pal
| 17> nprocs = 28
| 18> end
| 19> 
| 20> 
| 21>                          ****END OF INPUT****
================================================================================

                       ****************************
                       * Single Point Calculation *
                       ****************************

---------------------------------
CARTESIAN COORDINATES (ANGSTROEM)
---------------------------------
  C      0.000000    0.000000    0.000000
  H      0.000000    0.000000    1.100000
  H      1.037090    0.000000   -0.366670
  H     -0.518550    0.898150   -0.366670
  Cr    -0.895670   -1.551340   -0.633330

----------------------------
CARTESIAN COORDINATES (A.U.)
----------------------------
  NO LB      ZA    FRAG     MASS         X           Y           Z
   0 C     6.0000    0    12.011    0.000000    0.000000    0.000000
   1 H     1.0000    0     1.008    0.000000    0.000000    2.078699
   2 H     1.0000    0     1.008    1.959816    0.000000   -0.692906
   3 H     1.0000    0     1.008   -0.979917    1.697258   -0.692906
   4 Cr   24.0000    0    52.000   -1.692571   -2.931608   -1.196820

--------------------------------
INTERNAL COORDINATES (ANGSTROEM)
--------------------------------
 C      0   0   0     0.000000000000     0.00000000     0.00000000
 H      1   0   0     1.100000000000     0.00000000     0.00000000
 H      1   2   0     1.100001162272   109.47138339     0.00000000
 H      1   2   3     1.100006551753   109.47128414   239.99986337
 Cr     1   2   3     1.899996692997   109.47114928   120.00009510

---------------------------
INTERNAL COORDINATES (A.U.)
---------------------------
 C      0   0   0     0.000000000000     0.00000000     0.00000000
 H      1   0   0     2.078698747313     0.00000000     0.00000000
 H      1   2   0     2.078700943689   109.47138339     0.00000000
 H      1   2   3     2.078711128333   109.47128414   239.99986337
 Cr     1   2   3     3.590473405121   109.47114928   120.00009510

---------------------
BASIS SET INFORMATION
---------------------
There are 3 groups of distinct atoms

 Group   1 Type C   : 12s6p3d1f contracted to 6s3p3d1f pattern {621111/411/111/1}
 Group   2 Type H   : 5s3p1d contracted to 3s3p1d pattern {311/111/1}
 Group   3 Type Cr  : 17s13p7d2f1g contracted to 6s6p4d2f1g pattern {842111/631111/4111/11/1}

Atom   0C    basis set group =>   1
Atom   1H    basis set group =>   2
Atom   2H    basis set group =>   2
Atom   3H    basis set group =>   2
Atom   4Cr   basis set group =>   3
---------------------------------
AUXILIARY/C BASIS SET INFORMATION
---------------------------------
There are 3 groups of distinct atoms

 Group   1 Type C   : 9s7p6d4f1g contracted to 9s7p5d4f1g pattern {111111111/1111111/21111/1111/1}
 Group   2 Type H   : 5s4p3d1f contracted to 5s4p3d1f pattern {11111/1111/111/1}
 Group   3 Type Cr  : 10s10p9d7f5g3h1i contracted to 10s10p9d7f5g3h1i pattern {1111111111/1111111111/111111111/1111111/11111/111/1}

Atom   0C    basis set group =>   1
Atom   1H    basis set group =>   2
Atom   2H    basis set group =>   2
Atom   3H    basis set group =>   2
Atom   4Cr   basis set group =>   3
----------------------------------
AUXILIARY/JK BASIS SET INFORMATION
----------------------------------
There are 3 groups of distinct atoms

 Group   1 Type C   : 14s10p6d2f1g contracted to 10s8p5d1f1g pattern {5111111111/31111111/21111/2/1}
 Group   2 Type H   : 4s2p2d contracted to 2s2p2d pattern {31/11/11}
 Group   3 Type Cr  : 19s14p12d10f7g3h1i contracted to 16s13p11d9f5g3h1i pattern {4111111111111111/2111111111111/21111111111/211111111/31111/111/1}

Atom   0C    basis set group =>   1
Atom   1H    basis set group =>   2
Atom   2H    basis set group =>   2
Atom   3H    basis set group =>   2
Atom   4Cr   basis set group =>   3


           ************************************************************
           *        Program running with 28 parallel MPI-processes    *
           *              working on a common directory               *
           ************************************************************
------------------------------------------------------------------------------
                           ORCA GTO INTEGRAL CALCULATION
                           -- RI-GTO INTEGRALS CHOSEN --
------------------------------------------------------------------------------

                         BASIS SET STATISTICS AND STARTUP INFO

Gaussian basis set:
 # of primitive gaussian shells          ...   89
 # of primitive gaussian functions       ...  223
 # of contracted shells                  ...   53
 # of contracted basis functions         ...  155
 Highest angular momentum                ...    4
 Maximum contraction depth               ...    8
Auxiliary gaussian basis set:
 # of primitive gaussian shells          ...  123
 # of primitive gaussian functions       ...  457
 # of contracted shells                  ...  101
 # of contracted aux-basis functions     ...  393
 Highest angular momentum                ...    6
 Maximum contraction depth               ...    5
Ratio of auxiliary to basis functions    ...  2.54
Integral package used                  ... LIBINT
 One Electron integrals                  ... done
 Ordering auxiliary basis shells         ... done
 Integral threshhold             Thresh  ...  1.000e-10
 Primitive cut-off               TCut    ...  1.000e-11
 Pre-screening matrix                    ... done
 Shell pair data                         ... 
 Ordering of the shell pairs             ... done (   0.000 sec) 1424 of 1431 pairs
 Determination of significant pairs      ... done (   0.000 sec)
 Creation of shell pair data             ... done (   0.000 sec)
 Storage of shell pair data              ... done (   0.147 sec)
 Shell pair data done in (   0.148 sec)
 Computing two index integrals           ... done
 Cholesky decomposition of the V-matrix  ... done


Timings:
 Total evaluation time                   ...   1.007 sec (  0.017 min)
 One electron matrix time                ...   0.325 sec (  0.005 min) = 32.3%
 Schwartz matrix evaluation time         ...   0.146 sec (  0.002 min) = 14.5%
 Two index repulsion integral time       ...   0.173 sec (  0.003 min) = 17.2%
 Cholesky decomposition of V             ...   0.110 sec (  0.002 min) = 10.9%
 Three index repulsion integral time     ...   0.000 sec (  0.000 min) =  0.0%



           ************************************************************
           *        Program running with 28 parallel MPI-processes    *
           *              working on a common directory               *
           ************************************************************
-------------------------------------------------------------------------------
                                 ORCA SCF
-------------------------------------------------------------------------------

------------
SCF SETTINGS
------------
Hamiltonian:
 Density Functional     Method          .... DFT(GTOs)
 Exchange Functional    Exchange        .... B88
   X-Alpha parameter    XAlpha          ....  0.666667
   Becke's b parameter  XBeta           ....  0.004200
 Correlation Functional Correlation     .... LYP
 LDA part of GGA corr.  LDAOpt          .... VWN-3
 Gradients option       PostSCFGGA      .... off
 Hybrid DFT is turned on
   Fraction HF Exchange ScalHFX         ....  0.530000
   Scaling of DF-GGA-X  ScalDFX         ....  0.470000
   Scaling of DF-GGA-C  ScalDFC         ....  0.730000
   Scaling of DF-LDA-C  ScalLDAC        ....  0.730000
   Perturbative correction              ....  0.270000
   Density functional embedding theory  .... OFF
 RI-approximation to the Coulomb term is turned on
   Number of auxiliary basis functions  .... 393
   RI-JK (J+K treated both via RI)      .... on


General Settings:
 Integral files         IntName         .... CrCH3+
 Hartree-Fock type      HFTyp           .... UHF
 Total Charge           Charge          ....    1
 Multiplicity           Mult            ....    5
 Number of Electrons    NEL             ....   32
 Basis Dimension        Dim             ....  155
 Nuclear Repulsion      ENuc            ....     64.9343749420 Eh

Convergence Acceleration:
 DIIS                   CNVDIIS         .... on
   Start iteration      DIISMaxIt       ....    12
   Startup error        DIISStart       ....  0.200000
   # of expansion vecs  DIISMaxEq       ....     5
   Bias factor          DIISBfac        ....   1.050
   Max. coefficient     DIISMaxC        ....  10.000
 Newton-Raphson         CNVNR           .... off
 SOSCF                  CNVSOSCF        .... off
 Level Shifting         CNVShift        .... on
   Level shift para.    LevelShift      ....    0.2500
   Turn off err/grad.   ShiftErr        ....    0.0010
 Zerner damping         CNVZerner       .... off
 Static damping         CNVDamp         .... on
   Fraction old density DampFac         ....    0.7000
   Max. Damping (<1)    DampMax         ....    0.9800
   Min. Damping (>=0)   DampMin         ....    0.0000
   Turn off err/grad.   DampErr         ....    0.1000
 Fernandez-Rico         CNVRico         .... off

SCF Procedure:
 Maximum # iterations   MaxIter         ....   125
 SCF integral mode      SCFMode         .... Direct
   Integral package                     .... LIBINT
 Reset frequency        DirectResetFreq ....    20
 Integral Threshold     Thresh          ....  1.000e-10 Eh
 Primitive CutOff       TCut            ....  1.000e-11 Eh

Convergence Tolerance:
 Convergence Check Mode ConvCheckMode   .... Total+1el-Energy
 Convergence forced     ConvForced      .... 0
 Energy Change          TolE            ....  1.000e-06 Eh
 1-El. energy change                    ....  1.000e-03 Eh
 DIIS Error             TolErr          ....  1.000e-06


Diagonalization of the overlap matrix:
Smallest eigenvalue                        ... 3.767e-05
Time for diagonalization                   ...    0.015 sec
Threshold for overlap eigenvalues          ... 1.000e-08
Number of eigenvalues below threshold      ... 0
Time for construction of square roots      ...    0.331 sec
Total time needed                          ...    0.346 sec

-------------------
DFT GRID GENERATION
-------------------

General Integration Accuracy     IntAcc      ...  4.670
Radial Grid Type                 RadialGrid  ... Gauss-Chebyshev
Angular Grid (max. acc.)         AngularGrid ... Lebedev-302
Angular grid pruning method      GridPruning ... 3 (G Style)
Weight generation scheme         WeightScheme... Becke
Basis function cutoff            BFCut       ...    1.0000e-10
Integration weight cutoff        WCut        ...    1.0000e-14
Grids for H and He will be reduced by one unit

# of grid points (after initial pruning)     ...  26058 (   0.0 sec)
# of grid points (after weights+screening)   ...  25443 (   0.0 sec)
nearest neighbour list constructed           ...    0.0 sec
Grid point re-assignment to atoms done       ...    0.0 sec
Grid point division into batches done        ...    0.1 sec
Reduced shell lists constructed in    0.2 sec

Total number of grid points                  ...    25443
Total number of batches                      ...      402
Average number of points per batch           ...       63
Average number of grid points per atom       ...     5089
Average number of shells per batch           ...    47.00 (88.68%)
Average number of basis functions per batch  ...   140.12 (90.40%)
Average number of large shells per batch     ...    44.88 (95.48%)
Average number of large basis fcns per batch ...   134.12 (95.72%)
Average number of aux-shells per batch       ...    47.00 (46.53%)
Average number of aux functions per batch    ...   140.12 (35.66%)
Maximum spatial batch extension              ...   1.69,  1.76,  1.53 au
Average spatial batch extension              ...   0.05,  0.05,  0.04 au

Time for grid setup =    6.690 sec

------------------------------
INITIAL GUESS: MODEL POTENTIAL
------------------------------
Loading Hartree-Fock densities                     ... done
Calculating cut-offs                               ... done
Setting up the integral package                    ... done
Initializing the effective Hamiltonian             ... done
Starting the Coulomb interaction                   ... done (   0.0 sec)
Reading the grid                                   ... done
Mapping shells                                     ... done
Starting the XC term evaluation                    ... done (   0.0 sec)
  promolecular density results
     # of electrons  =     32.998539096
     EX              =    -53.462392731
     EC              =     -0.479149355
     EX+EC           =    -53.941542086
Transforming the Hamiltonian                       ... done (   0.1 sec)
Diagonalizing the Hamiltonian                      ... done (   0.0 sec)
Back transforming the eigenvectors                 ... done (   0.0 sec)
Now organizing SCF variables                       ... done
                      ------------------
                      INITIAL GUESS DONE (   7.1 sec)
                      ------------------
--------------
SCF ITERATIONS
--------------
ITER       Energy         Delta-E        Max-DP      RMS-DP      [F,P]     Damp
  0  -1083.4803526285   0.000000000000 0.02846781  0.00074102  0.2795145 0.7000
  1  -1083.5815419503  -0.101189321789 0.03027257  0.00072003  0.2047627 0.7000
                               ***Turning on DIIS***
  2  -1083.5987996272  -0.017257676831 0.06114337  0.00142762  0.0775072 0.0000
  3  -1083.5857430004   0.013056626794 0.00948708  0.00018639  0.1695250 0.7000
  4  -1083.5985020354  -0.012759035079 0.01062277  0.00019419  0.1547052 0.7000
  5  -1083.6206471390  -0.022145103585 0.01050963  0.00018505  0.1265778 0.7000
  6  -1083.6429260676  -0.022278928550 0.03073599  0.00054899  0.0999351 0.0000
  7  -1083.6739888037  -0.031062736167 0.00564736  0.00015050  0.0174621 0.0000
  8  -1083.6755806198  -0.001591816041 0.00278695  0.00008223  0.0118151 0.0000
  9  -1083.6762554078  -0.000674788032 0.00205575  0.00006447  0.0040426 0.0000
 10  -1083.6765549682  -0.000299560414 0.00161481  0.00005069  0.0030383 0.0000
 11  -1083.6767211922  -0.000166223972 0.00097001  0.00003119  0.0010172 0.0000
 12  -1083.6767914506  -0.000070258413 0.00103734  0.00003308  0.0004965 0.0000
 13  -1083.6768433725  -0.000051921915 0.00040197  0.00000908  0.0004197 0.0000
 14  -1083.6768531515  -0.000009778929 0.00137012  0.00001681  0.0001994 0.0000
 15  -1083.6768654391  -0.000012287642 0.00093359  0.00001354  0.0003464 0.0000
 16  -1083.6768747536  -0.000009314528 0.00224501  0.00003123  0.0001920 0.0000
 17  -1083.6768888221  -0.000014068439 0.00198349  0.00002853  0.0001196 0.0000
 18  -1083.6768939084  -0.000005086377 0.00057055  0.00000837  0.0000369 0.0000
 19  -1083.6768940314  -0.000000122998 0.00016512  0.00000212  0.0000134 0.0000
                 **** Energy Check signals convergence ****

               *****************************************************
               *                     SUCCESS                       *
               *           SCF CONVERGED AFTER  20 CYCLES          *
               *****************************************************


----------------
TOTAL SCF ENERGY
----------------

Total Energy       :        -1083.67689407 Eh          -29488.34745 eV

Components:
Nuclear Repulsion  :           64.93437494 Eh            1766.95417 eV
Electronic Energy  :        -1148.61126901 Eh          -31255.30162 eV
One Electron Energy:        -1611.85195998 Eh          -43860.72167 eV
Two Electron Energy:          463.24069097 Eh           12605.42005 eV

Virial components:
Potential Energy   :        -2166.21202396 Eh          -58945.62591 eV
Kinetic Energy     :         1082.53512989 Eh           29457.27846 eV
Virial Ratio       :            2.00105471


DFT components:
N(Alpha)           :       17.999997246328 electrons
N(Beta)            :       13.999997600429 electrons
N(Total)           :       31.999994846757 electrons
E(X)               :      -25.297801635697 Eh       
E(C)               :       -0.948699056430 Eh       
E(XC)              :      -26.246500692127 Eh       
DFET-embed. en.    :        0.000000000000 Eh       

---------------
SCF CONVERGENCE
---------------

  Last Energy change         ...   -3.5295e-08  Tolerance :   1.0000e-06
  Last MAX-Density change    ...    1.0123e-04  Tolerance :   1.0000e-05
  Last RMS-Density change    ...    1.2636e-06  Tolerance :   1.0000e-06
  Last DIIS Error            ...    7.6047e-06  Tolerance :   1.0000e-06

             **** THE GBW FILE WAS UPDATED (CrCH3+.gbw) ****
             **** DENSITY FILE WAS UPDATED (CrCH3+.scfp) ****
             **** ENERGY FILE WAS UPDATED (CrCH3+.en.tmp) ****
----------------------
UHF SPIN CONTAMINATION
----------------------

Warning: in a DFT calculation there is little theoretical justification to 
         calculate <S**2> as in Hartree-Fock theory. We will do it anyways
         but you should keep in mind that the values have only limited relevance

Expectation value of <S**2>     :     6.136158
Ideal value S*(S+1) for S=2.0   :     6.000000
Deviation                       :     0.136158

             **** THE GBW FILE WAS UPDATED (CrCH3+.gbw) ****
             **** DENSITY FILE WAS UPDATED (CrCH3+.scfp) ****
----------------
ORBITAL ENERGIES
----------------
                 SPIN UP ORBITALS
  NO   OCC          E(Eh)            E(eV) 
   0   1.0000    -217.955410     -5930.8682 
   1   1.0000     -25.629702      -697.4197 
   2   1.0000     -21.773016      -592.4739 
   3   1.0000     -21.765813      -592.2779 
   4   1.0000     -21.765813      -592.2779 
   5   1.0000     -10.767989      -293.0119 
   6   1.0000      -3.429479       -93.3209 
   7   1.0000      -2.325218       -63.2724 
   8   1.0000      -2.325218       -63.2724 
   9   1.0000      -2.307371       -62.7868 
  10   1.0000      -0.951847       -25.9011 
  11   1.0000      -0.663412       -18.0524 
  12   1.0000      -0.663411       -18.0523 
  13   1.0000      -0.582458       -15.8495 
  14   1.0000      -0.582458       -15.8495 
  15   1.0000      -0.575634       -15.6638 
  16   1.0000      -0.575633       -15.6638 
  17   1.0000      -0.541593       -14.7375 
  18   0.0000      -0.287649        -7.8273 
  19   0.0000      -0.215404        -5.8614 
  20   0.0000      -0.156876        -4.2688 
  21   0.0000      -0.156875        -4.2688 
  22   0.0000      -0.098601        -2.6831 
  23   0.0000      -0.061464        -1.6725 
  24   0.0000      -0.051814        -1.4099 
  25   0.0000      -0.051813        -1.4099 
  26   0.0000      -0.043322        -1.1789 
  27   0.0000      -0.043316        -1.1787 
  28   0.0000      -0.024628        -0.6702 
  29   0.0000      -0.024627        -0.6701 
  30   0.0000      -0.022268        -0.6059 
  31   0.0000       0.013689         0.3725 
  32   0.0000       0.027355         0.7444 
  33   0.0000       0.027359         0.7445 
  34   0.0000       0.047292         1.2869 
  35   0.0000       0.065954         1.7947 
  36   0.0000       0.065955         1.7947 
  37   0.0000       0.124288         3.3820 
  38   0.0000       0.167350         4.5538 
  39   0.0000       0.167354         4.5539 
  40   0.0000       0.172919         4.7054 
  41   0.0000       0.179142         4.8747 
  42   0.0000       0.185368         5.0441 
  43   0.0000       0.185378         5.0444 
  44   0.0000       0.200634         5.4595 
  45   0.0000       0.206302         5.6138 
  46   0.0000       0.206307         5.6139 
  47   0.0000       0.217810         5.9269 
  48   0.0000       0.232402         6.3240 
  49   0.0000       0.232411         6.3242 
  50   0.0000       0.320331         8.7167 
  51   0.0000       0.327333         8.9072 
  52   0.0000       0.327339         8.9074 
  53   0.0000       0.378020        10.2864 
  54   0.0000       0.380349        10.3498 
  55   0.0000       0.380359        10.3501 
  56   0.0000       0.394481        10.7344 
  57   0.0000       0.394497        10.7348 
  58   0.0000       0.466949        12.7063 
  59   0.0000       0.568385        15.4665 
  60   0.0000       0.568406        15.4671 
  61   0.0000       0.615948        16.7608 
  62   0.0000       0.615961        16.7612 
  63   0.0000       0.620569        16.8865 
  64   0.0000       0.684621        18.6295 
  65   0.0000       0.717368        19.5206 
  66   0.0000       0.717378        19.5208 
  67   0.0000       0.927841        25.2478 
  68   0.0000       0.950191        25.8560 
  69   0.0000       0.950201        25.8563 
  70   0.0000       0.979777        26.6611 
  71   0.0000       1.030736        28.0478 
  72   0.0000       1.030753        28.0482 
  73   0.0000       1.147599        31.2278 
  74   0.0000       1.159612        31.5546 
  75   0.0000       1.159618        31.5548 
  76   0.0000       1.314589        35.7718 
  77   0.0000       1.339493        36.4494 
  78   0.0000       1.431646        38.9571 
  79   0.0000       1.478697        40.2374 
  80   0.0000       1.478701        40.2375 
  81   0.0000       1.551992        42.2319 
  82   0.0000       1.551999        42.2320 
  83   0.0000       1.590151        43.2702 
  84   0.0000       1.639264        44.6066 
  85   0.0000       1.639272        44.6069 
  86   0.0000       1.729597        47.0647 
  87   0.0000       1.745641        47.5013 
  88   0.0000       1.745642        47.5013 
  89   0.0000       1.861065        50.6422 
  90   0.0000       1.914235        52.0890 
  91   0.0000       1.960821        53.3567 
  92   0.0000       1.960825        53.3568 
  93   0.0000       1.972941        53.6865 
  94   0.0000       1.972943        53.6865 
  95   0.0000       1.985531        54.0290 
  96   0.0000       2.172076        59.1052 
  97   0.0000       2.172079        59.1053 
  98   0.0000       2.388375        64.9910 
  99   0.0000       2.675655        72.8083 
 100   0.0000       2.684869        73.0590 
 101   0.0000       2.684904        73.0600 
 102   0.0000       2.818235        76.6881 
 103   0.0000       2.918910        79.4276 
 104   0.0000       2.918911        79.4276 
 105   0.0000       2.946483        80.1779 
 106   0.0000       2.946493        80.1781 
 107   0.0000       3.102363        84.4196 
 108   0.0000       3.102366        84.4197 
 109   0.0000       3.134350        85.2900 
 110   0.0000       3.287886        89.4679 
 111   0.0000       3.412373        92.8554 
 112   0.0000       3.412384        92.8557 
 113   0.0000       3.505065        95.3777 
 114   0.0000       3.505078        95.3780 
 115   0.0000       3.550282        96.6081 
 116   0.0000       3.791424       103.1699 
 117   0.0000       3.797783       103.3429 
 118   0.0000       3.797808       103.3436 
 119   0.0000       3.906694       106.3065 
 120   0.0000       4.007873       109.0598 
 121   0.0000       4.007889       109.0602 
 122   0.0000       4.084404       111.1423 
 123   0.0000       4.187795       113.9557 
 124   0.0000       4.187800       113.9558 
 125   0.0000       4.264774       116.0504 
 126   0.0000       4.547660       123.7481 
 127   0.0000       4.547668       123.7483 
 128   0.0000       4.586521       124.8056 
 129   0.0000       4.994016       135.8941 
 130   0.0000       4.994032       135.8945 
 131   0.0000       5.084844       138.3657 
 132   0.0000       5.100809       138.8001 
 133   0.0000       5.234114       142.4275 
 134   0.0000       5.281832       143.7259 
 135   0.0000       5.281852       143.7265 
 136   0.0000       5.485147       149.2584 
 137   0.0000       5.485151       149.2586 
 138   0.0000       5.486688       149.3004 
 139   0.0000       5.491491       149.4311 
 140   0.0000       5.550472       151.0360 
 141   0.0000       5.550490       151.0365 
 142   0.0000       5.578219       151.7911 
 143   0.0000       5.578246       151.7918 
 144   0.0000       5.667765       154.2277 
 145   0.0000       5.667775       154.2280 
 146   0.0000       5.719806       155.6438 
 147   0.0000       6.142804       167.1542 
 148   0.0000       6.150867       167.3736 
 149   0.0000       6.221745       169.3023 
 150   0.0000       6.221746       169.3023 
 151   0.0000       6.441871       175.2922 
 152   0.0000       6.441873       175.2923 
 153   0.0000       6.505834       177.0328 
 154   0.0000      23.557721       641.0382 

                 SPIN DOWN ORBITALS
  NO   OCC          E(Eh)            E(eV) 
   0   1.0000    -217.954998     -5930.8570 
   1   1.0000     -25.557096      -695.4439 
   2   1.0000     -21.714565      -590.8834 
   3   1.0000     -21.694500      -590.3374 
   4   1.0000     -21.694500      -590.3374 
   5   1.0000     -10.773822      -293.1706 
   6   1.0000      -3.203208       -87.1637 
   7   1.0000      -2.085083       -56.7380 
   8   1.0000      -2.044013       -55.6204 
   9   1.0000      -2.044013       -55.6204 
  10   1.0000      -0.963424       -26.2161 
  11   1.0000      -0.644950       -17.5500 
  12   1.0000      -0.644949       -17.5499 
  13   1.0000      -0.530705       -14.4412 
  14   0.0000      -0.246953        -6.7199 
  15   0.0000      -0.165507        -4.5037 
  16   0.0000      -0.156355        -4.2546 
  17   0.0000      -0.156355        -4.2546 
  18   0.0000      -0.134156        -3.6506 
  19   0.0000      -0.134156        -3.6506 
  20   0.0000      -0.113895        -3.0993 
  21   0.0000      -0.113895        -3.0992 
  22   0.0000      -0.085174        -2.3177 
  23   0.0000      -0.054579        -1.4852 
  24   0.0000      -0.046454        -1.2641 
  25   0.0000      -0.046454        -1.2641 
  26   0.0000      -0.019122        -0.5203 
  27   0.0000      -0.019121        -0.5203 
  28   0.0000      -0.018654        -0.5076 
  29   0.0000      -0.012268        -0.3338 
  30   0.0000      -0.012262        -0.3337 
  31   0.0000       0.023778         0.6470 
  32   0.0000       0.038303         1.0423 
  33   0.0000       0.038310         1.0425 
  34   0.0000       0.052740         1.4351 
  35   0.0000       0.071556         1.9471 
  36   0.0000       0.071556         1.9471 
  37   0.0000       0.128514         3.4970 
  38   0.0000       0.173024         4.7082 
  39   0.0000       0.173468         4.7203 
  40   0.0000       0.173477         4.7205 
  41   0.0000       0.185414         5.0454 
  42   0.0000       0.193463         5.2644 
  43   0.0000       0.193470         5.2646 
  44   0.0000       0.202516         5.5108 
  45   0.0000       0.217964         5.9311 
  46   0.0000       0.221321         6.0225 
  47   0.0000       0.221325         6.0225 
  48   0.0000       0.235512         6.4086 
  49   0.0000       0.235518         6.4088 
  50   0.0000       0.345149         9.3920 
  51   0.0000       0.364415         9.9162 
  52   0.0000       0.364419         9.9163 
  53   0.0000       0.378184        10.2909 
  54   0.0000       0.395411        10.7597 
  55   0.0000       0.395428        10.7601 
  56   0.0000       0.448655        12.2085 
  57   0.0000       0.448660        12.2087 
  58   0.0000       0.472044        12.8450 
  59   0.0000       0.593638        16.1537 
  60   0.0000       0.593664        16.1544 
  61   0.0000       0.619317        16.8525 
  62   0.0000       0.619324        16.8527 
  63   0.0000       0.619378        16.8541 
  64   0.0000       0.698890        19.0178 
  65   0.0000       0.716907        19.5080 
  66   0.0000       0.716919        19.5083 
  67   0.0000       0.930004        25.3067 
  68   0.0000       0.952949        25.9311 
  69   0.0000       0.952959        25.9313 
  70   0.0000       0.978676        26.6311 
  71   0.0000       1.037715        28.2377 
  72   0.0000       1.037731        28.2381 
  73   0.0000       1.147668        31.2296 
  74   0.0000       1.185295        32.2535 
  75   0.0000       1.185302        32.2537 
  76   0.0000       1.359784        37.0016 
  77   0.0000       1.424572        38.7646 
  78   0.0000       1.465472        39.8775 
  79   0.0000       1.495125        40.6844 
  80   0.0000       1.495140        40.6848 
  81   0.0000       1.610455        43.8227 
  82   0.0000       1.612839        43.8876 
  83   0.0000       1.612843        43.8877 
  84   0.0000       1.674687        45.5706 
  85   0.0000       1.674698        45.5708 
  86   0.0000       1.741371        47.3851 
  87   0.0000       1.812117        49.3102 
  88   0.0000       1.812118        49.3102 
  89   0.0000       1.895746        51.5859 
  90   0.0000       1.986864        54.0653 
  91   0.0000       2.027140        55.1613 
  92   0.0000       2.027144        55.1614 
  93   0.0000       2.058341        56.0103 
  94   0.0000       2.095547        57.0227 
  95   0.0000       2.095551        57.0228 
  96   0.0000       2.245907        61.1142 
  97   0.0000       2.245907        61.1142 
  98   0.0000       2.397033        65.2266 
  99   0.0000       2.677863        72.8684 
 100   0.0000       2.687506        73.1308 
 101   0.0000       2.687539        73.1317 
 102   0.0000       2.818016        76.6821 
 103   0.0000       2.918501        79.4165 
 104   0.0000       2.918504        79.4165 
 105   0.0000       2.948791        80.2407 
 106   0.0000       2.948801        80.2409 
 107   0.0000       3.090164        84.0876 
 108   0.0000       3.090168        84.0877 
 109   0.0000       3.136965        85.3612 
 110   0.0000       3.289325        89.5071 
 111   0.0000       3.412982        92.8720 
 112   0.0000       3.412993        92.8722 
 113   0.0000       3.509138        95.4885 
 114   0.0000       3.509149        95.4888 
 115   0.0000       3.553755        96.7026 
 116   0.0000       3.797868       103.3452 
 117   0.0000       3.798226       103.3550 
 118   0.0000       3.798251       103.3557 
 119   0.0000       3.913790       106.4996 
 120   0.0000       4.011171       109.1495 
 121   0.0000       4.011186       109.1499 
 122   0.0000       4.087749       111.2333 
 123   0.0000       4.191499       114.0565 
 124   0.0000       4.191506       114.0567 
 125   0.0000       4.269879       116.1893 
 126   0.0000       4.551107       123.8419 
 127   0.0000       4.551116       123.8422 
 128   0.0000       4.591226       124.9336 
 129   0.0000       4.996075       135.9501 
 130   0.0000       4.996090       135.9505 
 131   0.0000       5.084079       138.3448 
 132   0.0000       5.102486       138.8457 
 133   0.0000       5.232337       142.3791 
 134   0.0000       5.286171       143.8440 
 135   0.0000       5.286192       143.8446 
 136   0.0000       5.564409       151.4153 
 137   0.0000       5.564446       151.4163 
 138   0.0000       5.595157       152.2520 
 139   0.0000       5.595161       152.2521 
 140   0.0000       5.605995       152.5469 
 141   0.0000       5.610324       152.6647 
 142   0.0000       5.671330       154.3247 
 143   0.0000       5.671335       154.3249 
 144   0.0000       5.756306       156.6370 
 145   0.0000       5.756317       156.6373 
 146   0.0000       5.798752       157.7921 
 147   0.0000       6.334619       172.3737 
 148   0.0000       6.342013       172.5750 
 149   0.0000       6.417424       174.6270 
 150   0.0000       6.417426       174.6270 
 151   0.0000       6.588803       179.2904 
 152   0.0000       6.588803       179.2904 
 153   0.0000       6.627889       180.3540 
 154   0.0000      23.552682       640.9011 

                    ********************************
                    * MULLIKEN POPULATION ANALYSIS *
                    ********************************

--------------------------------------------
MULLIKEN ATOMIC CHARGES AND SPIN POPULATIONS
--------------------------------------------
   0 C :   -0.649294   -0.365714
   1 H :    0.198650    0.031451
   2 H :    0.198542    0.031467
   3 H :    0.198528    0.031485
   4 Cr:    1.053575    4.271310
Sum of atomic charges         :    1.0000000
Sum of atomic spin populations:    4.0000000

-----------------------------------------------------
MULLIKEN REDUCED ORBITAL CHARGES AND SPIN POPULATIONS
-----------------------------------------------------
CHARGE
  0 C s       :     3.032558  s :     3.032558
      pz      :     1.199485  p :     3.562685
      px      :     1.193648
      py      :     1.169552
      dz2     :     0.019253  d :     0.051445
      dxz     :     0.008804
      dyz     :     0.004667
      dx2y2   :     0.009435
      dxy     :     0.009285
      f0      :     0.000755  f :     0.002605
      f+1     :     0.000119
      f-1     :     0.000236
      f+2     :     0.000253
      f-2     :     0.000304
      f+3     :     0.000671
      f-3     :     0.000267
  1 H s       :     0.769219  s :     0.769219
      pz      :     0.023373  p :     0.030224
      px      :     0.008538
      py      :    -0.001687
      dz2     :     0.000339  d :     0.001907
      dxz     :     0.000767
      dyz     :     0.000804
      dx2y2   :     0.000001
      dxy     :    -0.000003
  2 H s       :     0.769262  s :     0.769262
      pz      :     0.012085  p :     0.030289
      px      :     0.019888
      py      :    -0.001683
      dz2     :     0.000293  d :     0.001907
      dxz     :     0.000559
      dyz     :     0.000079
      dx2y2   :     0.000253
      dxy     :     0.000722
  3 H s       :     0.769289  s :     0.769289
      pz      :     0.012076  p :     0.030276
      px      :     0.010484
      py      :     0.007716
      dz2     :     0.000293  d :     0.001907
      dxz     :     0.000229
      dyz     :     0.000410
      dx2y2   :     0.000605
      dxy     :     0.000370
  4 Crs       :     6.291410  s :     6.291410
      pz      :     4.012025  p :    12.062345
      px      :     4.016406
      py      :     4.033914
      dz2     :     0.956657  d :     4.586934
      dxz     :     0.970590
      dyz     :     0.907750
      dx2y2   :     0.943799
      dxy     :     0.808137
      f0      :     0.000477  f :     0.005624
      f+1     :     0.000347
      f-1     :     0.000930
      f+2     :     0.000505
      f-2     :     0.000955
      f+3     :     0.001176
      f-3     :     0.001233
      g0      :     0.000006  g :     0.000112
      g+1     :     0.000006
      g-1     :     0.000016
      g+2     :     0.000004
      g-2     :     0.000009
      g+3     :     0.000025
      g-3     :     0.000006
      g+4     :     0.000016
      g-4     :     0.000022

SPIN
  0 C s       :    -0.035752  s :    -0.035752
      pz      :    -0.055970  p :    -0.324493
      px      :    -0.082073
      py      :    -0.186451
      dz2     :    -0.000537  d :    -0.006470
      dxz     :    -0.005463
      dyz     :    -0.001992
      dx2y2   :     0.001337
      dxy     :     0.000184
      f0      :     0.000146  f :     0.001002
      f+1     :     0.000046
      f-1     :     0.000125
      f+2     :     0.000164
      f-2     :     0.000128
      f+3     :     0.000178
      f-3     :     0.000216
  1 H s       :     0.033357  s :     0.033357
      pz      :    -0.001030  p :    -0.001724
      px      :     0.000437
      py      :    -0.001131
      dz2     :     0.000007  d :    -0.000182
      dxz     :    -0.000051
      dyz     :    -0.000133
      dx2y2   :    -0.000001
      dxy     :    -0.000003
  2 H s       :     0.033369  s :     0.033369
      pz      :     0.000932  p :    -0.001721
      px      :    -0.001523
      py      :    -0.001129
      dz2     :    -0.000014  d :    -0.000182
      dxz     :    -0.000040
      dyz     :    -0.000016
      dx2y2   :     0.000008
      dxy     :    -0.000120
  3 H s       :     0.033382  s :     0.033382
      pz      :     0.000932  p :    -0.001715
      px      :     0.000646
      py      :    -0.003294
      dz2     :    -0.000014  d :    -0.000182
      dxz     :    -0.000042
      dyz     :    -0.000013
      dx2y2   :    -0.000098
      dxy     :    -0.000014
  4 Crs       :    -0.002297  s :    -0.002297
      pz      :    -0.000371  p :    -0.012249
      px      :    -0.002227
      py      :    -0.009651
      dz2     :     0.919859  d :     4.285736
      dxz     :     0.946473
      dyz     :     0.840378
      dx2y2   :     0.886686
      dxy     :     0.692340
      f0      :    -0.000044  f :     0.000166
      f+1     :     0.000056
      f-1     :     0.000126
      f+2     :     0.000028
      f-2     :    -0.000055
      f+3     :    -0.000162
      f-3     :     0.000216
      g0      :    -0.000000  g :    -0.000045
      g+1     :    -0.000003
      g-1     :    -0.000010
      g+2     :     0.000001
      g-2     :    -0.000001
      g+3     :    -0.000016
      g-3     :     0.000000
      g+4     :    -0.000004
      g-4     :    -0.000011


                     *******************************
                     * LOEWDIN POPULATION ANALYSIS *
                     *******************************

-------------------------------------------
LOEWDIN ATOMIC CHARGES AND SPIN POPULATIONS
-------------------------------------------
   0 C :    0.075154   -0.152855
   1 H :   -0.066127   -0.012526
   2 H :   -0.066126   -0.012525
   3 H :   -0.066121   -0.012524
   4 Cr:    1.123219    4.190430

----------------------------------------------------
LOEWDIN REDUCED ORBITAL CHARGES AND SPIN POPULATIONS
----------------------------------------------------
CHARGE
  0 C s       :     2.720357  s :     2.720357
      pz      :     0.969593  p :     2.906689
      px      :     0.969246
      py      :     0.967850
      dz2     :     0.074381  d :     0.275452
      dxz     :     0.037506
      dyz     :     0.040935
      dx2y2   :     0.055261
      dxy     :     0.067369
      f0      :     0.005506  f :     0.022347
      f+1     :     0.001205
      f-1     :     0.001914
      f+2     :     0.003392
      f-2     :     0.003422
      f+3     :     0.005151
      f-3     :     0.001757
  1 H s       :     0.714808  s :     0.714808
      pz      :     0.145915  p :     0.321321
      px      :     0.084488
      py      :     0.090918
      dz2     :     0.010007  d :     0.029998
      dxz     :     0.009583
      dyz     :     0.010313
      dx2y2   :     0.000029
      dxy     :     0.000065
  2 H s       :     0.714808  s :     0.714808
      pz      :     0.088449  p :     0.321320
      px      :     0.141954
      py      :     0.090917
      dz2     :     0.004448  d :     0.029998
      dxz     :     0.008328
      dyz     :     0.000820
      dx2y2   :     0.006844
      dxy     :     0.009558
  3 H s       :     0.714807  s :     0.714807
      pz      :     0.088448  p :     0.321316
      px      :     0.095623
      py      :     0.137246
      dz2     :     0.004448  d :     0.029997
      dxz     :     0.002671
      dyz     :     0.006476
      dx2y2   :     0.009368
      dxy     :     0.007034
  4 Crs       :     6.032125  s :     6.032125
      pz      :     4.035819  p :    12.142547
      px      :     4.041667
      py      :     4.065061
      dz2     :     0.970632  d :     4.683562
      dxz     :     0.974874
      dyz     :     0.928830
      dx2y2   :     0.969962
      dxy     :     0.839265
      f0      :     0.001765  f :     0.018240
      f+1     :     0.000973
      f-1     :     0.002705
      f+2     :     0.001757
      f-2     :     0.003229
      f+3     :     0.004216
      f-3     :     0.003595
      g0      :     0.000020  g :     0.000307
      g+1     :     0.000015
      g-1     :     0.000042
      g+2     :     0.000010
      g-2     :     0.000028
      g+3     :     0.000065
      g-3     :     0.000021
      g+4     :     0.000047
      g-4     :     0.000059

SPIN
  0 C s       :    -0.014133  s :    -0.014133
      pz      :    -0.025271  p :    -0.193395
      px      :    -0.044868
      py      :    -0.123255
      dz2     :     0.013377  d :     0.049302
      dxz     :     0.004566
      dyz     :     0.007808
      dx2y2   :     0.015152
      dxy     :     0.008398
      f0      :     0.000287  f :     0.005371
      f+1     :     0.000321
      f-1     :     0.000823
      f+2     :     0.001083
      f-2     :     0.000987
      f+3     :     0.000566
      f-3     :     0.001304
  1 H s       :     0.012593  s :     0.012593
      pz      :    -0.002705  p :    -0.022559
      px      :    -0.004903
      py      :    -0.014951
      dz2     :    -0.000199  d :    -0.002559
      dxz     :    -0.000637
      dyz     :    -0.001732
      dx2y2   :     0.000005
      dxy     :     0.000004
  2 H s       :     0.012593  s :     0.012593
      pz      :    -0.003165  p :    -0.022559
      px      :    -0.004443
      py      :    -0.014951
      dz2     :    -0.000225  d :    -0.002559
      dxz     :    -0.000452
      dyz     :    -0.000163
      dx2y2   :    -0.000154
      dxy     :    -0.001565
  3 H s       :     0.012593  s :     0.012593
      pz      :    -0.003165  p :    -0.022558
      px      :    -0.006451
      py      :    -0.012943
      dz2     :    -0.000225  d :    -0.002559
      dxz     :    -0.000445
      dyz     :    -0.000170
      dx2y2   :    -0.001470
      dxy     :    -0.000249
  4 Crs       :    -0.019149  s :    -0.019149
      pz      :     0.005174  p :     0.000537
      px      :     0.002676
      py      :    -0.007313
      dz2     :     0.907327  d :     4.210427
      dxz     :     0.936312
      dyz     :     0.823919
      dx2y2   :     0.867197
      dxy     :     0.675670
      f0      :    -0.000365  f :    -0.001312
      f+1     :     0.000066
      f-1     :     0.000136
      f+2     :    -0.000057
      f-2     :    -0.000463
      f+3     :    -0.001009
      f-3     :     0.000380
      g0      :     0.000000  g :    -0.000074
      g+1     :    -0.000006
      g-1     :    -0.000018
      g+2     :     0.000001
      g-2     :     0.000000
      g+3     :    -0.000027
      g-3     :     0.000001
      g+4     :    -0.000006
      g-4     :    -0.000020


                      *****************************
                      * MAYER POPULATION ANALYSIS *
                      *****************************

  NA   - Mulliken gross atomic population
  ZA   - Total nuclear charge
  QA   - Mulliken gross atomic charge
  VA   - Mayer's total valence
  BVA  - Mayer's bonded valence
  FA   - Mayer's free valence

  ATOM       NA         ZA         QA         VA         BVA        FA
  0 C      6.6493     6.0000    -0.6493     3.9211     3.8389     0.0822
  1 H      0.8014     1.0000     0.1986     1.0245     1.0234     0.0011
  2 H      0.8015     1.0000     0.1985     1.0247     1.0236     0.0011
  3 H      0.8015     1.0000     0.1985     1.0247     1.0236     0.0011
  4 Cr    22.9464    24.0000     1.0536     5.1287     1.0504     4.0784

  Mayer bond orders larger than 0.100000
B(  0-C ,  1-H ) :   0.9410 B(  0-C ,  2-H ) :   0.9411 B(  0-C ,  3-H ) :   0.9411 
B(  0-C ,  4-Cr) :   1.0157 

-------
TIMINGS
-------

Total SCF time: 0 days 0 hours 4 min 58 sec 

Total time                  ....     298.766 sec
Sum of individual times     ....     297.181 sec  ( 99.5%)

Fock matrix formation       ....     283.923 sec  ( 95.0%)
  XC integration            ....     247.906 sec  ( 87.3% of F)
    Basis function eval.    ....       0.091 sec  (  0.0% of XC)
    Density eval.           ....       0.107 sec  (  0.0% of XC)
    XC-Functional eval.     ....       0.036 sec  (  0.0% of XC)
    XC-Potential eval.      ....       0.230 sec  (  0.1% of XC)
Diagonalization             ....       5.578 sec  (  1.9%)
Density matrix formation    ....       0.021 sec  (  0.0%)
Population analysis         ....       0.325 sec  (  0.1%)
Initial guess               ....       0.372 sec  (  0.1%)
Orbital Transformation      ....       0.000 sec  (  0.0%)
Orbital Orthonormalization  ....       0.000 sec  (  0.0%)
DIIS solution               ....       0.271 sec  (  0.1%)
Grid generation             ....       6.690 sec  (  2.2%)


           ************************************************************
           *        Program running with 28 parallel MPI-processes    *
           *              working on a common directory               *
           ************************************************************

------------------------------------------------------------------------------
                                ORCA  MP2 
------------------------------------------------------------------------------

Freezing NCore=12 chemical core electrons

-------------
RI-MP2 ENERGY
-------------
Dimension of the basis                    ...  155
Memory devoted to MP2                     ... 5000 MB   
Data format for buffers                   ... DOUBLE
Compression type for matrix containers    ... UNCOMPRESSED
Overall scaling of the MP2 energy         ...   2.700e-01
Calculating two index integrals           ... done (    0.020 sec)
Cholesky decomposition of V**-1           ... done (    0.075 sec)

-----------------
RI-TRANSFORMATION (AUX index driven)
-----------------

Dimension of the orbital-basis         ... 155
Dimension of the aux-basis             ... 434
Transformation of internal/external MOs...    6-  17 to   18- 154
Number Format for Storage              ... Double (8 Byte)
Integral mode                          ... Direct

First Phase: integral generation and transformation of MO indices
  Aux angular momentum 0               ... done (    0.002 sec)
  Aux angular momentum 1               ... done (    0.003 sec)
  Aux angular momentum 2               ... done (    0.003 sec)
  Aux angular momentum 3               ... done (    0.003 sec)
  Aux angular momentum 4               ... done (    0.007 sec)
  Aux angular momentum 5               ... done (    0.008 sec)
  Aux angular momentum 6               ... done (    0.012 sec)
Closing buffer VIA ( 0.01 GB; CompressionRatio= 1.00)
  Phase 1 completed in     1.198 sec
Second Phase: sorting and transformation of aux index

IA-Transformation
Memory available                       ... 4996 MB 
Max. # MO pairs treated in a batch     ... 1    
# of internal orbitals                 ... 12
# batches for internal orbitals        ... 1
Closing buffer IAV ( 0.00 GB; CompressionRatio= 1.00)
(ia|v) transformation done in     0.071 sec

  Phase 2 completed in     1.378 sec
RI-Integral transformation completed in     3.145 sec

-----------------
RI-TRANSFORMATION (AUX index driven)
-----------------

Dimension of the orbital-basis         ... 155
Dimension of the aux-basis             ... 434
Transformation of internal/external MOs...    6-  13 to   14- 154
Number Format for Storage              ... Double (8 Byte)
Integral mode                          ... Direct

First Phase: integral generation and transformation of MO indices
  Aux angular momentum 0               ... done (    0.002 sec)
  Aux angular momentum 1               ... done (    0.003 sec)
  Aux angular momentum 2               ... done (    0.003 sec)
  Aux angular momentum 3               ... done (    0.003 sec)
  Aux angular momentum 4               ... done (    0.005 sec)
  Aux angular momentum 5               ... done (    0.009 sec)
  Aux angular momentum 6               ... done (    0.011 sec)
Closing buffer VIA ( 0.00 GB; CompressionRatio= 1.00)
  Phase 1 completed in     0.939 sec
Second Phase: sorting and transformation of aux index

IA-Transformation
Memory available                       ... 4996 MB 
Max. # MO pairs treated in a batch     ... 1    
# of internal orbitals                 ... 8
# batches for internal orbitals        ... 1
Closing buffer IAV ( 0.00 GB; CompressionRatio= 1.00)
(ia|v) transformation done in     0.082 sec

  Phase 2 completed in     1.572 sec
RI-Integral transformation completed in     2.762 sec
Opening buffers                              ... done

Starting loop over batches of integrals:

Operator 0  - window                       ... (  6- 17)x( 18-154)
Operator 0  - Memory available             ...  5000 MB
Operator 0  - Memory needed per MO         ...   0.5 MB
Operator 0  - Number of orbitals per batch ... 1
Operator 0  - Number of batches            ... 1

OPERATOR  0   PASS   0:  MOs     6 ...    6 +    7 ...    7 +    8 ...    8 +    9 ...    9
                            +   10 ...   10 +   11 ...   11 +   12 ...   12 +   13 ...   13
                            +   14 ...   14 +   15 ...   15 +   16 ...   16 +   17 ...   17
  Reading integrals       ... ok

Operator 1  - window                       ... (  6- 13)x( 14-154)
Operator 1  - Memory available             ...  5000 MB
Operator 1  - Memory needed per MO         ...   0.5 MB
Operator 1  - Number of orbitals per batch ... 1
Operator 1  - Number of batches            ... 1

OPERATOR  1   PASS   0:  MOs     6 ...    6 +    7 ...    7 +    8 ...    8 +    9 ...    9
                            +   10 ...   10 +   11 ...   11 +   12 ...   12 +   13 ...   13
  Reading integrals       ... ok
Time spent in pair loops =     0.028 sec
Deleting buffer (Ka|jb)[aa] ...done
Deleting buffer (Ka|jb)[ab] ...done
Deleting buffer (Ka|jb)[ba] ...done
Deleting buffer (Ka|jb)[bb] ...done

Correlation energy components}
 E2 and T2 for alpha/alpha pairs :     -0.044504340 Eh      0.000000000
 E2 and T2 for beta/beta   pairs :     -0.017813276 Eh      0.000000000
 E2 and T2 for alpha/beta  pairs :     -0.129300147 Eh      0.000000000


-----------------------------------------------
 RI-MP2 CORRELATION ENERGY:     -0.191617762 Eh
-----------------------------------------------


-------
TIMINGS
-------

Total time                :    6.627 sec
Integral trafo            :    5.942 sec ( 89.7%)
I/O of integrals          :    0.001 sec (  0.0%)
K(i,j) Operators          :    0.012 sec (  0.2%)
T(i,j) pair energies      :    0.002 sec (  0.0%)
V-calculation             :    0.020 sec (  0.3%)
V**(-1/2)                 :    0.075 sec (  1.1%)
Gamma(ia|P)               :    0.000 sec (  0.0%)
Gamma-Trafo               :    0.000 sec (  0.0%)
D(virtual)                :    0.000 sec (  0.0%)
D(internal)               :    0.000 sec (  0.0%)
W(virtual)                :    0.000 sec (  0.0%)
W(internal)               :    0.000 sec (  0.0%)
L(virtual)                :    0.000 sec (  0.0%)
L(internal)               :    0.000 sec (  0.0%)
G(D)                      :    0.000 sec (  0.0%)
G(Z)                      :    0.000 sec (  0.0%)
Z-Vector Solution         :    0.000 sec (  0.0%)
Z-Vector Solution         :    0.000 sec (  0.0%)
3-Index Derivative 
+ Separable RIJ part      :    0.000 sec (  0.0%)
2-Index Derivative 
+ Separable RIJ part      :    0.000 sec (  0.0%)
Separable Gradient (X)    :    0.000 sec (  0.0%)


---------------------------------------
MP2 TOTAL ENERGY:    -1083.868511829 Eh
---------------------------------------


-------------------------------------------------------------------------------
                          DFT DISPERSION CORRECTION                            
                                                                               
                              DFTD3 V3.1  Rev 1                                
                          USING Becke-Johnson damping                          
-------------------------------------------------------------------------------
The B2PLYP functional is recognized
Active option DFTDOPT                   ...         4   

molecular C6(AA) [au] = 728.012619 


            DFT-D V3
 parameters
 s6 scaling factor         :     0.6400 
 a1 scaling factor         :     0.3065 
 s8 scaling factor         :     0.9147 
 a2 scaling factor         :     5.0570 
 ad hoc parameters k1-k3   :    16.0000     1.3333    -4.0000 

 Edisp/kcal,au: -1.437190237848  -0.002290308185 
 E6   /kcal   :  -0.707827057 
 E8   /kcal   :  -0.729363181 
 % E8         :  50.749244016 

-------------------------   ----------------
Dispersion correction           -0.002290308
-------------------------   ----------------


-------------------------   --------------------
FINAL SINGLE POINT ENERGY     -1083.870802137409
-------------------------   --------------------


                            ***************************************
                            *     ORCA property calculations      *
                            ***************************************


  WARNING: The energy has been calculated at the MP2 level but the densities
           used in the property calculations are still SCF densities
           MP2 response densities have not been calculated 
           use %mp2 Density relaxed end
           or  %mp2 Density unrelaxed end

                                    ---------------------
                                    Active property flags
                                    ---------------------
   (+) Dipole Moment


------------------------------------------------------------------------------
                       ORCA ELECTRIC PROPERTIES CALCULATION
------------------------------------------------------------------------------

Dipole Moment Calculation                       ... on
Quadrupole Moment Calculation                   ... off
Polarizability Calculation                      ... off
GBWName                                         ... CrCH3+.gbw
Electron density file                           ... CrCH3+.scfp
The origin for moment calculation is the CENTER OF MASS  = (-1.298217, -2.248568 -0.917972)

-------------
DIPOLE MOMENT
-------------
                                X             Y             Z
Electronic contribution:     -3.75578      -6.50519      -2.65573
Nuclear contribution   :      3.19934       5.54142       2.26226
                        -----------------------------------------
Total Dipole Moment    :     -0.55643      -0.96377      -0.39346
                        -----------------------------------------
Magnitude (a.u.)       :      1.18038
Magnitude (Debye)      :      3.00028



--------------------
Rotational spectrum 
--------------------
 
Rotational constants in cm-1:     5.182984     0.355754     0.355754 
Rotational constants in MHz : 155381.939270 10665.239464 10665.237606 

 Dipole components along the rotational axes: 
x,y,z [a.u.] :     1.180376    -0.000003    -0.000006 
x,y,z [Debye]:     3.000279    -0.000007    -0.000016 

 

Timings for individual modules:

Sum of individual times         ...      322.839 sec (=   5.381 min)
GTO integral calculation        ...       11.387 sec (=   0.190 min)   3.5 %
SCF iterations                  ...      301.716 sec (=   5.029 min)  93.5 %
MP2 module                      ...        9.736 sec (=   0.162 min)   3.0 %
                             ****ORCA TERMINATED NORMALLY****
TOTAL RUN TIME: 0 days 0 hours 5 minutes 30 seconds 180 msec
