
                                 *****************
                                 * O   R   C   A *
                                 *****************

           --- An Ab Initio, DFT and Semiempirical electronic structure package ---

                  #######################################################
                  #                        -***-                        #
                  #          Department of theory and spectroscopy      #
                  #               Directorship: Frank Neese             #
                  #        Max Planck Institute fuer Kohlenforschung    #
                  #                Kaiser Wilhelm Platz 1               #
                  #                 D-45470 Muelheim/Ruhr               #
                  #                      Germany                        #
                  #                                                     #
                  #                  All rights reserved                #
                  #                        -***-                        #
                  #######################################################


                         Program Version 4.2.0 -  RELEASE  -


 With contributions from (in alphabetic order):
   Daniel Aravena         : Magnetic Suceptibility
   Michael Atanasov       : Ab Initio Ligand Field Theory (pilot matlab implementation)
   Alexander A. Auer      : GIAO ZORA, VPT2
   Ute Becker             : Parallelization
   Giovanni Bistoni       : ED, misc. LED, open-shell LED, HFLED
   Martin Brehm           : Molecular dynamics
   Dmytro Bykov           : SCF Hessian
   Vijay G. Chilkuri      : MRCI spin determinant printing, contributions to CSF-ICE
   Dipayan Datta          : RHF DLPNO-CCSD density
   Achintya Kumar Dutta   : EOM-CC, STEOM-CC
   Dmitry Ganyushin       : Spin-Orbit,Spin-Spin,Magnetic field MRCI
   Miquel Garcia          : C-PCM Hessian, Gaussian charge scheme
   Yang Guo               : DLPNO-NEVPT2, CIM, IAO-localization
   Andreas Hansen         : Spin unrestricted coupled pair/coupled cluster methods
   Benjamin Helmich-Paris : CASSCF linear response (MC-RPA)
   Lee Huntington         : MR-EOM, pCC
   Robert Izsak           : Overlap fitted RIJCOSX, COSX-SCS-MP3, EOM
   Christian Kollmar      : KDIIS, OOCD, Brueckner-CCSD(T), CCSD density
   Simone Kossmann        : Meta GGA functionals, TD-DFT gradient, OOMP2, MP2 Hessian
   Martin Krupicka        : AUTO-CI
   Lucas Lang             : DCDCAS
   Dagmar Lenk            : GEPOL surface, SMD
   Dimitrios Liakos       : Extrapolation schemes; Compound Job, initial MDCI parallelization
   Dimitrios Manganas     : Further ROCIS development; embedding schemes
   Dimitrios Pantazis     : SARC Basis sets
   Taras Petrenko         : DFT Hessian,TD-DFT gradient, ASA, ECA, R-Raman, ABS, FL, XAS/XES, NRVS
   Peter Pinski           : DLPNO-MP2, DLPNO-MP2 Gradient
   Christoph Reimann      : Effective Core Potentials
   Marius Retegan         : Local ZFS, SOC
   Christoph Riplinger    : Optimizer, TS searches, QM/MM, DLPNO-CCSD(T), (RO)-DLPNO pert. Triples
   Tobias Risthaus        : Range-separated hybrids, TD-DFT gradient, RPA, STAB
   Michael Roemelt        : Original ROCIS implementation
   Masaaki Saitow         : Open-shell DLPNO-CCSD energy and density
   Barbara Sandhoefer     : DKH picture change effects
   Avijit Sen             : IP-ROCIS
   Kantharuban Sivalingam : CASSCF convergence, NEVPT2, FIC-MRCI
   Bernardo de Souza      : ESD, SOC TD-DFT
   Georgi Stoychev        : AutoAux, RI-MP2 NMR
   Willem Van den Heuvel  : Paramagnetic NMR
   Boris Wezisla          : Elementary symmetry handling
   Frank Wennmohs         : Technical directorship


 We gratefully acknowledge several colleagues who have allowed us to
 interface, adapt or use parts of their codes:
   Stefan Grimme, W. Hujo, H. Kruse,             : VdW corrections, initial TS optimization,
                  C. Bannwarth                     DFT functionals, gCP, sTDA/sTD-DF
   Ed Valeev, F. Pavosevic, A. Kumar             : LibInt (2-el integral package), F12 methods
   Garnet Chan, S. Sharma, J. Yang, R. Olivares  : DMRG
   Ulf Ekstrom                                   : XCFun DFT Library
   Mihaly Kallay                                 : mrcc  (arbitrary order and MRCC methods)
   Andreas Klamt, Michael Diedenhofen            : otool_cosmo (COSMO solvation model)
   Jiri Pittner, Ondrej Demel                    : Mk-CCSD
   Frank Weinhold                                : gennbo (NPA and NBO analysis)
   Christopher J. Cramer and Donald G. Truhlar   : smd solvation model
   Lars Goerigk                                  : TD-DFT with DH, B97 family of functionals
   V. Asgeirsson, H. Jonsson                     : NEB implementation
   FAccTs GmbH                                   : IRC, NEB, NEB-TS, Multilevel, MM, QM/MM, CI optimization
   S Lehtola, MJT Oliveira, MAL Marques          : LibXC Library


 Your calculation uses the libint2 library for the computation of 2-el integrals
 For citations please refer to: http://libint.valeyev.net

 Your ORCA version has been built with support for libXC version: 4.2.3
 For citations please refer to: https://tddft.org/programs/libxc/

 This ORCA versions uses:
   CBLAS   interface :  Fast vector & matrix operations
   LAPACKE interface :  Fast linear algebra routines
   SCALAPACK package :  Parallel linear algebra routines


Your calculation utilizes the atom-pairwise dispersion correction
with the Becke-Johnson damping scheme (D3BJ)
Cite in your paper:
S.Grimme, S.Ehrlich, L.Goerigk, J Comput Chem, (2011), 32, 1456–1465 
S.Grimme, J.Antony, S.Ehrlich and H.Krieg, J.Chem.Phys., 132, (2010), 154104 
   

----- Orbital basis set information -----
Your calculation utilizes the basis: def2-TZVPPD
   F. Weigend and R. Ahlrichs, Phys. Chem. Chem. Phys. 7, 3297 (2005).
   D. Rappoport and F. Furche, J. Chem. Phys. 133 134105 (2010).

----- AuxC basis set information -----
Your calculation utilizes the auxiliary basis: def2-TZVPPD/C
   A. Hellweg, C. Hattig, S. Hofener and W. Klopper, Theor. Chem. Acc. 117, 587 (2007).

----- AuxJK basis set information -----
Your calculation utilizes the auxiliary basis: def2/JK
   H-Ba, Hf-Rn: F. Weigend, J. Comput. Chem. 29, 167 (2008).

================================================================================
                                        WARNINGS
                       Please study these warnings very carefully!
================================================================================


WARNING: No MP2 level density has been requested!
         To caclulate MP2 level properties use
         %mp2 Density relaxed end
         or
         %mp2 Density unrelaxed end
         Otherwise for double-hybrid DFT only the energy is correct!

WARNING: The frozen-core approximation is turned on by default for 
         the MP2 part of double-hybrid DFT.

INFO   : the flag for use of LIBINT has been found!

================================================================================
                                       INPUT FILE
================================================================================
NAME = Cu2.in
|  1> #
|  2> # Cu2 ri-B2PLYP-D3BJ/Def2-TZVPPD
|  3> #
|  4> ! rijk ri-b2plyp d3bj def2-tzvppd def2/jk def2-tzvppd/c grid4 nofinalgrid
|  5> 
|  6> *xyz 0 1
|  7> Cu         0.00000        0.00000        0.00000
|  8> Cu         0.00000        0.00000        2.22000
|  9> *
| 10> 
| 11> %maxcore 5000
| 12> 
| 13> %pal
| 14> nprocs = 28
| 15> end
| 16> 
| 17> 
| 18>                          ****END OF INPUT****
================================================================================

                       ****************************
                       * Single Point Calculation *
                       ****************************

---------------------------------
CARTESIAN COORDINATES (ANGSTROEM)
---------------------------------
  Cu     0.000000    0.000000    0.000000
  Cu     0.000000    0.000000    2.220000

----------------------------
CARTESIAN COORDINATES (A.U.)
----------------------------
  NO LB      ZA    FRAG     MASS         X           Y           Z
   0 Cu   29.0000    0    63.550    0.000000    0.000000    0.000000
   1 Cu   29.0000    0    63.550    0.000000    0.000000    4.195192

--------------------------------
INTERNAL COORDINATES (ANGSTROEM)
--------------------------------
 Cu     0   0   0     0.000000000000     0.00000000     0.00000000
 Cu     1   0   0     2.220000000000     0.00000000     0.00000000

---------------------------
INTERNAL COORDINATES (A.U.)
---------------------------
 Cu     0   0   0     0.000000000000     0.00000000     0.00000000
 Cu     1   0   0     4.195192017305     0.00000000     0.00000000

---------------------
BASIS SET INFORMATION
---------------------
There are 1 groups of distinct atoms

 Group   1 Type Cu  : 17s13p7d2f1g contracted to 6s6p4d2f1g pattern {842111/631111/4111/11/1}

Atom   0Cu   basis set group =>   1
Atom   1Cu   basis set group =>   1
---------------------------------
AUXILIARY/C BASIS SET INFORMATION
---------------------------------
There are 1 groups of distinct atoms

 Group   1 Type Cu  : 10s10p9d7f5g3h1i contracted to 10s10p9d7f5g3h1i pattern {1111111111/1111111111/111111111/1111111/11111/111/1}

Atom   0Cu   basis set group =>   1
Atom   1Cu   basis set group =>   1
----------------------------------
AUXILIARY/JK BASIS SET INFORMATION
----------------------------------
There are 1 groups of distinct atoms

 Group   1 Type Cu  : 19s14p12d10f7g3h1i contracted to 16s13p11d9f5g3h1i pattern {4111111111111111/2111111111111/21111111111/211111111/31111/111/1}

Atom   0Cu   basis set group =>   1
Atom   1Cu   basis set group =>   1


           ************************************************************
           *        Program running with 28 parallel MPI-processes    *
           *              working on a common directory               *
           ************************************************************
------------------------------------------------------------------------------
                           ORCA GTO INTEGRAL CALCULATION
                           -- RI-GTO INTEGRALS CHOSEN --
------------------------------------------------------------------------------

                         BASIS SET STATISTICS AND STARTUP INFO

Gaussian basis set:
 # of primitive gaussian shells          ...   80
 # of primitive gaussian functions       ...  228
 # of contracted shells                  ...   38
 # of contracted basis functions         ...  134
 Highest angular momentum                ...    4
 Maximum contraction depth               ...    8
Auxiliary gaussian basis set:
 # of primitive gaussian shells          ...  132
 # of primitive gaussian functions       ...  600
 # of contracted shells                  ...  116
 # of contracted aux-basis functions     ...  528
 Highest angular momentum                ...    6
 Maximum contraction depth               ...    4
Ratio of auxiliary to basis functions    ...  3.94
Integral package used                  ... LIBINT
 One Electron integrals                  ... done
 Ordering auxiliary basis shells         ... done
 Integral threshhold             Thresh  ...  1.000e-10
 Primitive cut-off               TCut    ...  1.000e-11
 Pre-screening matrix                    ... done
 Shell pair data                         ... 
 Ordering of the shell pairs             ... done (   0.000 sec) 705 of 741 pairs
 Determination of significant pairs      ... done (   0.000 sec)
 Creation of shell pair data             ... done (   0.000 sec)
 Storage of shell pair data              ... done (   0.032 sec)
 Shell pair data done in (   0.032 sec)
 Computing two index integrals           ... done
 Cholesky decomposition of the V-matrix  ... done


Timings:
 Total evaluation time                   ...   0.669 sec (  0.011 min)
 One electron matrix time                ...   0.094 sec (  0.002 min) = 14.0%
 Schwartz matrix evaluation time         ...   0.180 sec (  0.003 min) = 26.9%
 Two index repulsion integral time       ...   0.167 sec (  0.003 min) = 25.0%
 Cholesky decomposition of V             ...   0.129 sec (  0.002 min) = 19.3%
 Three index repulsion integral time     ...   0.000 sec (  0.000 min) =  0.0%



           ************************************************************
           *        Program running with 28 parallel MPI-processes    *
           *              working on a common directory               *
           ************************************************************
-------------------------------------------------------------------------------
                                 ORCA SCF
-------------------------------------------------------------------------------

------------
SCF SETTINGS
------------
Hamiltonian:
 Density Functional     Method          .... DFT(GTOs)
 Exchange Functional    Exchange        .... B88
   X-Alpha parameter    XAlpha          ....  0.666667
   Becke's b parameter  XBeta           ....  0.004200
 Correlation Functional Correlation     .... LYP
 LDA part of GGA corr.  LDAOpt          .... VWN-3
 Gradients option       PostSCFGGA      .... off
 Hybrid DFT is turned on
   Fraction HF Exchange ScalHFX         ....  0.530000
   Scaling of DF-GGA-X  ScalDFX         ....  0.470000
   Scaling of DF-GGA-C  ScalDFC         ....  0.730000
   Scaling of DF-LDA-C  ScalLDAC        ....  0.730000
   Perturbative correction              ....  0.270000
   Density functional embedding theory  .... OFF
 RI-approximation to the Coulomb term is turned on
   Number of auxiliary basis functions  .... 528
   RI-JK (J+K treated both via RI)      .... on


General Settings:
 Integral files         IntName         .... Cu2
 Hartree-Fock type      HFTyp           .... RHF
 Total Charge           Charge          ....    0
 Multiplicity           Mult            ....    1
 Number of Electrons    NEL             ....   58
 Basis Dimension        Dim             ....  134
 Nuclear Repulsion      ENuc            ....    200.4675820632 Eh

Convergence Acceleration:
 DIIS                   CNVDIIS         .... on
   Start iteration      DIISMaxIt       ....    12
   Startup error        DIISStart       ....  0.200000
   # of expansion vecs  DIISMaxEq       ....     5
   Bias factor          DIISBfac        ....   1.050
   Max. coefficient     DIISMaxC        ....  10.000
 Newton-Raphson         CNVNR           .... off
 SOSCF                  CNVSOSCF        .... off
 Level Shifting         CNVShift        .... on
   Level shift para.    LevelShift      ....    0.2500
   Turn off err/grad.   ShiftErr        ....    0.0010
 Zerner damping         CNVZerner       .... off
 Static damping         CNVDamp         .... on
   Fraction old density DampFac         ....    0.7000
   Max. Damping (<1)    DampMax         ....    0.9800
   Min. Damping (>=0)   DampMin         ....    0.0000
   Turn off err/grad.   DampErr         ....    0.1000
 Fernandez-Rico         CNVRico         .... off

SCF Procedure:
 Maximum # iterations   MaxIter         ....   125
 SCF integral mode      SCFMode         .... Direct
   Integral package                     .... LIBINT
 Reset frequency        DirectResetFreq ....    20
 Integral Threshold     Thresh          ....  1.000e-10 Eh
 Primitive CutOff       TCut            ....  1.000e-11 Eh

Convergence Tolerance:
 Convergence Check Mode ConvCheckMode   .... Total+1el-Energy
 Convergence forced     ConvForced      .... 0
 Energy Change          TolE            ....  1.000e-06 Eh
 1-El. energy change                    ....  1.000e-03 Eh
 DIIS Error             TolErr          ....  1.000e-06


Diagonalization of the overlap matrix:
Smallest eigenvalue                        ... 7.789e-04
Time for diagonalization                   ...    0.046 sec
Threshold for overlap eigenvalues          ... 1.000e-08
Number of eigenvalues below threshold      ... 0
Time for construction of square roots      ...    0.057 sec
Total time needed                          ...    0.103 sec

-------------------
DFT GRID GENERATION
-------------------

General Integration Accuracy     IntAcc      ...  4.670
Radial Grid Type                 RadialGrid  ... Gauss-Chebyshev
Angular Grid (max. acc.)         AngularGrid ... Lebedev-302
Angular grid pruning method      GridPruning ... 3 (G Style)
Weight generation scheme         WeightScheme... Becke
Basis function cutoff            BFCut       ...    1.0000e-10
Integration weight cutoff        WCut        ...    1.0000e-14
Grids for H and He will be reduced by one unit

# of grid points (after initial pruning)     ...  19112 (   0.0 sec)
# of grid points (after weights+screening)   ...  19084 (   0.0 sec)
nearest neighbour list constructed           ...    0.0 sec
Grid point re-assignment to atoms done       ...    0.0 sec
Grid point division into batches done        ...    0.2 sec
Reduced shell lists constructed in    0.2 sec

Total number of grid points                  ...    19084
Total number of batches                      ...      300
Average number of points per batch           ...       63
Average number of grid points per atom       ...     9542
Average number of shells per batch           ...     7.17 (18.86%)
Average number of basis functions per batch  ...    20.00 (14.93%)
Average number of large shells per batch     ...     5.50 (76.74%)
Average number of large basis fcns per batch ...    15.83 (79.17%)
Average number of aux-shells per batch       ...     7.17 ( 6.18%)
Average number of aux functions per batch    ...    20.00 ( 3.79%)
Maximum spatial batch extension              ...  22.17, 22.17, 16.37 au
Average spatial batch extension              ...   0.65,  0.64,  0.49 au

Time for grid setup =    2.116 sec

------------------------------
INITIAL GUESS: MODEL POTENTIAL
------------------------------
Loading Hartree-Fock densities                     ... done
Calculating cut-offs                               ... done
Setting up the integral package                    ... done
Initializing the effective Hamiltonian             ... done
Starting the Coulomb interaction                   ... done (   0.0 sec)
Reading the grid                                   ... done
Mapping shells                                     ... done
Starting the XC term evaluation                    ... done (   0.0 sec)
  promolecular density results
     # of electrons  =     58.000033924
     EX              =   -131.578215207
     EC              =     -1.043054386
     EX+EC           =   -132.621269594
Transforming the Hamiltonian                       ... done (   0.0 sec)
Diagonalizing the Hamiltonian                      ... done (   0.0 sec)
Back transforming the eigenvectors                 ... done (   0.0 sec)
Now organizing SCF variables                       ... done
                      ------------------
                      INITIAL GUESS DONE (   3.7 sec)
                      ------------------
--------------
SCF ITERATIONS
--------------
ITER       Energy         Delta-E        Max-DP      RMS-DP      [F,P]     Damp
  0  -3280.0938168028   0.000000000000 0.05067739  0.00122647  0.1386207 0.7000
  1  -3279.8800116149   0.213805187916 0.06008158  0.00115815  0.0635587 0.7000
                               ***Turning on DIIS***
  2  -3280.0000955652  -0.120083950314 0.17268282  0.00299138  0.0428796 0.0000
  3  -3280.1497781981  -0.149682632902 0.01149472  0.00050888  0.0372650 0.0000
  4  -3280.1540581791  -0.004279980931 0.00837477  0.00026836  0.0184197 0.0000
  5  -3280.1549334236  -0.000875244552 0.00564126  0.00013297  0.0079278 0.0000
  6  -3280.1552224418  -0.000289018169 0.00451231  0.00008584  0.0029201 0.0000
  7  -3280.1552718510  -0.000049409169 0.00276689  0.00005582  0.0013863 0.0000
  8  -3280.1552847278  -0.000012876812 0.00206563  0.00004876  0.0006592 0.0000
  9  -3280.1552893385  -0.000004610678 0.00055264  0.00001240  0.0001583 0.0000
 10  -3280.1552897189  -0.000000380400 0.00026928  0.00000529  0.0000640 0.0000
 11  -3280.1552897766  -0.000000057710 0.00005229  0.00000108  0.0000335 0.0000
 12  -3280.1552897801  -0.000000003548 0.00003621  0.00000070  0.0000273 0.0000
                 **** Energy Check signals convergence ****

               *****************************************************
               *                     SUCCESS                       *
               *           SCF CONVERGED AFTER  13 CYCLES          *
               *****************************************************


----------------
TOTAL SCF ENERGY
----------------

Total Energy       :        -3280.15528978 Eh          -89257.56320 eV

Components:
Nuclear Repulsion  :          200.46758206 Eh            5455.00023 eV
Electronic Energy  :        -3480.62287185 Eh          -94712.56344 eV
One Electron Energy:        -4978.63188879 Eh         -135475.46113 eV
Two Electron Energy:         1498.00901694 Eh           40762.89770 eV

Virial components:
Potential Energy   :        -6556.97100669 Eh         -178424.25201 eV
Kinetic Energy     :         3276.81571691 Eh           89166.68880 eV
Virial Ratio       :            2.00101915


DFT components:
N(Alpha)           :       29.000000845467 electrons
N(Beta)            :       29.000000845467 electrons
N(Total)           :       58.000001690934 electrons
E(X)               :      -62.023675299193 Eh       
E(C)               :       -2.020540994275 Eh       
E(XC)              :      -64.044216293468 Eh       
DFET-embed. en.    :        0.000000000000 Eh       

---------------
SCF CONVERGENCE
---------------

  Last Energy change         ...   -1.8981e-09  Tolerance :   1.0000e-06
  Last MAX-Density change    ...    3.3810e-06  Tolerance :   1.0000e-05
  Last RMS-Density change    ...    1.0166e-07  Tolerance :   1.0000e-06
  Last DIIS Error            ...    2.0795e-06  Tolerance :   1.0000e-06

             **** THE GBW FILE WAS UPDATED (Cu2.gbw) ****
             **** DENSITY FILE WAS UPDATED (Cu2.scfp) ****
             **** ENERGY FILE WAS UPDATED (Cu2.en.tmp) ****
             **** THE GBW FILE WAS UPDATED (Cu2.gbw) ****
             **** DENSITY FILE WAS UPDATED (Cu2.scfp) ****
----------------
ORBITAL ENERGIES
----------------

  NO   OCC          E(Eh)            E(eV) 
   0   2.0000    -325.408677     -8854.8203 
   1   2.0000    -325.408670     -8854.8201 
   2   2.0000     -39.618405     -1078.0716 
   3   2.0000     -39.618375     -1078.0708 
   4   2.0000     -34.653943      -942.9817 
   5   2.0000     -34.653935      -942.9815 
   6   2.0000     -34.653709      -942.9754 
   7   2.0000     -34.653709      -942.9754 
   8   2.0000     -34.653702      -942.9752 
   9   2.0000     -34.653702      -942.9752 
  10   2.0000      -4.568363      -124.3115 
  11   2.0000      -4.567621      -124.2913 
  12   2.0000      -2.991097       -81.3919 
  13   2.0000      -2.984914       -81.2236 
  14   2.0000      -2.984914       -81.2236 
  15   2.0000      -2.984853       -81.2220 
  16   2.0000      -2.984390       -81.2094 
  17   2.0000      -2.984390       -81.2094 
  18   2.0000      -0.374676       -10.1955 
  19   2.0000      -0.362520        -9.8647 
  20   2.0000      -0.362520        -9.8647 
  21   2.0000      -0.345319        -9.3966 
  22   2.0000      -0.345315        -9.3965 
  23   2.0000      -0.337514        -9.1842 
  24   2.0000      -0.337510        -9.1841 
  25   2.0000      -0.325293        -8.8517 
  26   2.0000      -0.325293        -8.8517 
  27   2.0000      -0.318933        -8.6786 
  28   2.0000      -0.223560        -6.0834 
  29   0.0000      -0.041846        -1.1387 
  30   0.0000       0.007337         0.1996 
  31   0.0000       0.007337         0.1996 
  32   0.0000       0.031354         0.8532 
  33   0.0000       0.063979         1.7410 
  34   0.0000       0.063979         1.7410 
  35   0.0000       0.068971         1.8768 
  36   0.0000       0.136042         3.7019 
  37   0.0000       0.156423         4.2565 
  38   0.0000       0.156423         4.2565 
  39   0.0000       0.164796         4.4843 
  40   0.0000       0.204091         5.5536 
  41   0.0000       0.204091         5.5536 
  42   0.0000       0.214218         5.8292 
  43   0.0000       0.214218         5.8292 
  44   0.0000       0.214565         5.8386 
  45   0.0000       0.260775         7.0960 
  46   0.0000       0.265370         7.2211 
  47   0.0000       0.265370         7.2211 
  48   0.0000       0.276567         7.5258 
  49   0.0000       0.276567         7.5258 
  50   0.0000       0.361718         9.8429 
  51   0.0000       0.376139        10.2353 
  52   0.0000       0.376139        10.2353 
  53   0.0000       0.573790        15.6136 
  54   0.0000       0.713457        19.4142 
  55   0.0000       0.731140        19.8953 
  56   0.0000       0.731140        19.8953 
  57   0.0000       0.811747        22.0888 
  58   0.0000       0.811747        22.0888 
  59   0.0000       0.868335        23.6286 
  60   0.0000       0.929528        25.2937 
  61   0.0000       0.929528        25.2937 
  62   0.0000       0.957440        26.0533 
  63   0.0000       0.957443        26.0533 
  64   0.0000       1.040669        28.3180 
  65   0.0000       1.040672        28.3181 
  66   0.0000       1.076207        29.2851 
  67   0.0000       1.193875        32.4870 
  68   0.0000       1.193875        32.4870 
  69   0.0000       1.416508        38.5451 
  70   0.0000       3.169335        86.2420 
  71   0.0000       3.186409        86.7066 
  72   0.0000       3.186409        86.7066 
  73   0.0000       3.243871        88.2702 
  74   0.0000       3.272399        89.0465 
  75   0.0000       3.272399        89.0465 
  76   0.0000       3.335224        90.7560 
  77   0.0000       3.582568        97.4866 
  78   0.0000       3.582568        97.4866 
  79   0.0000       3.597392        97.8900 
  80   0.0000       3.603264        98.0498 
  81   0.0000       3.603271        98.0500 
  82   0.0000       3.614085        98.3442 
  83   0.0000       3.614085        98.3442 
  84   0.0000       3.614681        98.3605 
  85   0.0000       3.614681        98.3605 
  86   0.0000       3.616970        98.4228 
  87   0.0000       3.616980        98.4230 
  88   0.0000       3.624332        98.6231 
  89   0.0000       3.645747        99.2058 
  90   0.0000       3.645747        99.2058 
  91   0.0000       3.834559       104.3437 
  92   0.0000       3.894429       105.9728 
  93   0.0000       3.894463       105.9737 
  94   0.0000       3.938717       107.1779 
  95   0.0000       3.938749       107.1788 
  96   0.0000       3.961605       107.8008 
  97   0.0000       3.961605       107.8008 
  98   0.0000       4.028760       109.6281 
  99   0.0000       4.028760       109.6281 
 100   0.0000       4.235041       115.2413 
 101   0.0000       4.295713       116.8923 
 102   0.0000      13.320323       362.4644 
 103   0.0000      13.320467       362.4683 
 104   0.0000      13.320467       362.4683 
 105   0.0000      13.321033       362.4837 
 106   0.0000      13.321033       362.4837 
 107   0.0000      13.321046       362.4841 
 108   0.0000      13.321072       362.4848 
 109   0.0000      13.321433       362.4946 
 110   0.0000      13.321460       362.4954 
 111   0.0000      13.322319       362.5187 
 112   0.0000      13.322679       362.5285 
 113   0.0000      13.322679       362.5285 
 114   0.0000      13.322683       362.5286 
 115   0.0000      13.322683       362.5286 
 116   0.0000      13.324222       362.5705 
 117   0.0000      13.324223       362.5705 
 118   0.0000      13.324367       362.5745 
 119   0.0000      13.324368       362.5745 
 120   0.0000      13.516613       367.8057 
 121   0.0000      13.522173       367.9570 
 122   0.0000      13.522173       367.9570 
 123   0.0000      13.525145       368.0379 
 124   0.0000      13.525300       368.0421 
 125   0.0000      13.527441       368.1004 
 126   0.0000      13.527441       368.1004 
 127   0.0000      13.527612       368.1050 
 128   0.0000      13.527612       368.1050 
 129   0.0000      13.528723       368.1353 
 130   0.0000      13.528877       368.1395 
 131   0.0000      13.553356       368.8056 
 132   0.0000      13.553356       368.8056 
 133   0.0000      13.674306       372.0968 

                    ********************************
                    * MULLIKEN POPULATION ANALYSIS *
                    ********************************

-----------------------
MULLIKEN ATOMIC CHARGES
-----------------------
   0 Cu:    0.000004
   1 Cu:   -0.000004
Sum of atomic charges:   -0.0000000

--------------------------------
MULLIKEN REDUCED ORBITAL CHARGES
--------------------------------
  0 Cus       :     6.984370  s :     6.984370
      pz      :     4.032921  p :    12.043471
      px      :     4.005275
      py      :     4.005275
      dz2     :     1.982613  d :     9.971939
      dxz     :     1.994676
      dyz     :     1.994676
      dx2y2   :     1.999987
      dxy     :     1.999987
      f0      :     0.000092  f :     0.000215
      f+1     :     0.000048
      f-1     :     0.000048
      f+2     :     0.000013
      f-2     :     0.000013
      f+3     :     0.000000
      f-3     :     0.000000
      g0      :     0.000000  g :     0.000001
      g+1     :     0.000000
      g-1     :     0.000000
      g+2     :     0.000000
      g-2     :     0.000000
      g+3     :     0.000000
      g-3     :     0.000000
      g+4     :     0.000000
      g-4     :     0.000000
  1 Cus       :     6.984376  s :     6.984376
      pz      :     4.032922  p :    12.043472
      px      :     4.005275
      py      :     4.005275
      dz2     :     1.982613  d :     9.971940
      dxz     :     1.994676
      dyz     :     1.994676
      dx2y2   :     1.999987
      dxy     :     1.999987
      f0      :     0.000092  f :     0.000215
      f+1     :     0.000048
      f-1     :     0.000048
      f+2     :     0.000013
      f-2     :     0.000013
      f+3     :     0.000000
      f-3     :     0.000000
      g0      :     0.000000  g :     0.000001
      g+1     :     0.000000
      g-1     :     0.000000
      g+2     :     0.000000
      g-2     :     0.000000
      g+3     :     0.000000
      g-3     :     0.000000
      g+4     :     0.000000
      g-4     :     0.000000


                     *******************************
                     * LOEWDIN POPULATION ANALYSIS *
                     *******************************

----------------------
LOEWDIN ATOMIC CHARGES
----------------------
   0 Cu:    0.000000
   1 Cu:   -0.000000

-------------------------------
LOEWDIN REDUCED ORBITAL CHARGES
-------------------------------
  0 Cus       :     6.855299  s :     6.855299
      pz      :     4.121476  p :    12.135618
      px      :     4.007071
      py      :     4.007071
      dz2     :     2.023017  d :    10.008616
      dxz     :     1.992816
      dyz     :     1.992816
      dx2y2   :     1.999984
      dxy     :     1.999984
      f0      :     0.000208  f :     0.000465
      f+1     :     0.000112
      f-1     :     0.000112
      f+2     :     0.000016
      f-2     :     0.000016
      f+3     :     0.000000
      f-3     :     0.000000
      g0      :     0.000000  g :     0.000001
      g+1     :     0.000000
      g-1     :     0.000000
      g+2     :     0.000000
      g-2     :     0.000000
      g+3     :     0.000000
      g-3     :     0.000000
      g+4     :     0.000000
      g-4     :     0.000000
  1 Cus       :     6.855300  s :     6.855300
      pz      :     4.121476  p :    12.135618
      px      :     4.007071
      py      :     4.007071
      dz2     :     2.023017  d :    10.008616
      dxz     :     1.992816
      dyz     :     1.992816
      dx2y2   :     1.999984
      dxy     :     1.999984
      f0      :     0.000208  f :     0.000465
      f+1     :     0.000112
      f-1     :     0.000112
      f+2     :     0.000016
      f-2     :     0.000016
      f+3     :     0.000000
      f-3     :     0.000000
      g0      :     0.000000  g :     0.000001
      g+1     :     0.000000
      g-1     :     0.000000
      g+2     :     0.000000
      g-2     :     0.000000
      g+3     :     0.000000
      g-3     :     0.000000
      g+4     :     0.000000
      g-4     :     0.000000


                      *****************************
                      * MAYER POPULATION ANALYSIS *
                      *****************************

  NA   - Mulliken gross atomic population
  ZA   - Total nuclear charge
  QA   - Mulliken gross atomic charge
  VA   - Mayer's total valence
  BVA  - Mayer's bonded valence
  FA   - Mayer's free valence

  ATOM       NA         ZA         QA         VA         BVA        FA
  0 Cu    29.0000    29.0000     0.0000     1.0487     1.0487    -0.0000
  1 Cu    29.0000    29.0000    -0.0000     1.0487     1.0487     0.0000

  Mayer bond orders larger than 0.100000
B(  0-Cu,  1-Cu) :   1.0487 

-------
TIMINGS
-------

Total SCF time: 0 days 0 hours 4 min 20 sec 

Total time                  ....     260.173 sec
Sum of individual times     ....     258.796 sec  ( 99.5%)

Fock matrix formation       ....     251.132 sec  ( 96.5%)
  XC integration            ....     246.007 sec  ( 98.0% of F)
    Basis function eval.    ....       0.028 sec  (  0.0% of XC)
    Density eval.           ....       0.017 sec  (  0.0% of XC)
    XC-Functional eval.     ....       0.018 sec  (  0.0% of XC)
    XC-Potential eval.      ....       0.031 sec  (  0.0% of XC)
Diagonalization             ....       3.043 sec  (  1.2%)
Density matrix formation    ....       0.096 sec  (  0.0%)
Population analysis         ....       0.607 sec  (  0.2%)
Initial guess               ....       1.550 sec  (  0.6%)
Orbital Transformation      ....       0.000 sec  (  0.0%)
Orbital Orthonormalization  ....       0.000 sec  (  0.0%)
DIIS solution               ....       0.252 sec  (  0.1%)
Grid generation             ....       2.116 sec  (  0.8%)


           ************************************************************
           *        Program running with 28 parallel MPI-processes    *
           *              working on a common directory               *
           ************************************************************

------------------------------------------------------------------------------
                                ORCA  MP2 
------------------------------------------------------------------------------

Freezing NCore=20 chemical core electrons

-------------
RI-MP2 ENERGY
-------------
Dimension of the basis                    ...  134
Memory devoted to MP2                     ... 5000 MB   
Data format for buffers                   ... DOUBLE
Compression type for matrix containers    ... UNCOMPRESSED
Overall scaling of the MP2 energy         ...   2.700e-01
Calculating two index integrals           ... done (    0.022 sec)
Cholesky decomposition of V**-1           ... done (    0.101 sec)

-----------------
RI-TRANSFORMATION (AUX index driven)
-----------------

Dimension of the orbital-basis         ... 134
Dimension of the aux-basis             ... 450
Transformation of internal/external MOs...   10-  28 to   29- 133
Number Format for Storage              ... Double (8 Byte)
Integral mode                          ... Direct

First Phase: integral generation and transformation of MO indices
  Aux angular momentum 0               ... done (    0.001 sec)
  Aux angular momentum 1               ... done (    0.001 sec)
  Aux angular momentum 2               ... done (    0.002 sec)
  Aux angular momentum 3               ... done (    0.003 sec)
  Aux angular momentum 4               ... done (    0.006 sec)
  Aux angular momentum 5               ... done (    0.007 sec)
  Aux angular momentum 6               ... done (    0.011 sec)
Closing buffer VIA ( 0.01 GB; CompressionRatio= 1.00)
  Phase 1 completed in     6.864 sec
Second Phase: sorting and transformation of aux index

IA-Transformation
Memory available                       ... 4998 MB 
Max. # MO pairs treated in a batch     ... 1    
# of internal orbitals                 ... 19
# batches for internal orbitals        ... 1
Closing buffer IAV ( 0.00 GB; CompressionRatio= 1.00)
(ia|v) transformation done in     1.187 sec

  Phase 2 completed in     7.421 sec
RI-Integral transformation completed in    16.216 sec
Opening buffers                              ... done

Starting loop over batches of integrals:

Operator 0  - window                       ... ( 10- 28)x( 29-133)
Operator 0  - Memory available             ...  5000 MB
Operator 0  - Memory needed per MO         ...   0.4 MB
Operator 0  - Number of orbitals per batch ... 1
Operator 0  - Number of batches            ... 1

OPERATOR  0   PASS   0:  MOs    10 ...   10 +   11 ...   11 +   12 ...   12 +   13 ...   13
                            +   14 ...   14 +   15 ...   15 +   16 ...   16 +   17 ...   17
                            +   18 ...   18 +   19 ...   19 +   20 ...   20 +   21 ...   21
                            +   22 ...   22 +   23 ...   23 +   24 ...   24 +   25 ...   25
                            +   26 ...   26 +   27 ...   27 +   28 ...   28
  Reading integrals       ... ok
Time spent in pair loops =     0.004 sec
Deleting buffer (Ka|jb)[aa] ...done

-----------------------------------------------
 RI-MP2 CORRELATION ENERGY:     -0.545218739 Eh
-----------------------------------------------


-------
TIMINGS
-------

Total time                :   18.112 sec
Integral trafo            :   16.229 sec ( 89.6%)
I/O of integrals          :    0.003 sec (  0.0%)
K(i,j) Operators          :    0.000 sec (  0.0%)
T(i,j) pair energies      :    0.000 sec (  0.0%)
V-calculation             :    0.022 sec (  0.1%)
V**(-1/2)                 :    0.101 sec (  0.6%)
Gamma(ia|P)               :    0.000 sec (  0.0%)
Gamma-Trafo               :    0.000 sec (  0.0%)
D(virtual)                :    0.000 sec (  0.0%)
D(internal)               :    0.000 sec (  0.0%)
W(virtual)                :    0.000 sec (  0.0%)
W(internal)               :    0.000 sec (  0.0%)
L(virtual)                :    0.000 sec (  0.0%)
L(internal)               :    0.000 sec (  0.0%)
G(D)                      :    0.000 sec (  0.0%)
G(Z)                      :    0.000 sec (  0.0%)
Z-Vector Solution         :    0.000 sec (  0.0%)
Z-Vector Solution         :    0.000 sec (  0.0%)
3-Index Derivative 
+ Separable RIJ part      :    0.000 sec (  0.0%)
2-Index Derivative 
+ Separable RIJ part      :    0.000 sec (  0.0%)
Separable Gradient (X)    :    0.000 sec (  0.0%)


---------------------------------------
MP2 TOTAL ENERGY:    -3280.700508521 Eh
---------------------------------------


-------------------------------------------------------------------------------
                          DFT DISPERSION CORRECTION                            
                                                                               
                              DFTD3 V3.1  Rev 1                                
                          USING Becke-Johnson damping                          
-------------------------------------------------------------------------------
The B2PLYP functional is recognized
Active option DFTDOPT                   ...         4   

molecular C6(AA) [au] = 711.688489 


            DFT-D V3
 parameters
 s6 scaling factor         :     0.6400 
 a1 scaling factor         :     0.3065 
 s8 scaling factor         :     0.9147 
 a2 scaling factor         :     5.0570 
 ad hoc parameters k1-k3   :    16.0000     1.3333    -4.0000 

 Edisp/kcal,au: -0.890053898987  -0.001418391022 
 E6   /kcal   :  -0.302608238 
 E8   /kcal   :  -0.587445661 
 % E8         :  66.001133430 

-------------------------   ----------------
Dispersion correction           -0.001418391
-------------------------   ----------------


-------------------------   --------------------
FINAL SINGLE POINT ENERGY     -3280.701926912137
-------------------------   --------------------


                            ***************************************
                            *     ORCA property calculations      *
                            ***************************************


  WARNING: The energy has been calculated at the MP2 level but the densities
           used in the property calculations are still SCF densities
           MP2 response densities have not been calculated 
           use %mp2 Density relaxed end
           or  %mp2 Density unrelaxed end

                                    ---------------------
                                    Active property flags
                                    ---------------------
   (+) Dipole Moment


------------------------------------------------------------------------------
                       ORCA ELECTRIC PROPERTIES CALCULATION
------------------------------------------------------------------------------

Dipole Moment Calculation                       ... on
Quadrupole Moment Calculation                   ... off
Polarizability Calculation                      ... off
GBWName                                         ... Cu2.gbw
Electron density file                           ... Cu2.scfp
The origin for moment calculation is the CENTER OF MASS  = ( 0.000000,  0.000000  2.097596)

-------------
DIPOLE MOMENT
-------------
                                X             Y             Z
Electronic contribution:     -0.00000      -0.00000       0.00000
Nuclear contribution   :      0.00000       0.00000       0.00000
                        -----------------------------------------
Total Dipole Moment    :     -0.00000      -0.00000       0.00000
                        -----------------------------------------
Magnitude (a.u.)       :      0.00000
Magnitude (Debye)      :      0.00000



--------------------
Rotational spectrum 
--------------------
 
Rotational constants in cm-1:     0.000000     0.107648     0.107648 
Rotational constants in MHz :     0.000000  3227.201597  3227.201597 

 Dipole components along the rotational axes: 
x,y,z [a.u.] :     0.000000    -0.000000    -0.000000 
x,y,z [Debye]:     0.000000    -0.000000    -0.000000 

 

Timings for individual modules:

Sum of individual times         ...      293.119 sec (=   4.885 min)
GTO integral calculation        ...        7.864 sec (=   0.131 min)   2.7 %
SCF iterations                  ...      263.129 sec (=   4.385 min)  89.8 %
MP2 module                      ...       22.126 sec (=   0.369 min)   7.5 %
                             ****ORCA TERMINATED NORMALLY****
TOTAL RUN TIME: 0 days 0 hours 6 minutes 21 seconds 863 msec
