
                                 *****************
                                 * O   R   C   A *
                                 *****************

           --- An Ab Initio, DFT and Semiempirical electronic structure package ---

                  #######################################################
                  #                        -***-                        #
                  #          Department of theory and spectroscopy      #
                  #               Directorship: Frank Neese             #
                  #        Max Planck Institute fuer Kohlenforschung    #
                  #                Kaiser Wilhelm Platz 1               #
                  #                 D-45470 Muelheim/Ruhr               #
                  #                      Germany                        #
                  #                                                     #
                  #                  All rights reserved                #
                  #                        -***-                        #
                  #######################################################


                         Program Version 4.2.0 -  RELEASE  -


 With contributions from (in alphabetic order):
   Daniel Aravena         : Magnetic Suceptibility
   Michael Atanasov       : Ab Initio Ligand Field Theory (pilot matlab implementation)
   Alexander A. Auer      : GIAO ZORA, VPT2
   Ute Becker             : Parallelization
   Giovanni Bistoni       : ED, misc. LED, open-shell LED, HFLED
   Martin Brehm           : Molecular dynamics
   Dmytro Bykov           : SCF Hessian
   Vijay G. Chilkuri      : MRCI spin determinant printing, contributions to CSF-ICE
   Dipayan Datta          : RHF DLPNO-CCSD density
   Achintya Kumar Dutta   : EOM-CC, STEOM-CC
   Dmitry Ganyushin       : Spin-Orbit,Spin-Spin,Magnetic field MRCI
   Miquel Garcia          : C-PCM Hessian, Gaussian charge scheme
   Yang Guo               : DLPNO-NEVPT2, CIM, IAO-localization
   Andreas Hansen         : Spin unrestricted coupled pair/coupled cluster methods
   Benjamin Helmich-Paris : CASSCF linear response (MC-RPA)
   Lee Huntington         : MR-EOM, pCC
   Robert Izsak           : Overlap fitted RIJCOSX, COSX-SCS-MP3, EOM
   Christian Kollmar      : KDIIS, OOCD, Brueckner-CCSD(T), CCSD density
   Simone Kossmann        : Meta GGA functionals, TD-DFT gradient, OOMP2, MP2 Hessian
   Martin Krupicka        : AUTO-CI
   Lucas Lang             : DCDCAS
   Dagmar Lenk            : GEPOL surface, SMD
   Dimitrios Liakos       : Extrapolation schemes; Compound Job, initial MDCI parallelization
   Dimitrios Manganas     : Further ROCIS development; embedding schemes
   Dimitrios Pantazis     : SARC Basis sets
   Taras Petrenko         : DFT Hessian,TD-DFT gradient, ASA, ECA, R-Raman, ABS, FL, XAS/XES, NRVS
   Peter Pinski           : DLPNO-MP2, DLPNO-MP2 Gradient
   Christoph Reimann      : Effective Core Potentials
   Marius Retegan         : Local ZFS, SOC
   Christoph Riplinger    : Optimizer, TS searches, QM/MM, DLPNO-CCSD(T), (RO)-DLPNO pert. Triples
   Tobias Risthaus        : Range-separated hybrids, TD-DFT gradient, RPA, STAB
   Michael Roemelt        : Original ROCIS implementation
   Masaaki Saitow         : Open-shell DLPNO-CCSD energy and density
   Barbara Sandhoefer     : DKH picture change effects
   Avijit Sen             : IP-ROCIS
   Kantharuban Sivalingam : CASSCF convergence, NEVPT2, FIC-MRCI
   Bernardo de Souza      : ESD, SOC TD-DFT
   Georgi Stoychev        : AutoAux, RI-MP2 NMR
   Willem Van den Heuvel  : Paramagnetic NMR
   Boris Wezisla          : Elementary symmetry handling
   Frank Wennmohs         : Technical directorship


 We gratefully acknowledge several colleagues who have allowed us to
 interface, adapt or use parts of their codes:
   Stefan Grimme, W. Hujo, H. Kruse,             : VdW corrections, initial TS optimization,
                  C. Bannwarth                     DFT functionals, gCP, sTDA/sTD-DF
   Ed Valeev, F. Pavosevic, A. Kumar             : LibInt (2-el integral package), F12 methods
   Garnet Chan, S. Sharma, J. Yang, R. Olivares  : DMRG
   Ulf Ekstrom                                   : XCFun DFT Library
   Mihaly Kallay                                 : mrcc  (arbitrary order and MRCC methods)
   Andreas Klamt, Michael Diedenhofen            : otool_cosmo (COSMO solvation model)
   Jiri Pittner, Ondrej Demel                    : Mk-CCSD
   Frank Weinhold                                : gennbo (NPA and NBO analysis)
   Christopher J. Cramer and Donald G. Truhlar   : smd solvation model
   Lars Goerigk                                  : TD-DFT with DH, B97 family of functionals
   V. Asgeirsson, H. Jonsson                     : NEB implementation
   FAccTs GmbH                                   : IRC, NEB, NEB-TS, Multilevel, MM, QM/MM, CI optimization
   S Lehtola, MJT Oliveira, MAL Marques          : LibXC Library


 Your calculation uses the libint2 library for the computation of 2-el integrals
 For citations please refer to: http://libint.valeyev.net

 Your ORCA version has been built with support for libXC version: 4.2.3
 For citations please refer to: https://tddft.org/programs/libxc/

 This ORCA versions uses:
   CBLAS   interface :  Fast vector & matrix operations
   LAPACKE interface :  Fast linear algebra routines
   SCALAPACK package :  Parallel linear algebra routines


Your calculation utilizes the atom-pairwise dispersion correction
with the Becke-Johnson damping scheme (D3BJ)
Cite in your paper:
S.Grimme, S.Ehrlich, L.Goerigk, J Comput Chem, (2011), 32, 1456–1465 
S.Grimme, J.Antony, S.Ehrlich and H.Krieg, J.Chem.Phys., 132, (2010), 154104 
   

----- Orbital basis set information -----
Your calculation utilizes the basis: def2-TZVPPD
   F. Weigend and R. Ahlrichs, Phys. Chem. Chem. Phys. 7, 3297 (2005).
   D. Rappoport and F. Furche, J. Chem. Phys. 133 134105 (2010).

----- AuxC basis set information -----
Your calculation utilizes the auxiliary basis: def2-TZVPPD/C
   A. Hellweg, C. Hattig, S. Hofener and W. Klopper, Theor. Chem. Acc. 117, 587 (2007).

----- AuxJK basis set information -----
Your calculation utilizes the auxiliary basis: def2/JK
   H-Ba, Hf-Rn: F. Weigend, J. Comput. Chem. 29, 167 (2008).

cite the ECPs for Ag [Def2-ECP] as follows:
Ce-Yb(ecp-28): M. Dolg, H. Stoll, H.Preuss, J. Chem. Phys., 1989, 90, 1730-1734.
Y-Cd(ecp-28), Hf-Hg(ecp-46): D. Andrae,U. Haeussermann, M. Dolg, H. Stoll, H. Preuss, Theor. Chim. Acta, 1990, 77, 123-141.
In-Sb(ecp-28), Tl-Bi(ecp-46): B. Metz, H. Stoll, M. Dolg, J. Chem. Phys., 2000, 113, 2563-2569.
Te-Xe(ecp-28), Po-Rn(ecp-46): K. A. Peterson, D. Figgen, E. Goll, H. Stoll, M. Dolg, J. Chem. Phys., 2003, 119, 11113-11123.
Rb(ecp-28), Cs(ecp-46): T. Leininger, A. Nicklass, W. Kuechle, H. Stoll, M. Dolg, A. Bergner, Chem. Phys. Lett., 1996, 255, 274-280.
Sr(ecp-28), Ba(ecp-46): M. Kaupp, P. V. Schleyer, H. Stoll and H. Preuss, J. Chem. Phys., 1991, 94, 1360-1366.
La(ecp-46): M. Dolg, H. Stoll, A. Savin, H. Preuss, Theor. Chim. Acta, 1989, 75, 173-194.
Lu(ecp-28): X. Cao, M. Dolg, J. Chem. Phys., 2001, 115, 7348-7355.

ECP parameters for Ag [Def2-ECP] have been obtained from:
TURBOMOLE (7.0.2)

================================================================================
                                        WARNINGS
                       Please study these warnings very carefully!
================================================================================


WARNING: No MP2 level density has been requested!
         To caclulate MP2 level properties use
         %mp2 Density relaxed end
         or
         %mp2 Density unrelaxed end
         Otherwise for double-hybrid DFT only the energy is correct!

WARNING: The frozen-core approximation is turned on by default for 
         the MP2 part of double-hybrid DFT.

INFO   : the flag for use of LIBINT has been found!

================================================================================
                                       INPUT FILE
================================================================================
NAME = CuAg.in
|  1> #
|  2> # CuAg ri-B2PLYP-D3BJ/Def2-TZVPPD
|  3> #
|  4> ! rijk ri-b2plyp d3bj def2-tzvppd def2/jk def2-tzvppd/c grid4 nofinalgrid
|  5> 
|  6> *xyz 0 1
|  7> Cu         0.00000        0.00000        0.00000
|  8> Ag         0.00000        0.00000        2.25929
|  9> *
| 10> 
| 11> %maxcore 5000
| 12> 
| 13> %pal
| 14> nprocs = 28
| 15> end
| 16> 
| 17> 
| 18>                          ****END OF INPUT****
================================================================================

                       ****************************
                       * Single Point Calculation *
                       ****************************

---------------------------------
CARTESIAN COORDINATES (ANGSTROEM)
---------------------------------
  Cu     0.000000    0.000000    0.000000
  Ag     0.000000    0.000000    2.259290

----------------------------
CARTESIAN COORDINATES (A.U.)
----------------------------
  NO LB      ZA    FRAG     MASS         X           Y           Z
   0 Cu   29.0000    0    63.550    0.000000    0.000000    0.000000
   1 Ag   19.0000*   0   107.870    0.000000    0.000000    4.269439
* core charge reduced due to ECP

--------------------------------
INTERNAL COORDINATES (ANGSTROEM)
--------------------------------
 Cu     0   0   0     0.000000000000     0.00000000     0.00000000
 Ag     1   0   0     2.259290000000     0.00000000     0.00000000

---------------------------
INTERNAL COORDINATES (A.U.)
---------------------------
 Cu     0   0   0     0.000000000000     0.00000000     0.00000000
 Ag     1   0   0     4.269439357107     0.00000000     0.00000000

---------------------
BASIS SET INFORMATION
---------------------
There are 2 groups of distinct atoms

 Group   1 Type Cu  : 17s13p7d2f1g contracted to 6s6p4d2f1g pattern {842111/631111/4111/11/1}
 Group   2 Type Ag  : 7s7p6d2f1g contracted to 6s4p3d2f1g pattern {211111/4111/411/11/1}

Atom   0Cu   basis set group =>   1
Atom   1Ag   basis set group =>   2
---------------------------------
AUXILIARY/C BASIS SET INFORMATION
---------------------------------
There are 2 groups of distinct atoms

 Group   1 Type Cu  : 10s10p9d7f5g3h1i contracted to 10s10p9d7f5g3h1i pattern {1111111111/1111111111/111111111/1111111/11111/111/1}
 Group   2 Type Ag  : 8s7p6d5f4g3h1i contracted to 8s7p6d5f4g3h1i pattern {11111111/1111111/111111/11111/1111/111/1}

Atom   0Cu   basis set group =>   1
Atom   1Ag   basis set group =>   2
----------------------------------
AUXILIARY/JK BASIS SET INFORMATION
----------------------------------
There are 2 groups of distinct atoms

 Group   1 Type Cu  : 19s14p12d10f7g3h1i contracted to 16s13p11d9f5g3h1i pattern {4111111111111111/2111111111111/21111111111/211111111/31111/111/1}
 Group   2 Type Ag  : 13s12p10d9f6g3h2i contracted to 11s10p9d8f6g3h2i pattern {31111111111/3111111111/211111111/21111111/111111/111/11}

Atom   0Cu   basis set group =>   1
Atom   1Ag   basis set group =>   2
-------------------------
ECP PARAMETER INFORMATION
-------------------------

 Group 1, Type Ag ECP Def2-ECP (replacing 28 core electrons, lmax=3)

Atom   1Ag   ECP group =>   1



           ************************************************************
           *        Program running with 28 parallel MPI-processes    *
           *              working on a common directory               *
           ************************************************************
------------------------------------------------------------------------------
                           ORCA GTO INTEGRAL CALCULATION
                           -- RI-GTO INTEGRALS CHOSEN --
------------------------------------------------------------------------------

                         BASIS SET STATISTICS AND STARTUP INFO

Gaussian basis set:
 # of primitive gaussian shells          ...   63
 # of primitive gaussian functions       ...  195
 # of contracted shells                  ...   35
 # of contracted basis functions         ...  123
 Highest angular momentum                ...    4
 Maximum contraction depth               ...    8
Auxiliary gaussian basis set:
 # of primitive gaussian shells          ...  121
 # of primitive gaussian functions       ...  575
 # of contracted shells                  ...  107
 # of contracted aux-basis functions     ...  519
 Highest angular momentum                ...    6
 Maximum contraction depth               ...    4
Ratio of auxiliary to basis functions    ...  4.22
Integral package used                  ... LIBINT
 One Electron integrals                  
   ECP integrals                         ... done
 Ordering auxiliary basis shells         ... done
 Integral threshhold             Thresh  ...  1.000e-10
 Primitive cut-off               TCut    ...  1.000e-11
 Pre-screening matrix                    ... done
 Shell pair data                         ... 
 Ordering of the shell pairs             ... done (   0.000 sec) 612 of 630 pairs
 Determination of significant pairs      ... done (   0.000 sec)
 Creation of shell pair data             ... done (   0.000 sec)
 Storage of shell pair data              ... done (   0.025 sec)
 Shell pair data done in (   0.025 sec)
 Computing two index integrals           ... done
 Cholesky decomposition of the V-matrix  ... done


Timings:
 Total evaluation time                   ...   0.824 sec (  0.014 min)
 One electron matrix time                ...   0.295 sec (  0.005 min) = 35.8%
 Schwartz matrix evaluation time         ...   0.235 sec (  0.004 min) = 28.6%
 Two index repulsion integral time       ...   0.166 sec (  0.003 min) = 20.2%
 Cholesky decomposition of V             ...   0.042 sec (  0.001 min) =  5.1%
 Three index repulsion integral time     ...   0.000 sec (  0.000 min) =  0.0%



           ************************************************************
           *        Program running with 28 parallel MPI-processes    *
           *              working on a common directory               *
           ************************************************************
-------------------------------------------------------------------------------
                                 ORCA SCF
-------------------------------------------------------------------------------

------------
SCF SETTINGS
------------
Hamiltonian:
 Density Functional     Method          .... DFT(GTOs)
 Exchange Functional    Exchange        .... B88
   X-Alpha parameter    XAlpha          ....  0.666667
   Becke's b parameter  XBeta           ....  0.004200
 Correlation Functional Correlation     .... LYP
 LDA part of GGA corr.  LDAOpt          .... VWN-3
 Gradients option       PostSCFGGA      .... off
 Hybrid DFT is turned on
   Fraction HF Exchange ScalHFX         ....  0.530000
   Scaling of DF-GGA-X  ScalDFX         ....  0.470000
   Scaling of DF-GGA-C  ScalDFC         ....  0.730000
   Scaling of DF-LDA-C  ScalLDAC        ....  0.730000
   Perturbative correction              ....  0.270000
   Density functional embedding theory  .... OFF
 RI-approximation to the Coulomb term is turned on
   Number of auxiliary basis functions  .... 519
   RI-JK (J+K treated both via RI)      .... on


General Settings:
 Integral files         IntName         .... CuAg
 Hartree-Fock type      HFTyp           .... RHF
 Total Charge           Charge          ....    0
 Multiplicity           Mult            ....    1
 Number of Electrons    NEL             ....   48
 Basis Dimension        Dim             ....  123
 Nuclear Repulsion      ENuc            ....    129.0567575536 Eh

Convergence Acceleration:
 DIIS                   CNVDIIS         .... on
   Start iteration      DIISMaxIt       ....    12
   Startup error        DIISStart       ....  0.200000
   # of expansion vecs  DIISMaxEq       ....     5
   Bias factor          DIISBfac        ....   1.050
   Max. coefficient     DIISMaxC        ....  10.000
 Newton-Raphson         CNVNR           .... off
 SOSCF                  CNVSOSCF        .... off
 Level Shifting         CNVShift        .... on
   Level shift para.    LevelShift      ....    0.2500
   Turn off err/grad.   ShiftErr        ....    0.0010
 Zerner damping         CNVZerner       .... off
 Static damping         CNVDamp         .... on
   Fraction old density DampFac         ....    0.7000
   Max. Damping (<1)    DampMax         ....    0.9800
   Min. Damping (>=0)   DampMin         ....    0.0000
   Turn off err/grad.   DampErr         ....    0.1000
 Fernandez-Rico         CNVRico         .... off

SCF Procedure:
 Maximum # iterations   MaxIter         ....   125
 SCF integral mode      SCFMode         .... Direct
   Integral package                     .... LIBINT
 Reset frequency        DirectResetFreq ....    20
 Integral Threshold     Thresh          ....  1.000e-10 Eh
 Primitive CutOff       TCut            ....  1.000e-11 Eh

Convergence Tolerance:
 Convergence Check Mode ConvCheckMode   .... Total+1el-Energy
 Convergence forced     ConvForced      .... 0
 Energy Change          TolE            ....  1.000e-06 Eh
 1-El. energy change                    ....  1.000e-03 Eh
 DIIS Error             TolErr          ....  1.000e-06


Diagonalization of the overlap matrix:
Smallest eigenvalue                        ... 1.389e-03
Time for diagonalization                   ...    0.011 sec
Threshold for overlap eigenvalues          ... 1.000e-08
Number of eigenvalues below threshold      ... 0
Time for construction of square roots      ...    0.153 sec
Total time needed                          ...    0.163 sec

-------------------
DFT GRID GENERATION
-------------------

General Integration Accuracy     IntAcc      ...  4.670
Radial Grid Type                 RadialGrid  ... Gauss-Chebyshev
Angular Grid (max. acc.)         AngularGrid ... Lebedev-302
Angular grid pruning method      GridPruning ... 3 (G Style)
Weight generation scheme         WeightScheme... Becke
Basis function cutoff            BFCut       ...    1.0000e-10
Integration weight cutoff        WCut        ...    1.0000e-14
Grids for H and He will be reduced by one unit

# of grid points (after initial pruning)     ...  20214 (   0.0 sec)
# of grid points (after weights+screening)   ...  20181 (   0.0 sec)
nearest neighbour list constructed           ...    0.0 sec
Grid point re-assignment to atoms done       ...    0.0 sec
Grid point division into batches done        ...    0.3 sec
Reduced shell lists constructed in    0.3 sec

Total number of grid points                  ...    20181
Total number of batches                      ...      316
Average number of points per batch           ...       63
Average number of grid points per atom       ...    10090
Average number of shells per batch           ...     5.15 (14.73%)
Average number of basis functions per batch  ...    13.62 (11.07%)
Average number of large shells per batch     ...     3.77 (73.13%)
Average number of large basis fcns per batch ...     9.46 (69.49%)
Average number of aux-shells per batch       ...     5.15 ( 4.82%)
Average number of aux functions per batch    ...    13.62 ( 2.62%)
Maximum spatial batch extension              ...  24.44, 24.44, 21.72 au
Average spatial batch extension              ...   0.84,  0.84,  0.61 au

Time for grid setup =    2.490 sec

------------------------------
INITIAL GUESS: MODEL POTENTIAL
------------------------------
Loading Hartree-Fock densities                     ... done
  calling /mnt/storage/software/apps/orca-4.2.0/orca_4_2_0_linux_x86-64_openmpi314/orca CuAg_atom47.inp > CuAg_atom47.out in order to generate an atomic fitting density for atom 1 (Ag with ECP) on-the-fly... 
    atom 1 (Ag), assumed electronic state with S=2: 1s2 2s2 2p6 3s2 3p6 4s2 3d10 4p6 5s2 4d9           ... done
Calculating cut-offs                               ... done
Setting up the integral package                    ... done
Initializing the effective Hamiltonian             ... done
Starting the Coulomb interaction                   ... done (   0.0 sec)
Reading the grid                                   ... done
Mapping shells                                     ... done
Starting the XC term evaluation                    ... done (   0.0 sec)
  promolecular density results
     # of electrons  =     76.000936569
     EX              =   -209.875184334
     EC              =     -1.423458775
     EX+EC           =   -211.298643109
Transforming the Hamiltonian                       ... done (   0.1 sec)
Diagonalizing the Hamiltonian                      ... done (   0.0 sec)
Back transforming the eigenvectors                 ... done (   0.0 sec)
Now organizing SCF variables                       ... done
                      ------------------
                      INITIAL GUESS DONE (  17.8 sec)
                      ------------------
--------------
SCF ITERATIONS
--------------
ITER       Energy         Delta-E        Max-DP      RMS-DP      [F,P]     Damp
  0  -1786.6638811396   0.000000000000 0.11481524  0.00220399  0.4875517 0.7000
  1  -1786.4468977427   0.216983396930 0.07853158  0.00184328  0.3367245 0.7000
  2  -1786.5613001965  -0.114402453819 0.06637191  0.00115481  0.2196523 0.7000
                               ***Turning on DIIS***
  3  -1786.7170863145  -0.155786118010 0.05392929  0.00075204  0.1468277 0.7000
  4  -1786.7863819933  -0.069295678754 0.04298315  0.00055662  0.1023858 0.7000
  5  -1786.7875345749  -0.001152581659 0.09722395  0.00138213  0.0740224 0.0000
  6  -1786.7769004353   0.010634139617 0.01659542  0.00028781  0.0203115 0.0000
  7  -1786.7776287833  -0.000728347934 0.00312250  0.00011719  0.0048150 0.0000
  8  -1786.7777147615  -0.000085978193 0.00197671  0.00004508  0.0030184 0.0000
  9  -1786.7777275647  -0.000012803264 0.00236915  0.00004663  0.0005660 0.0000
 10  -1786.7777303859  -0.000002821226 0.00088689  0.00001592  0.0001860 0.0000
 11  -1786.7777307074  -0.000000321460 0.00028462  0.00000456  0.0000730 0.0000
 12  -1786.7777307455  -0.000000038119 0.00003282  0.00000091  0.0000419 0.0000
                 **** Energy Check signals convergence ****

               *****************************************************
               *                     SUCCESS                       *
               *           SCF CONVERGED AFTER  13 CYCLES          *
               *****************************************************


----------------
TOTAL SCF ENERGY
----------------

Total Energy       :        -1786.77773075 Eh          -48620.69388 eV

Components:
Nuclear Repulsion  :          129.05675755 Eh            3511.81291 eV
Electronic Energy  :        -1915.83448830 Eh          -52132.50679 eV
One Electron Energy:        -2808.34634907 Eh          -76418.98922 eV
Two Electron Energy:          892.51186077 Eh           24286.48243 eV

Virial components:
Potential Energy   :        -3481.65610263 Eh          -94740.67908 eV
Kinetic Energy     :         1694.87837188 Eh           46119.98519 eV
Virial Ratio       :            2.05422180


DFT components:
N(Alpha)           :       23.999997387363 electrons
N(Beta)            :       23.999997387363 electrons
N(Total)           :       47.999994774727 electrons
E(X)               :      -37.328950294674 Eh       
E(C)               :       -1.536786537370 Eh       
E(XC)              :      -38.865736832043 Eh       
DFET-embed. en.    :        0.000000000000 Eh       

---------------
SCF CONVERGENCE
---------------

  Last Energy change         ...   -4.6859e-09  Tolerance :   1.0000e-06
  Last MAX-Density change    ...    3.1970e-05  Tolerance :   1.0000e-05
  Last RMS-Density change    ...    5.0075e-07  Tolerance :   1.0000e-06
  Last DIIS Error            ...    1.3281e-05  Tolerance :   1.0000e-06

             **** THE GBW FILE WAS UPDATED (CuAg.gbw) ****
             **** DENSITY FILE WAS UPDATED (CuAg.scfp) ****
             **** ENERGY FILE WAS UPDATED (CuAg.en.tmp) ****
             **** THE GBW FILE WAS UPDATED (CuAg.gbw) ****
             **** DENSITY FILE WAS UPDATED (CuAg.scfp) ****
----------------
ORBITAL ENERGIES
----------------

  NO   OCC          E(Eh)            E(eV) 
   0   2.0000    -325.409958     -8854.8551 
   1   2.0000     -39.619617     -1078.1046 
   2   2.0000     -34.655040      -943.0116 
   3   2.0000     -34.655040      -943.0116 
   4   2.0000     -34.654980      -943.0100 
   5   2.0000      -4.570352      -124.3656 
   6   2.0000      -3.970746      -108.0495 
   7   2.0000      -2.990935       -81.3875 
   8   2.0000      -2.987061       -81.2821 
   9   2.0000      -2.987061       -81.2821 
  10   2.0000      -2.508248       -68.2529 
  11   2.0000      -2.502831       -68.1055 
  12   2.0000      -2.502831       -68.1055 
  13   2.0000      -0.422038       -11.4842 
  14   2.0000      -0.405681       -11.0391 
  15   2.0000      -0.405681       -11.0391 
  16   2.0000      -0.389220       -10.5912 
  17   2.0000      -0.389217       -10.5911 
  18   2.0000      -0.343377        -9.3438 
  19   2.0000      -0.343369        -9.3435 
  20   2.0000      -0.336100        -9.1458 
  21   2.0000      -0.336100        -9.1458 
  22   2.0000      -0.329053        -8.9540 
  23   2.0000      -0.224829        -6.1179 
  24   0.0000      -0.043647        -1.1877 
  25   0.0000       0.007289         0.1983 
  26   0.0000       0.007289         0.1983 
  27   0.0000       0.032387         0.8813 
  28   0.0000       0.069405         1.8886 
  29   0.0000       0.069405         1.8886 
  30   0.0000       0.090875         2.4728 
  31   0.0000       0.138983         3.7819 
  32   0.0000       0.173163         4.7120 
  33   0.0000       0.173163         4.7120 
  34   0.0000       0.198595         5.4040 
  35   0.0000       0.202948         5.5225 
  36   0.0000       0.222057         6.0425 
  37   0.0000       0.222058         6.0425 
  38   0.0000       0.249161         6.7800 
  39   0.0000       0.249161         6.7800 
  40   0.0000       0.313822         8.5395 
  41   0.0000       0.316045         8.6000 
  42   0.0000       0.316045         8.6000 
  43   0.0000       0.510057        13.8794 
  44   0.0000       0.510437        13.8897 
  45   0.0000       0.510437        13.8897 
  46   0.0000       0.633916        17.2497 
  47   0.0000       0.633916        17.2497 
  48   0.0000       0.708398        19.2765 
  49   0.0000       0.753222        20.4962 
  50   0.0000       0.753222        20.4962 
  51   0.0000       0.834845        22.7173 
  52   0.0000       0.986667        26.8486 
  53   0.0000       0.986670        26.8487 
  54   0.0000       1.000592        27.2275 
  55   0.0000       1.000592        27.2275 
  56   0.0000       1.117025        30.3958 
  57   0.0000       1.731102        47.1057 
  58   0.0000       1.731106        47.1058 
  59   0.0000       1.731773        47.1239 
  60   0.0000       1.731773        47.1239 
  61   0.0000       1.769228        48.1431 
  62   0.0000       1.769228        48.1431 
  63   0.0000       1.811144        49.2837 
  64   0.0000       1.811144        49.2837 
  65   0.0000       1.827054        49.7167 
  66   0.0000       1.933336        52.6087 
  67   0.0000       2.217249        60.3344 
  68   0.0000       2.217252        60.3345 
  69   0.0000       2.303638        62.6852 
  70   0.0000       2.303638        62.6852 
  71   0.0000       2.313583        62.9558 
  72   0.0000       2.433112        66.2083 
  73   0.0000       3.218490        87.5796 
  74   0.0000       3.218490        87.5796 
  75   0.0000       3.336729        90.7970 
  76   0.0000       3.388850        92.2153 
  77   0.0000       3.608542        98.1934 
  78   0.0000       3.608552        98.1937 
  79   0.0000       3.611141        98.2641 
  80   0.0000       3.611141        98.2641 
  81   0.0000       3.625232        98.6476 
  82   0.0000       3.625232        98.6476 
  83   0.0000       3.764293       102.4316 
  84   0.0000       3.906847       106.3107 
  85   0.0000       3.906904       106.3123 
  86   0.0000       3.949037       107.4588 
  87   0.0000       3.949037       107.4588 
  88   0.0000       4.174558       113.5955 
  89   0.0000       5.086112       138.4001 
  90   0.0000       5.086112       138.4001 
  91   0.0000       5.087272       138.4317 
  92   0.0000       5.087294       138.4323 
  93   0.0000       5.146463       140.0424 
  94   0.0000       5.146463       140.0424 
  95   0.0000       5.350846       145.6039 
  96   0.0000       5.793472       157.6484 
  97   0.0000       5.793510       157.6494 
  98   0.0000       5.795790       157.7115 
  99   0.0000       5.795790       157.7115 
 100   0.0000       5.798759       157.7923 
 101   0.0000       5.798970       157.7980 
 102   0.0000       5.800452       157.8383 
 103   0.0000       5.800452       157.8383 
 104   0.0000       5.821573       158.4130 
 105   0.0000      13.317204       362.3796 
 106   0.0000      13.317204       362.3796 
 107   0.0000      13.317985       362.4008 
 108   0.0000      13.318527       362.4156 
 109   0.0000      13.318656       362.4191 
 110   0.0000      13.319975       362.4549 
 111   0.0000      13.319975       362.4549 
 112   0.0000      13.321608       362.4994 
 113   0.0000      13.321811       362.5049 
 114   0.0000      13.524934       368.0322 
 115   0.0000      13.525135       368.0376 
 116   0.0000      13.525304       368.0422 
 117   0.0000      13.525304       368.0422 
 118   0.0000      13.533915       368.2765 
 119   0.0000      13.533915       368.2765 
 120   0.0000      13.577207       369.4546 
 121   0.0000      33.690687       916.7702 
 122   0.0000     109.532353      2980.5268 

                    ********************************
                    * MULLIKEN POPULATION ANALYSIS *
                    ********************************

-----------------------
MULLIKEN ATOMIC CHARGES
-----------------------
   0 Cu:    0.158224
   1 Ag:   -0.158224
Sum of atomic charges:    0.0000000

--------------------------------
MULLIKEN REDUCED ORBITAL CHARGES
--------------------------------
  0 Cus       :     6.824155  s :     6.824155
      pz      :     4.015267  p :    12.032973
      px      :     4.008853
      py      :     4.008853
      dz2     :     1.989814  d :     9.984219
      dxz     :     1.996479
      dyz     :     1.996479
      dx2y2   :     2.000724
      dxy     :     2.000724
      f0      :     0.000187  f :     0.000428
      f+1     :     0.000106
      f-1     :     0.000106
      f+2     :     0.000014
      f-2     :     0.000014
      f+3     :     0.000000
      f-3     :     0.000000
      g0      :     0.000001  g :     0.000001
      g+1     :     0.000000
      g-1     :     0.000000
      g+2     :     0.000000
      g-2     :     0.000000
      g+3     :     0.000000
      g-3     :     0.000000
      g+4     :     0.000000
      g-4     :     0.000000
  1 Ags       :     3.142062  s :     3.142062
      pz      :     2.058213  p :     6.067993
      px      :     2.004890
      py      :     2.004890
      dz2     :     1.969479  d :     9.946355
      dxz     :     1.989249
      dyz     :     1.989249
      dx2y2   :     1.999188
      dxy     :     1.999188
      f0      :     0.000806  f :     0.001780
      f+1     :     0.000415
      f-1     :     0.000415
      f+2     :     0.000072
      f-2     :     0.000072
      f+3     :     0.000000
      f-3     :     0.000000
      g0      :     0.000016  g :     0.000034
      g+1     :     0.000007
      g-1     :     0.000007
      g+2     :     0.000001
      g-2     :     0.000001
      g+3     :     0.000000
      g-3     :     0.000000
      g+4     :     0.000000
      g-4     :     0.000000


                     *******************************
                     * LOEWDIN POPULATION ANALYSIS *
                     *******************************

----------------------
LOEWDIN ATOMIC CHARGES
----------------------
   0 Cu:   -0.102231
   1 Ag:    0.102231

-------------------------------
LOEWDIN REDUCED ORBITAL CHARGES
-------------------------------
  0 Cus       :     6.894655  s :     6.894655
      pz      :     4.131432  p :    12.160019
      px      :     4.014294
      py      :     4.014294
      dz2     :     2.041939  d :    10.046904
      dxz     :     2.000138
      dyz     :     2.000138
      dx2y2   :     2.002344
      dxy     :     2.002344
      f0      :     0.000295  f :     0.000651
      f+1     :     0.000160
      f-1     :     0.000160
      f+2     :     0.000018
      f-2     :     0.000018
      f+3     :     0.000000
      f-3     :     0.000000
      g0      :     0.000001  g :     0.000002
      g+1     :     0.000001
      g-1     :     0.000001
      g+2     :     0.000000
      g-2     :     0.000000
      g+3     :     0.000000
      g-3     :     0.000000
      g+4     :     0.000000
      g-4     :     0.000000
  1 Ags       :     2.858811  s :     2.858811
      pz      :     2.087513  p :     6.095530
      px      :     2.004008
      py      :     2.004008
      dz2     :     1.983750  d :     9.939842
      dxz     :     1.980506
      dyz     :     1.980506
      dx2y2   :     1.997540
      dxy     :     1.997540
      f0      :     0.001579  f :     0.003525
      f+1     :     0.000877
      f-1     :     0.000877
      f+2     :     0.000096
      f-2     :     0.000096
      f+3     :     0.000000
      f-3     :     0.000000
      g0      :     0.000026  g :     0.000061
      g+1     :     0.000016
      g-1     :     0.000016
      g+2     :     0.000002
      g-2     :     0.000002
      g+3     :     0.000000
      g-3     :     0.000000
      g+4     :     0.000000
      g-4     :     0.000000


                      *****************************
                      * MAYER POPULATION ANALYSIS *
                      *****************************

  NA   - Mulliken gross atomic population
  ZA   - Total nuclear charge
  QA   - Mulliken gross atomic charge
  VA   - Mayer's total valence
  BVA  - Mayer's bonded valence
  FA   - Mayer's free valence

  ATOM       NA         ZA         QA         VA         BVA        FA
  0 Cu    28.8418    29.0000     0.1582     1.0460     1.0460     0.0000
  1 Ag    19.1582    19.0000    -0.1582     1.0460     1.0460     0.0000

  Mayer bond orders larger than 0.100000
B(  0-Cu,  1-Ag) :   1.0460 

-------
TIMINGS
-------

Total SCF time: 0 days 0 hours 4 min 49 sec 

Total time                  ....     289.103 sec
Sum of individual times     ....     287.663 sec  ( 99.5%)

Fock matrix formation       ....     266.296 sec  ( 92.1%)
  XC integration            ....     259.300 sec  ( 97.4% of F)
    Basis function eval.    ....       0.036 sec  (  0.0% of XC)
    Density eval.           ....       0.022 sec  (  0.0% of XC)
    XC-Functional eval.     ....       0.024 sec  (  0.0% of XC)
    XC-Potential eval.      ....       0.038 sec  (  0.0% of XC)
Diagonalization             ....       2.760 sec  (  1.0%)
Density matrix formation    ....       0.093 sec  (  0.0%)
Population analysis         ....       0.504 sec  (  0.2%)
Initial guess               ....      15.328 sec  (  5.3%)
Orbital Transformation      ....       0.000 sec  (  0.0%)
Orbital Orthonormalization  ....       0.000 sec  (  0.0%)
DIIS solution               ....       0.192 sec  (  0.1%)
Grid generation             ....       2.490 sec  (  0.9%)


           ************************************************************
           *        Program running with 28 parallel MPI-processes    *
           *              working on a common directory               *
           ************************************************************

------------------------------------------------------------------------------
                                ORCA  MP2 
------------------------------------------------------------------------------

Freezing NCore=10 chemical core electrons

-------------
RI-MP2 ENERGY
-------------
Dimension of the basis                    ...  123
Memory devoted to MP2                     ... 5000 MB   
Data format for buffers                   ... DOUBLE
Compression type for matrix containers    ... UNCOMPRESSED
Overall scaling of the MP2 energy         ...   2.700e-01
Calculating two index integrals           ... done (    0.026 sec)
Cholesky decomposition of V**-1           ... done (    0.141 sec)

-----------------
RI-TRANSFORMATION (AUX index driven)
-----------------

Dimension of the orbital-basis         ... 123
Dimension of the aux-basis             ... 401
Transformation of internal/external MOs...    5-  23 to   24- 122
Number Format for Storage              ... Double (8 Byte)
Integral mode                          ... Direct

First Phase: integral generation and transformation of MO indices
  Aux angular momentum 0               ... done (    0.001 sec)
  Aux angular momentum 1               ... done (    0.001 sec)
  Aux angular momentum 2               ... done (    0.001 sec)
  Aux angular momentum 3               ... done (    0.002 sec)
  Aux angular momentum 4               ... done (    0.005 sec)
  Aux angular momentum 5               ... done (    0.005 sec)
  Aux angular momentum 6               ... done (    0.008 sec)
Closing buffer VIA ( 0.01 GB; CompressionRatio= 1.00)
  Phase 1 completed in     4.194 sec
Second Phase: sorting and transformation of aux index

IA-Transformation
Memory available                       ... 4998 MB 
Max. # MO pairs treated in a batch     ... 1    
# of internal orbitals                 ... 19
# batches for internal orbitals        ... 1
Closing buffer IAV ( 0.00 GB; CompressionRatio= 1.00)
(ia|v) transformation done in     1.756 sec

  Phase 2 completed in     4.849 sec
RI-Integral transformation completed in    10.450 sec
Opening buffers                              ... done

Starting loop over batches of integrals:

Operator 0  - window                       ... (  5- 23)x( 24-122)
Operator 0  - Memory available             ...  5000 MB
Operator 0  - Memory needed per MO         ...   0.3 MB
Operator 0  - Number of orbitals per batch ... 1
Operator 0  - Number of batches            ... 1

OPERATOR  0   PASS   0:  MOs     5 ...    5 +    6 ...    6 +    7 ...    7 +    8 ...    8
                            +    9 ...    9 +   10 ...   10 +   11 ...   11 +   12 ...   12
                            +   13 ...   13 +   14 ...   14 +   15 ...   15 +   16 ...   16
                            +   17 ...   17 +   18 ...   18 +   19 ...   19 +   20 ...   20
                            +   21 ...   21 +   22 ...   22 +   23 ...   23
  Reading integrals       ... ok
Time spent in pair loops =     0.033 sec
Deleting buffer (Ka|jb)[aa] ...done

-----------------------------------------------
 RI-MP2 CORRELATION ENERGY:     -0.485718994 Eh
-----------------------------------------------


-------
TIMINGS
-------

Total time                :   11.755 sec
Integral trafo            :   10.468 sec ( 89.0%)
I/O of integrals          :    0.001 sec (  0.0%)
K(i,j) Operators          :    0.000 sec (  0.0%)
T(i,j) pair energies      :    0.003 sec (  0.0%)
V-calculation             :    0.026 sec (  0.2%)
V**(-1/2)                 :    0.141 sec (  1.2%)
Gamma(ia|P)               :    0.000 sec (  0.0%)
Gamma-Trafo               :    0.000 sec (  0.0%)
D(virtual)                :    0.000 sec (  0.0%)
D(internal)               :    0.000 sec (  0.0%)
W(virtual)                :    0.000 sec (  0.0%)
W(internal)               :    0.000 sec (  0.0%)
L(virtual)                :    0.000 sec (  0.0%)
L(internal)               :    0.000 sec (  0.0%)
G(D)                      :    0.000 sec (  0.0%)
G(Z)                      :    0.000 sec (  0.0%)
Z-Vector Solution         :    0.000 sec (  0.0%)
Z-Vector Solution         :    0.000 sec (  0.0%)
3-Index Derivative 
+ Separable RIJ part      :    0.000 sec (  0.0%)
2-Index Derivative 
+ Separable RIJ part      :    0.000 sec (  0.0%)
Separable Gradient (X)    :    0.000 sec (  0.0%)


---------------------------------------
MP2 TOTAL ENERGY:    -1787.263449744 Eh
---------------------------------------


-------------------------------------------------------------------------------
                          DFT DISPERSION CORRECTION                            
                                                                               
                              DFTD3 V3.1  Rev 1                                
                          USING Becke-Johnson damping                          
-------------------------------------------------------------------------------
The B2PLYP functional is recognized
Active option DFTDOPT                   ...         4   

molecular C6(AA) [au] = 885.761287 


            DFT-D V3
 parameters
 s6 scaling factor         :     0.6400 
 a1 scaling factor         :     0.3065 
 s8 scaling factor         :     0.9147 
 a2 scaling factor         :     5.0570 
 ad hoc parameters k1-k3   :    16.0000     1.3333    -4.0000 

 Edisp/kcal,au: -1.064068009295  -0.001695700128 
 E6   /kcal   :  -0.355344155 
 E8   /kcal   :  -0.708723854 
 % E8         :  66.605127473 

-------------------------   ----------------
Dispersion correction           -0.001695700
-------------------------   ----------------


-------------------------   --------------------
FINAL SINGLE POINT ENERGY     -1787.265145444580
-------------------------   --------------------


                            ***************************************
                            *     ORCA property calculations      *
                            ***************************************


  WARNING: The energy has been calculated at the MP2 level but the densities
           used in the property calculations are still SCF densities
           MP2 response densities have not been calculated 
           use %mp2 Density relaxed end
           or  %mp2 Density unrelaxed end

                                    ---------------------
                                    Active property flags
                                    ---------------------
   (+) Dipole Moment


------------------------------------------------------------------------------
                       ORCA ELECTRIC PROPERTIES CALCULATION
------------------------------------------------------------------------------

Dipole Moment Calculation                       ... on
Quadrupole Moment Calculation                   ... off
Polarizability Calculation                      ... off
GBWName                                         ... CuAg.gbw
Electron density file                           ... CuAg.scfp
The origin for moment calculation is the CENTER OF MASS  = ( 0.000000,  0.000000  2.686643)

-------------
DIPOLE MOMENT
-------------
                                X             Y             Z
Electronic contribution:      0.00000      -0.00000      47.79303
Nuclear contribution   :      0.00000       0.00000     -47.83954
                        -----------------------------------------
Total Dipole Moment    :      0.00000      -0.00000      -0.04651
                        -----------------------------------------
Magnitude (a.u.)       :      0.04651
Magnitude (Debye)      :      0.11821



--------------------
Rotational spectrum 
--------------------
 
Rotational constants in cm-1:     0.000000     0.082584     0.082584 
Rotational constants in MHz :     0.000000  2475.819054  2475.819054 

 Dipole components along the rotational axes: 
x,y,z [a.u.] :    -0.046507    -0.000000     0.000000 
x,y,z [Debye]:    -0.118211    -0.000000     0.000000 

 

Timings for individual modules:

Sum of individual times         ...      315.684 sec (=   5.261 min)
GTO integral calculation        ...        8.247 sec (=   0.137 min)   2.6 %
SCF iterations                  ...      291.984 sec (=   4.866 min)  92.5 %
MP2 module                      ...       15.453 sec (=   0.258 min)   4.9 %
                             ****ORCA TERMINATED NORMALLY****
TOTAL RUN TIME: 0 days 0 hours 6 minutes 28 seconds 401 msec
