
                                 *****************
                                 * O   R   C   A *
                                 *****************

           --- An Ab Initio, DFT and Semiempirical electronic structure package ---

                  #######################################################
                  #                        -***-                        #
                  #          Department of theory and spectroscopy      #
                  #               Directorship: Frank Neese             #
                  #        Max Planck Institute fuer Kohlenforschung    #
                  #                Kaiser Wilhelm Platz 1               #
                  #                 D-45470 Muelheim/Ruhr               #
                  #                      Germany                        #
                  #                                                     #
                  #                  All rights reserved                #
                  #                        -***-                        #
                  #######################################################


                         Program Version 4.2.0 -  RELEASE  -


 With contributions from (in alphabetic order):
   Daniel Aravena         : Magnetic Suceptibility
   Michael Atanasov       : Ab Initio Ligand Field Theory (pilot matlab implementation)
   Alexander A. Auer      : GIAO ZORA, VPT2
   Ute Becker             : Parallelization
   Giovanni Bistoni       : ED, misc. LED, open-shell LED, HFLED
   Martin Brehm           : Molecular dynamics
   Dmytro Bykov           : SCF Hessian
   Vijay G. Chilkuri      : MRCI spin determinant printing, contributions to CSF-ICE
   Dipayan Datta          : RHF DLPNO-CCSD density
   Achintya Kumar Dutta   : EOM-CC, STEOM-CC
   Dmitry Ganyushin       : Spin-Orbit,Spin-Spin,Magnetic field MRCI
   Miquel Garcia          : C-PCM Hessian, Gaussian charge scheme
   Yang Guo               : DLPNO-NEVPT2, CIM, IAO-localization
   Andreas Hansen         : Spin unrestricted coupled pair/coupled cluster methods
   Benjamin Helmich-Paris : CASSCF linear response (MC-RPA)
   Lee Huntington         : MR-EOM, pCC
   Robert Izsak           : Overlap fitted RIJCOSX, COSX-SCS-MP3, EOM
   Christian Kollmar      : KDIIS, OOCD, Brueckner-CCSD(T), CCSD density
   Simone Kossmann        : Meta GGA functionals, TD-DFT gradient, OOMP2, MP2 Hessian
   Martin Krupicka        : AUTO-CI
   Lucas Lang             : DCDCAS
   Dagmar Lenk            : GEPOL surface, SMD
   Dimitrios Liakos       : Extrapolation schemes; Compound Job, initial MDCI parallelization
   Dimitrios Manganas     : Further ROCIS development; embedding schemes
   Dimitrios Pantazis     : SARC Basis sets
   Taras Petrenko         : DFT Hessian,TD-DFT gradient, ASA, ECA, R-Raman, ABS, FL, XAS/XES, NRVS
   Peter Pinski           : DLPNO-MP2, DLPNO-MP2 Gradient
   Christoph Reimann      : Effective Core Potentials
   Marius Retegan         : Local ZFS, SOC
   Christoph Riplinger    : Optimizer, TS searches, QM/MM, DLPNO-CCSD(T), (RO)-DLPNO pert. Triples
   Tobias Risthaus        : Range-separated hybrids, TD-DFT gradient, RPA, STAB
   Michael Roemelt        : Original ROCIS implementation
   Masaaki Saitow         : Open-shell DLPNO-CCSD energy and density
   Barbara Sandhoefer     : DKH picture change effects
   Avijit Sen             : IP-ROCIS
   Kantharuban Sivalingam : CASSCF convergence, NEVPT2, FIC-MRCI
   Bernardo de Souza      : ESD, SOC TD-DFT
   Georgi Stoychev        : AutoAux, RI-MP2 NMR
   Willem Van den Heuvel  : Paramagnetic NMR
   Boris Wezisla          : Elementary symmetry handling
   Frank Wennmohs         : Technical directorship


 We gratefully acknowledge several colleagues who have allowed us to
 interface, adapt or use parts of their codes:
   Stefan Grimme, W. Hujo, H. Kruse,             : VdW corrections, initial TS optimization,
                  C. Bannwarth                     DFT functionals, gCP, sTDA/sTD-DF
   Ed Valeev, F. Pavosevic, A. Kumar             : LibInt (2-el integral package), F12 methods
   Garnet Chan, S. Sharma, J. Yang, R. Olivares  : DMRG
   Ulf Ekstrom                                   : XCFun DFT Library
   Mihaly Kallay                                 : mrcc  (arbitrary order and MRCC methods)
   Andreas Klamt, Michael Diedenhofen            : otool_cosmo (COSMO solvation model)
   Jiri Pittner, Ondrej Demel                    : Mk-CCSD
   Frank Weinhold                                : gennbo (NPA and NBO analysis)
   Christopher J. Cramer and Donald G. Truhlar   : smd solvation model
   Lars Goerigk                                  : TD-DFT with DH, B97 family of functionals
   V. Asgeirsson, H. Jonsson                     : NEB implementation
   FAccTs GmbH                                   : IRC, NEB, NEB-TS, Multilevel, MM, QM/MM, CI optimization
   S Lehtola, MJT Oliveira, MAL Marques          : LibXC Library


 Your calculation uses the libint2 library for the computation of 2-el integrals
 For citations please refer to: http://libint.valeyev.net

 Your ORCA version has been built with support for libXC version: 4.2.3
 For citations please refer to: https://tddft.org/programs/libxc/

 This ORCA versions uses:
   CBLAS   interface :  Fast vector & matrix operations
   LAPACKE interface :  Fast linear algebra routines
   SCALAPACK package :  Parallel linear algebra routines


Your calculation utilizes the atom-pairwise dispersion correction
with the Becke-Johnson damping scheme (D3BJ)
Cite in your paper:
S.Grimme, S.Ehrlich, L.Goerigk, J Comput Chem, (2011), 32, 1456–1465 
S.Grimme, J.Antony, S.Ehrlich and H.Krieg, J.Chem.Phys., 132, (2010), 154104 
   

----- Orbital basis set information -----
Your calculation utilizes the basis: def2-TZVPPD
   F. Weigend and R. Ahlrichs, Phys. Chem. Chem. Phys. 7, 3297 (2005).
   D. Rappoport and F. Furche, J. Chem. Phys. 133 134105 (2010).

----- AuxC basis set information -----
Your calculation utilizes the auxiliary basis: def2-TZVPPD/C
   A. Hellweg, C. Hattig, S. Hofener and W. Klopper, Theor. Chem. Acc. 117, 587 (2007).

----- AuxJK basis set information -----
Your calculation utilizes the auxiliary basis: def2/JK
   H-Ba, Hf-Rn: F. Weigend, J. Comput. Chem. 29, 167 (2008).

================================================================================
                                        WARNINGS
                       Please study these warnings very carefully!
================================================================================


WARNING: your system is open-shell and RHF/RKS was chosen
  ===> : WILL SWITCH to UHF/UKS


WARNING: No MP2 level density has been requested!
         To caclulate MP2 level properties use
         %mp2 Density relaxed end
         or
         %mp2 Density unrelaxed end
         Otherwise for double-hybrid DFT only the energy is correct!

WARNING: The frozen-core approximation is turned on by default for 
         the MP2 part of double-hybrid DFT.

INFO   : the flag for use of LIBINT has been found!

================================================================================
                                       INPUT FILE
================================================================================
NAME = FeH.in
|  1> #
|  2> # FeH ri-B2PLYP-D3BJ/Def2-TZVPPD
|  3> #
|  4> ! rijk ri-b2plyp d3bj def2-tzvppd def2/jk def2-tzvppd/c grid4 nofinalgrid
|  5> 
|  6> *xyz 0 4
|  7> Fe         0.00000        0.00000        0.00000
|  8> H          0.00000        0.00000        1.61000
|  9> *
| 10> 
| 11> %maxcore 5000
| 12> 
| 13> %pal
| 14> nprocs = 28
| 15> end
| 16> 
| 17> 
| 18>                          ****END OF INPUT****
================================================================================

                       ****************************
                       * Single Point Calculation *
                       ****************************

---------------------------------
CARTESIAN COORDINATES (ANGSTROEM)
---------------------------------
  Fe     0.000000    0.000000    0.000000
  H      0.000000    0.000000    1.610000

----------------------------
CARTESIAN COORDINATES (A.U.)
----------------------------
  NO LB      ZA    FRAG     MASS         X           Y           Z
   0 Fe   26.0000    0    55.850    0.000000    0.000000    0.000000
   1 H     1.0000    0     1.008    0.000000    0.000000    3.042459

--------------------------------
INTERNAL COORDINATES (ANGSTROEM)
--------------------------------
 Fe     0   0   0     0.000000000000     0.00000000     0.00000000
 H      1   0   0     1.610000000000     0.00000000     0.00000000

---------------------------
INTERNAL COORDINATES (A.U.)
---------------------------
 Fe     0   0   0     0.000000000000     0.00000000     0.00000000
 H      1   0   0     3.042459075613     0.00000000     0.00000000

---------------------
BASIS SET INFORMATION
---------------------
There are 2 groups of distinct atoms

 Group   1 Type Fe  : 17s13p7d2f1g contracted to 6s6p4d2f1g pattern {842111/631111/4111/11/1}
 Group   2 Type H   : 5s3p1d contracted to 3s3p1d pattern {311/111/1}

Atom   0Fe   basis set group =>   1
Atom   1H    basis set group =>   2
---------------------------------
AUXILIARY/C BASIS SET INFORMATION
---------------------------------
There are 2 groups of distinct atoms

 Group   1 Type Fe  : 10s10p9d7f5g3h1i contracted to 10s10p9d7f5g3h1i pattern {1111111111/1111111111/111111111/1111111/11111/111/1}
 Group   2 Type H   : 5s4p3d1f contracted to 5s4p3d1f pattern {11111/1111/111/1}

Atom   0Fe   basis set group =>   1
Atom   1H    basis set group =>   2
----------------------------------
AUXILIARY/JK BASIS SET INFORMATION
----------------------------------
There are 2 groups of distinct atoms

 Group   1 Type Fe  : 19s14p12d10f7g3h1i contracted to 16s13p11d9f5g3h1i pattern {4111111111111111/2111111111111/21111111111/211111111/31111/111/1}
 Group   2 Type H   : 4s2p2d contracted to 2s2p2d pattern {31/11/11}

Atom   0Fe   basis set group =>   1
Atom   1H    basis set group =>   2


           ************************************************************
           *        Program running with 28 parallel MPI-processes    *
           *              working on a common directory               *
           ************************************************************
------------------------------------------------------------------------------
                           ORCA GTO INTEGRAL CALCULATION
                           -- RI-GTO INTEGRALS CHOSEN --
------------------------------------------------------------------------------

                         BASIS SET STATISTICS AND STARTUP INFO

Gaussian basis set:
 # of primitive gaussian shells          ...   49
 # of primitive gaussian functions       ...  133
 # of contracted shells                  ...   26
 # of contracted basis functions         ...   84
 Highest angular momentum                ...    4
 Maximum contraction depth               ...    8
Auxiliary gaussian basis set:
 # of primitive gaussian shells          ...   74
 # of primitive gaussian functions       ...  320
 # of contracted shells                  ...   64
 # of contracted aux-basis functions     ...  282
 Highest angular momentum                ...    6
 Maximum contraction depth               ...    4
Ratio of auxiliary to basis functions    ...  3.36
Integral package used                  ... LIBINT
 One Electron integrals                  ... done
 Ordering auxiliary basis shells         ... done
 Integral threshhold             Thresh  ...  1.000e-10
 Primitive cut-off               TCut    ...  1.000e-11
 Pre-screening matrix                    ... done
 Shell pair data                         ... 
 Ordering of the shell pairs             ... done (   0.000 sec) 351 of 351 pairs
 Determination of significant pairs      ... done (   0.000 sec)
 Creation of shell pair data             ... done (   0.000 sec)
 Storage of shell pair data              ... done (   0.005 sec)
 Shell pair data done in (   0.005 sec)
 Computing two index integrals           ... done
 Cholesky decomposition of the V-matrix  ... done


Timings:
 Total evaluation time                   ...   0.242 sec (  0.004 min)
 One electron matrix time                ...   0.047 sec (  0.001 min) = 19.5%
 Schwartz matrix evaluation time         ...   0.126 sec (  0.002 min) = 52.1%
 Two index repulsion integral time       ...   0.020 sec (  0.000 min) =  8.3%
 Cholesky decomposition of V             ...   0.008 sec (  0.000 min) =  3.3%
 Three index repulsion integral time     ...   0.000 sec (  0.000 min) =  0.0%



           ************************************************************
           *        Program running with 28 parallel MPI-processes    *
           *              working on a common directory               *
           ************************************************************
-------------------------------------------------------------------------------
                                 ORCA SCF
-------------------------------------------------------------------------------

------------
SCF SETTINGS
------------
Hamiltonian:
 Density Functional     Method          .... DFT(GTOs)
 Exchange Functional    Exchange        .... B88
   X-Alpha parameter    XAlpha          ....  0.666667
   Becke's b parameter  XBeta           ....  0.004200
 Correlation Functional Correlation     .... LYP
 LDA part of GGA corr.  LDAOpt          .... VWN-3
 Gradients option       PostSCFGGA      .... off
 Hybrid DFT is turned on
   Fraction HF Exchange ScalHFX         ....  0.530000
   Scaling of DF-GGA-X  ScalDFX         ....  0.470000
   Scaling of DF-GGA-C  ScalDFC         ....  0.730000
   Scaling of DF-LDA-C  ScalLDAC        ....  0.730000
   Perturbative correction              ....  0.270000
   Density functional embedding theory  .... OFF
 RI-approximation to the Coulomb term is turned on
   Number of auxiliary basis functions  .... 282
   RI-JK (J+K treated both via RI)      .... on


General Settings:
 Integral files         IntName         .... FeH
 Hartree-Fock type      HFTyp           .... UHF
 Total Charge           Charge          ....    0
 Multiplicity           Mult            ....    4
 Number of Electrons    NEL             ....   27
 Basis Dimension        Dim             ....   84
 Nuclear Repulsion      ENuc            ....      8.5457188918 Eh

Convergence Acceleration:
 DIIS                   CNVDIIS         .... on
   Start iteration      DIISMaxIt       ....    12
   Startup error        DIISStart       ....  0.200000
   # of expansion vecs  DIISMaxEq       ....     5
   Bias factor          DIISBfac        ....   1.050
   Max. coefficient     DIISMaxC        ....  10.000
 Newton-Raphson         CNVNR           .... off
 SOSCF                  CNVSOSCF        .... off
 Level Shifting         CNVShift        .... on
   Level shift para.    LevelShift      ....    0.2500
   Turn off err/grad.   ShiftErr        ....    0.0010
 Zerner damping         CNVZerner       .... off
 Static damping         CNVDamp         .... on
   Fraction old density DampFac         ....    0.7000
   Max. Damping (<1)    DampMax         ....    0.9800
   Min. Damping (>=0)   DampMin         ....    0.0000
   Turn off err/grad.   DampErr         ....    0.1000
 Fernandez-Rico         CNVRico         .... off

SCF Procedure:
 Maximum # iterations   MaxIter         ....   125
 SCF integral mode      SCFMode         .... Direct
   Integral package                     .... LIBINT
 Reset frequency        DirectResetFreq ....    20
 Integral Threshold     Thresh          ....  1.000e-10 Eh
 Primitive CutOff       TCut            ....  1.000e-11 Eh

Convergence Tolerance:
 Convergence Check Mode ConvCheckMode   .... Total+1el-Energy
 Convergence forced     ConvForced      .... 0
 Energy Change          TolE            ....  1.000e-06 Eh
 1-El. energy change                    ....  1.000e-03 Eh
 DIIS Error             TolErr          ....  1.000e-06


Diagonalization of the overlap matrix:
Smallest eigenvalue                        ... 3.098e-03
Time for diagonalization                   ...    0.033 sec
Threshold for overlap eigenvalues          ... 1.000e-08
Number of eigenvalues below threshold      ... 0
Time for construction of square roots      ...    0.161 sec
Total time needed                          ...    0.194 sec

-------------------
DFT GRID GENERATION
-------------------

General Integration Accuracy     IntAcc      ...  4.670
Radial Grid Type                 RadialGrid  ... Gauss-Chebyshev
Angular Grid (max. acc.)         AngularGrid ... Lebedev-302
Angular grid pruning method      GridPruning ... 3 (G Style)
Weight generation scheme         WeightScheme... Becke
Basis function cutoff            BFCut       ...    1.0000e-10
Integration weight cutoff        WCut        ...    1.0000e-14
Grids for H and He will be reduced by one unit

# of grid points (after initial pruning)     ...  13034 (   0.0 sec)
# of grid points (after weights+screening)   ...  12994 (   0.0 sec)
nearest neighbour list constructed           ...    0.0 sec
Grid point re-assignment to atoms done       ...    0.0 sec
Grid point division into batches done        ...    0.1 sec
Reduced shell lists constructed in    0.1 sec

Total number of grid points                  ...    12994
Total number of batches                      ...      204
Average number of points per batch           ...       63
Average number of grid points per atom       ...     6497
Average number of shells per batch           ...     5.22 (20.09%)
Average number of basis functions per batch  ...    13.89 (16.53%)
Average number of large shells per batch     ...     3.33 (63.83%)
Average number of large basis fcns per batch ...     9.78 (70.40%)
Average number of aux-shells per batch       ...     5.22 ( 8.16%)
Average number of aux functions per batch    ...    13.89 ( 4.93%)
Maximum spatial batch extension              ...  31.41, 28.57, 17.22 au
Average spatial batch extension              ...   0.94,  0.82,  0.61 au

Time for grid setup =    1.768 sec

------------------------------
INITIAL GUESS: MODEL POTENTIAL
------------------------------
Loading Hartree-Fock densities                     ... done
Calculating cut-offs                               ... done
Setting up the integral package                    ... done
Initializing the effective Hamiltonian             ... done
Starting the Coulomb interaction                   ... done (   0.0 sec)
Reading the grid                                   ... done
Mapping shells                                     ... done
Starting the XC term evaluation                    ... done (   0.0 sec)
  promolecular density results
     # of electrons  =     26.999505627
     EX              =    -54.628735384
     EC              =     -0.446531045
     EX+EC           =    -55.075266429
Transforming the Hamiltonian                       ... done (   0.0 sec)
Diagonalizing the Hamiltonian                      ... done (   0.0 sec)
Back transforming the eigenvectors                 ... done (   0.0 sec)
Now organizing SCF variables                       ... done
                      ------------------
                      INITIAL GUESS DONE (   1.9 sec)
                      ------------------
--------------
SCF ITERATIONS
--------------
ITER       Energy         Delta-E        Max-DP      RMS-DP      [F,P]     Damp
  0  -1263.7785717750   0.000000000000 0.01900243  0.00076084  0.1601907 0.7000
  1  -1263.6773066846   0.101265090408 0.01755728  0.00064875  0.1181714 0.7000
                               ***Turning on DIIS***
  2  -1263.7283138191  -0.051007134510 0.04547669  0.00143427  0.0875666 0.0000
  3  -1263.8466531144  -0.118339295224 0.01684716  0.00059380  0.0659819 0.0000
  4  -1263.8537108772  -0.007057762852 0.00843505  0.00027379  0.0325321 0.0000
  5  -1263.8557000819  -0.001989204702 0.00614301  0.00014591  0.0071890 0.0000
  6  -1263.8562416330  -0.000541551097 0.00283292  0.00008926  0.0037328 0.0000
  7  -1263.8564379153  -0.000196282243 0.00236951  0.00006704  0.0021409 0.0000
  8  -1263.8565356050  -0.000097689765 0.00171800  0.00004709  0.0012069 0.0000
  9  -1263.8565845779  -0.000048972839 0.00206585  0.00006405  0.0007031 0.0000
 10  -1263.8566281922  -0.000043614343 0.00201422  0.00005329  0.0005661 0.0000
 11  -1263.8566446195  -0.000016427249 0.00019734  0.00000659  0.0003834 0.0000
 12  -1263.8566454594  -0.000000839985 0.00078805  0.00001978  0.0004252 0.0000
 13  -1263.8566469313  -0.000001471869 0.00007266  0.00000168  0.0000337 0.0000
                 **** Energy Check signals convergence ****

               *****************************************************
               *                     SUCCESS                       *
               *           SCF CONVERGED AFTER  14 CYCLES          *
               *****************************************************


----------------
TOTAL SCF ENERGY
----------------

Total Energy       :        -1263.85664696 Eh          -34391.28778 eV

Components:
Nuclear Repulsion  :            8.54571889 Eh             232.54083 eV
Electronic Energy  :        -1272.40236585 Eh          -34623.82862 eV
One Electron Energy:        -1766.00367169 Eh          -48055.40300 eV
Two Electron Energy:          493.60130584 Eh           13431.57438 eV

Virial components:
Potential Energy   :        -2526.26573806 Eh          -68743.18557 eV
Kinetic Energy     :         1262.40909110 Eh           34351.89779 eV
Virial Ratio       :            2.00114666


DFT components:
N(Alpha)           :       15.000000210449 electrons
N(Beta)            :       12.000000747950 electrons
N(Total)           :       27.000000958399 electrons
E(X)               :      -25.830002251822 Eh       
E(C)               :       -0.873138530982 Eh       
E(XC)              :      -26.703140782804 Eh       
DFET-embed. en.    :        0.000000000000 Eh       

---------------
SCF CONVERGENCE
---------------

  Last Energy change         ...   -2.7795e-08  Tolerance :   1.0000e-06
  Last MAX-Density change    ...    4.0337e-05  Tolerance :   1.0000e-05
  Last RMS-Density change    ...    8.5942e-07  Tolerance :   1.0000e-06
  Last DIIS Error            ...    1.0524e-05  Tolerance :   1.0000e-06

             **** THE GBW FILE WAS UPDATED (FeH.gbw) ****
             **** DENSITY FILE WAS UPDATED (FeH.scfp) ****
             **** ENERGY FILE WAS UPDATED (FeH.en.tmp) ****
----------------------
UHF SPIN CONTAMINATION
----------------------

Warning: in a DFT calculation there is little theoretical justification to 
         calculate <S**2> as in Hartree-Fock theory. We will do it anyways
         but you should keep in mind that the values have only limited relevance

Expectation value of <S**2>     :     3.810642
Ideal value S*(S+1) for S=1.5   :     3.750000
Deviation                       :     0.060642

             **** THE GBW FILE WAS UPDATED (FeH.gbw) ****
             **** DENSITY FILE WAS UPDATED (FeH.scfp) ****
----------------
ORBITAL ENERGIES
----------------
                 SPIN UP ORBITALS
  NO   OCC          E(Eh)            E(eV) 
   0   1.0000    -258.182834     -7025.5121 
   1   1.0000     -30.714636      -835.7877 
   2   1.0000     -26.425761      -719.0815 
   3   1.0000     -26.425761      -719.0815 
   4   1.0000     -26.395392      -718.2551 
   5   1.0000      -3.709677      -100.9455 
   6   1.0000      -2.438703       -66.3605 
   7   1.0000      -2.438703       -66.3605 
   8   1.0000      -2.374798       -64.6215 
   9   1.0000      -0.367275        -9.9940 
  10   1.0000      -0.367274        -9.9940 
  11   1.0000      -0.342823        -9.3287 
  12   1.0000      -0.306468        -8.3394 
  13   1.0000      -0.306468        -8.3394 
  14   1.0000      -0.252529        -6.8717 
  15   0.0000      -0.033557        -0.9131 
  16   0.0000       0.010145         0.2760 
  17   0.0000       0.010145         0.2760 
  18   0.0000       0.090352         2.4586 
  19   0.0000       0.106071         2.8864 
  20   0.0000       0.142280         3.8716 
  21   0.0000       0.142280         3.8716 
  22   0.0000       0.185350         5.0436 
  23   0.0000       0.217617         5.9217 
  24   0.0000       0.217617         5.9217 
  25   0.0000       0.223553         6.0832 
  26   0.0000       0.223553         6.0832 
  27   0.0000       0.327373         8.9083 
  28   0.0000       0.327425         8.9097 
  29   0.0000       0.327425         8.9097 
  30   0.0000       0.404270        11.0007 
  31   0.0000       0.553347        15.0573 
  32   0.0000       0.614500        16.7214 
  33   0.0000       0.614500        16.7214 
  34   0.0000       0.675116        18.3709 
  35   0.0000       0.907908        24.7054 
  36   0.0000       0.907908        24.7054 
  37   0.0000       0.975915        26.5560 
  38   0.0000       0.975918        26.5561 
  39   0.0000       1.113337        30.2954 
  40   0.0000       1.176278        32.0082 
  41   0.0000       1.176278        32.0082 
  42   0.0000       1.324124        36.0312 
  43   0.0000       2.433020        66.2058 
  44   0.0000       2.453444        66.7616 
  45   0.0000       2.453444        66.7616 
  46   0.0000       2.468542        67.1724 
  47   0.0000       2.468542        67.1724 
  48   0.0000       2.480507        67.4980 
  49   0.0000       2.480507        67.4980 
  50   0.0000       2.567649        69.8693 
  51   0.0000       2.567649        69.8693 
  52   0.0000       2.680606        72.9430 
  53   0.0000       2.912540        79.2542 
  54   0.0000       3.044856        82.8547 
  55   0.0000       3.413034        92.8734 
  56   0.0000       3.413070        92.8744 
  57   0.0000       3.576431        97.3196 
  58   0.0000       3.669325        99.8474 
  59   0.0000       3.669333        99.8476 
  60   0.0000       3.707670       100.8908 
  61   0.0000       3.707670       100.8908 
  62   0.0000       3.783700       102.9597 
  63   0.0000       3.783700       102.9597 
  64   0.0000       4.105068       111.7046 
  65   0.0000       4.105068       111.7046 
  66   0.0000       4.202871       114.3659 
  67   0.0000       4.957788       134.9083 
  68   0.0000       8.737982       237.7726 
  69   0.0000       8.737996       237.7730 
  70   0.0000       8.790709       239.2073 
  71   0.0000       8.790709       239.2073 
  72   0.0000       8.802852       239.5378 
  73   0.0000       8.802856       239.5379 
  74   0.0000       8.825795       240.1621 
  75   0.0000       8.825795       240.1621 
  76   0.0000       8.868190       241.3157 
  77   0.0000       9.461370       257.4570 
  78   0.0000       9.461370       257.4570 
  79   0.0000       9.529303       259.3055 
  80   0.0000       9.529315       259.3058 
  81   0.0000       9.621165       261.8052 
  82   0.0000       9.621165       261.8052 
  83   0.0000       9.907008       269.5834 

                 SPIN DOWN ORBITALS
  NO   OCC          E(Eh)            E(eV) 
   0   1.0000    -258.181115     -7025.4653 
   1   1.0000     -30.649147      -834.0057 
   2   1.0000     -26.357735      -717.2304 
   3   1.0000     -26.357735      -717.2304 
   4   1.0000     -26.353988      -717.1285 
   5   1.0000      -3.531029       -96.0842 
   6   1.0000      -2.229268       -60.6615 
   7   1.0000      -2.207232       -60.0618 
   8   1.0000      -2.207232       -60.0618 
   9   1.0000      -0.311357        -8.4725 
  10   1.0000      -0.228619        -6.2210 
  11   1.0000      -0.228619        -6.2210 
  12   0.0000      -0.039081        -1.0634 
  13   0.0000       0.020465         0.5569 
  14   0.0000       0.020465         0.5569 
  15   0.0000       0.061348         1.6694 
  16   0.0000       0.113076         3.0770 
  17   0.0000       0.119587         3.2541 
  18   0.0000       0.119602         3.2545 
  19   0.0000       0.143667         3.9094 
  20   0.0000       0.158124         4.3028 
  21   0.0000       0.158124         4.3028 
  22   0.0000       0.220647         6.0041 
  23   0.0000       0.220647         6.0041 
  24   0.0000       0.239490         6.5169 
  25   0.0000       0.281386         7.6569 
  26   0.0000       0.281393         7.6571 
  27   0.0000       0.328571         8.9409 
  28   0.0000       0.328571         8.9409 
  29   0.0000       0.352292         9.5863 
  30   0.0000       0.420724        11.4485 
  31   0.0000       0.553598        15.0642 
  32   0.0000       0.644172        17.5288 
  33   0.0000       0.644172        17.5288 
  34   0.0000       0.689218        18.7546 
  35   0.0000       0.911693        24.8084 
  36   0.0000       0.911693        24.8084 
  37   0.0000       1.069056        29.0905 
  38   0.0000       1.069121        29.0923 
  39   0.0000       1.175971        31.9998 
  40   0.0000       1.184783        32.2396 
  41   0.0000       1.184783        32.2396 
  42   0.0000       1.330538        36.2058 
  43   0.0000       2.467784        67.1518 
  44   0.0000       2.516307        68.4722 
  45   0.0000       2.516307        68.4722 
  46   0.0000       2.527920        68.7882 
  47   0.0000       2.527922        68.7882 
  48   0.0000       2.577167        70.1283 
  49   0.0000       2.577167        70.1283 
  50   0.0000       2.645911        71.9989 
  51   0.0000       2.645911        71.9989 
  52   0.0000       2.692883        73.2771 
  53   0.0000       2.944446        80.1224 
  54   0.0000       3.109663        84.6182 
  55   0.0000       3.398918        92.4893 
  56   0.0000       3.398956        92.4903 
  57   0.0000       3.680084       100.1402 
  58   0.0000       3.721770       101.2745 
  59   0.0000       3.721770       101.2745 
  60   0.0000       3.798462       103.3614 
  61   0.0000       3.798477       103.3618 
  62   0.0000       3.809806       103.6701 
  63   0.0000       3.809806       103.6701 
  64   0.0000       4.083539       111.1188 
  65   0.0000       4.083539       111.1188 
  66   0.0000       4.198873       114.2571 
  67   0.0000       4.977549       135.4460 
  68   0.0000       8.860271       241.1002 
  69   0.0000       8.860271       241.1002 
  70   0.0000       8.871706       241.4114 
  71   0.0000       8.871709       241.4115 
  72   0.0000       8.872220       241.4254 
  73   0.0000       8.872233       241.4257 
  74   0.0000       8.908988       242.4259 
  75   0.0000       8.908988       242.4259 
  76   0.0000       8.964072       243.9248 
  77   0.0000       9.621546       261.8156 
  78   0.0000       9.621557       261.8159 
  79   0.0000       9.659590       262.8508 
  80   0.0000       9.659590       262.8508 
  81   0.0000       9.744277       265.1553 
  82   0.0000       9.744277       265.1553 
  83   0.0000      10.049480       273.4602 

                    ********************************
                    * MULLIKEN POPULATION ANALYSIS *
                    ********************************

--------------------------------------------
MULLIKEN ATOMIC CHARGES AND SPIN POPULATIONS
--------------------------------------------
   0 Fe:    0.137534    3.212116
   1 H :   -0.137534   -0.212116
Sum of atomic charges         :    0.0000000
Sum of atomic spin populations:    3.0000000

-----------------------------------------------------
MULLIKEN REDUCED ORBITAL CHARGES AND SPIN POPULATIONS
-----------------------------------------------------
CHARGE
  0 Fes       :     6.795067  s :     6.795067
      pz      :     4.100161  p :    12.104808
      px      :     4.002323
      py      :     4.002323
      dz2     :     0.970196  d :     6.961521
      dxz     :     1.995706
      dyz     :     1.995706
      dx2y2   :     0.999957
      dxy     :     0.999957
      f0      :     0.000631  f :     0.001005
      f+1     :     0.000158
      f-1     :     0.000158
      f+2     :     0.000029
      f-2     :     0.000029
      f+3     :     0.000000
      f-3     :     0.000000
      g0      :     0.000015  g :     0.000065
      g+1     :     0.000009
      g-1     :     0.000009
      g+2     :     0.000016
      g-2     :     0.000016
      g+3     :     0.000000
      g-3     :     0.000000
      g+4     :     0.000000
      g-4     :     0.000000
  1 H s       :     1.142497  s :     1.142497
      pz      :    -0.008990  p :    -0.005781
      px      :     0.001605
      py      :     0.001605
      dz2     :     0.000423  d :     0.000818
      dxz     :     0.000200
      dyz     :     0.000200
      dx2y2   :    -0.000002
      dxy     :    -0.000002

SPIN
  0 Fes       :     0.367439  s :     0.367439
      pz      :    -0.019222  p :    -0.020702
      px      :    -0.000740
      py      :    -0.000740
      dz2     :     0.862214  d :     2.865504
      dxz     :     0.001688
      dyz     :     0.001688
      dx2y2   :     0.999957
      dxy     :     0.999957
      f0      :    -0.000200  f :    -0.000166
      f+1     :    -0.000013
      f-1     :    -0.000013
      f+2     :     0.000029
      f-2     :     0.000029
      f+3     :    -0.000000
      f-3     :    -0.000000
      g0      :    -0.000001  g :     0.000042
      g+1     :     0.000006
      g-1     :     0.000006
      g+2     :     0.000016
      g-2     :     0.000016
      g+3     :    -0.000000
      g-3     :    -0.000000
      g+4     :     0.000000
      g-4     :    -0.000000
  1 H s       :    -0.208290  s :    -0.208290
      pz      :    -0.002220  p :    -0.004042
      px      :    -0.000911
      py      :    -0.000911
      dz2     :     0.000281  d :     0.000215
      dxz     :    -0.000031
      dyz     :    -0.000031
      dx2y2   :    -0.000002
      dxy     :    -0.000002


                     *******************************
                     * LOEWDIN POPULATION ANALYSIS *
                     *******************************

-------------------------------------------
LOEWDIN ATOMIC CHARGES AND SPIN POPULATIONS
-------------------------------------------
   0 Fe:    0.234764    3.073042
   1 H :   -0.234764   -0.073042

----------------------------------------------------
LOEWDIN REDUCED ORBITAL CHARGES AND SPIN POPULATIONS
----------------------------------------------------
CHARGE
  0 Fes       :     6.668965  s :     6.668965
      pz      :     4.143148  p :    12.149005
      px      :     4.002929
      py      :     4.002929
      dz2     :     1.000776  d :     6.945103
      dxz     :     1.972286
      dyz     :     1.972286
      dx2y2   :     0.999877
      dxy     :     0.999877
      f0      :     0.001487  f :     0.002080
      f+1     :     0.000267
      f-1     :     0.000267
      f+2     :     0.000030
      f-2     :     0.000030
      f+3     :     0.000000
      f-3     :     0.000000
      g0      :     0.000024  g :     0.000083
      g+1     :     0.000014
      g-1     :     0.000014
      g+2     :     0.000016
      g-2     :     0.000016
      g+3     :     0.000000
      g-3     :     0.000000
      g+4     :     0.000000
      g-4     :     0.000000
  1 H s       :     1.104568  s :     1.104568
      pz      :     0.076740  p :     0.119237
      px      :     0.021249
      py      :     0.021249
      dz2     :     0.004292  d :     0.010958
      dxz     :     0.003256
      dyz     :     0.003256
      dx2y2   :     0.000077
      dxy     :     0.000077

SPIN
  0 Fes       :     0.278150  s :     0.278150
      pz      :    -0.050930  p :    -0.053684
      px      :    -0.001377
      py      :    -0.001377
      dz2     :     0.838567  d :     2.849043
      dxz     :     0.005361
      dyz     :     0.005361
      dx2y2   :     0.999877
      dxy     :     0.999877
      f0      :    -0.000520  f :    -0.000509
      f+1     :    -0.000024
      f-1     :    -0.000024
      f+2     :     0.000030
      f-2     :     0.000030
      f+3     :    -0.000000
      f-3     :    -0.000000
      g0      :    -0.000004  g :     0.000043
      g+1     :     0.000007
      g-1     :     0.000007
      g+2     :     0.000016
      g-2     :     0.000016
      g+3     :    -0.000000
      g-3     :    -0.000000
      g+4     :     0.000000
      g-4     :    -0.000000
  1 H s       :    -0.093884  s :    -0.093884
      pz      :     0.026909  p :     0.019337
      px      :    -0.003786
      py      :    -0.003786
      dz2     :     0.001712  d :     0.001505
      dxz     :    -0.000181
      dyz     :    -0.000181
      dx2y2   :     0.000077
      dxy     :     0.000077


                      *****************************
                      * MAYER POPULATION ANALYSIS *
                      *****************************

  NA   - Mulliken gross atomic population
  ZA   - Total nuclear charge
  QA   - Mulliken gross atomic charge
  VA   - Mayer's total valence
  BVA  - Mayer's bonded valence
  FA   - Mayer's free valence

  ATOM       NA         ZA         QA         VA         BVA        FA
  0 Fe    25.8625    26.0000     0.1375     3.9939     0.9173     3.0766
  1 H      1.1375     1.0000    -0.1375     0.9608     0.9173     0.0435

  Mayer bond orders larger than 0.100000
B(  0-Fe,  1-H ) :   0.9173 

-------
TIMINGS
-------

Total SCF time: 0 days 0 hours 3 min 7 sec 

Total time                  ....     187.463 sec
Sum of individual times     ....     186.029 sec  ( 99.2%)

Fock matrix formation       ....     180.233 sec  ( 96.1%)
  XC integration            ....     170.844 sec  ( 94.8% of F)
    Basis function eval.    ....       0.017 sec  (  0.0% of XC)
    Density eval.           ....       0.019 sec  (  0.0% of XC)
    XC-Functional eval.     ....       0.019 sec  (  0.0% of XC)
    XC-Potential eval.      ....       0.034 sec  (  0.0% of XC)
Diagonalization             ....       2.612 sec  (  1.4%)
Density matrix formation    ....       0.035 sec  (  0.0%)
Population analysis         ....       1.092 sec  (  0.6%)
Initial guess               ....       0.162 sec  (  0.1%)
Orbital Transformation      ....       0.000 sec  (  0.0%)
Orbital Orthonormalization  ....       0.000 sec  (  0.0%)
DIIS solution               ....       0.128 sec  (  0.1%)
Grid generation             ....       1.768 sec  (  0.9%)


           ************************************************************
           *        Program running with 28 parallel MPI-processes    *
           *              working on a common directory               *
           ************************************************************

------------------------------------------------------------------------------
                                ORCA  MP2 
------------------------------------------------------------------------------

Freezing NCore=10 chemical core electrons

-------------
RI-MP2 ENERGY
-------------
Dimension of the basis                    ...   84
Memory devoted to MP2                     ... 5000 MB   
Data format for buffers                   ... DOUBLE
Compression type for matrix containers    ... UNCOMPRESSED
Overall scaling of the MP2 energy         ...   2.700e-01
Calculating two index integrals           ... done (    0.012 sec)
Cholesky decomposition of V**-1           ... done (    0.201 sec)

-----------------
RI-TRANSFORMATION (AUX index driven)
-----------------

Dimension of the orbital-basis         ... 84
Dimension of the aux-basis             ... 264
Transformation of internal/external MOs...    5-  14 to   15-  83
Number Format for Storage              ... Double (8 Byte)
Integral mode                          ... Direct

First Phase: integral generation and transformation of MO indices
  Aux angular momentum 0               ... done (    0.001 sec)
  Aux angular momentum 1               ... done (    0.003 sec)
  Aux angular momentum 2               ... done (    0.001 sec)
  Aux angular momentum 3               ... done (    0.001 sec)
  Aux angular momentum 4               ... done (    0.002 sec)
  Aux angular momentum 5               ... done (    0.003 sec)
  Aux angular momentum 6               ... done (    0.004 sec)
Closing buffer VIA ( 0.00 GB; CompressionRatio= 1.00)
  Phase 1 completed in     8.397 sec
Second Phase: sorting and transformation of aux index

IA-Transformation
Memory available                       ... 4999 MB 
Max. # MO pairs treated in a batch     ... 1    
# of internal orbitals                 ... 10
# batches for internal orbitals        ... 1
Closing buffer IAV ( 0.00 GB; CompressionRatio= 1.00)
(ia|v) transformation done in     0.075 sec

  Phase 2 completed in     7.771 sec
RI-Integral transformation completed in    18.014 sec

-----------------
RI-TRANSFORMATION (AUX index driven)
-----------------

Dimension of the orbital-basis         ... 84
Dimension of the aux-basis             ... 264
Transformation of internal/external MOs...    5-  11 to   12-  83
Number Format for Storage              ... Double (8 Byte)
Integral mode                          ... Direct

First Phase: integral generation and transformation of MO indices
  Aux angular momentum 0               ... done (    0.001 sec)
  Aux angular momentum 1               ... done (    0.003 sec)
  Aux angular momentum 2               ... done (    0.001 sec)
  Aux angular momentum 3               ... done (    0.001 sec)
  Aux angular momentum 4               ... done (    0.002 sec)
  Aux angular momentum 5               ... done (    0.003 sec)
  Aux angular momentum 6               ... done (    0.004 sec)
Closing buffer VIA ( 0.00 GB; CompressionRatio= 1.00)
  Phase 1 completed in     8.161 sec
Second Phase: sorting and transformation of aux index

IA-Transformation
Memory available                       ... 4999 MB 
Max. # MO pairs treated in a batch     ... 1    
# of internal orbitals                 ... 7
# batches for internal orbitals        ... 1
Closing buffer IAV ( 0.00 GB; CompressionRatio= 1.00)
(ia|v) transformation done in     0.307 sec

  Phase 2 completed in     6.513 sec
RI-Integral transformation completed in    16.832 sec
Opening buffers                              ... done

Starting loop over batches of integrals:

Operator 0  - window                       ... (  5- 14)x( 15- 83)
Operator 0  - Memory available             ...  5000 MB
Operator 0  - Memory needed per MO         ...   0.1 MB
Operator 0  - Number of orbitals per batch ... 1
Operator 0  - Number of batches            ... 1

OPERATOR  0   PASS   0:  MOs     5 ...    5 +    6 ...    6 +    7 ...    7 +    8 ...    8
                            +    9 ...    9 +   10 ...   10 +   11 ...   11 +   12 ...   12
                            +   13 ...   13 +   14 ...   14
  Reading integrals       ... ok

Operator 1  - window                       ... (  5- 11)x( 12- 83)
Operator 1  - Memory available             ...  5000 MB
Operator 1  - Memory needed per MO         ...   0.1 MB
Operator 1  - Number of orbitals per batch ... 1
Operator 1  - Number of batches            ... 1

OPERATOR  1   PASS   0:  MOs     5 ...    5 +    6 ...    6 +    7 ...    7 +    8 ...    8
                            +    9 ...    9 +   10 ...   10 +   11 ...   11
  Reading integrals       ... ok
Time spent in pair loops =     0.033 sec
Deleting buffer (Ka|jb)[aa] ...done
Deleting buffer (Ka|jb)[ab] ...done
Deleting buffer (Ka|jb)[ba] ...done
Deleting buffer (Ka|jb)[bb] ...done

Correlation energy components}
 E2 and T2 for alpha/alpha pairs :     -0.047522445 Eh      0.000000000
 E2 and T2 for beta/beta   pairs :     -0.019377432 Eh      0.000000000
 E2 and T2 for alpha/beta  pairs :     -0.131499695 Eh      0.000000000


-----------------------------------------------
 RI-MP2 CORRELATION ENERGY:     -0.198399572 Eh
-----------------------------------------------


-------
TIMINGS
-------

Total time                :   38.021 sec
Integral trafo            :   34.869 sec ( 91.7%)
I/O of integrals          :    0.002 sec (  0.0%)
K(i,j) Operators          :    0.014 sec (  0.0%)
T(i,j) pair energies      :    0.000 sec (  0.0%)
V-calculation             :    0.012 sec (  0.0%)
V**(-1/2)                 :    0.201 sec (  0.5%)
Gamma(ia|P)               :    0.000 sec (  0.0%)
Gamma-Trafo               :    0.000 sec (  0.0%)
D(virtual)                :    0.000 sec (  0.0%)
D(internal)               :    0.000 sec (  0.0%)
W(virtual)                :    0.000 sec (  0.0%)
W(internal)               :    0.000 sec (  0.0%)
L(virtual)                :    0.000 sec (  0.0%)
L(internal)               :    0.000 sec (  0.0%)
G(D)                      :    0.000 sec (  0.0%)
G(Z)                      :    0.000 sec (  0.0%)
Z-Vector Solution         :    0.000 sec (  0.0%)
Z-Vector Solution         :    0.000 sec (  0.0%)
3-Index Derivative 
+ Separable RIJ part      :    0.000 sec (  0.0%)
2-Index Derivative 
+ Separable RIJ part      :    0.000 sec (  0.0%)
Separable Gradient (X)    :    0.000 sec (  0.0%)


---------------------------------------
MP2 TOTAL ENERGY:    -1264.055046531 Eh
---------------------------------------


-------------------------------------------------------------------------------
                          DFT DISPERSION CORRECTION                            
                                                                               
                              DFTD3 V3.1  Rev 1                                
                          USING Becke-Johnson damping                          
-------------------------------------------------------------------------------
The B2PLYP functional is recognized
Active option DFTDOPT                   ...         4   

molecular C6(AA) [au] = 335.178079 


            DFT-D V3
 parameters
 s6 scaling factor         :     0.6400 
 a1 scaling factor         :     0.3065 
 s8 scaling factor         :     0.9147 
 a2 scaling factor         :     5.0570 
 ad hoc parameters k1-k3   :    16.0000     1.3333    -4.0000 

 Edisp/kcal,au: -0.223678729722  -0.000356454707 
 E6   /kcal   :  -0.109895374 
 E8   /kcal   :  -0.113783356 
 % E8         :  50.869099676 

-------------------------   ----------------
Dispersion correction           -0.000356455
-------------------------   ----------------


-------------------------   --------------------
FINAL SINGLE POINT ENERGY     -1264.055402986016
-------------------------   --------------------


                            ***************************************
                            *     ORCA property calculations      *
                            ***************************************


  WARNING: The energy has been calculated at the MP2 level but the densities
           used in the property calculations are still SCF densities
           MP2 response densities have not been calculated 
           use %mp2 Density relaxed end
           or  %mp2 Density unrelaxed end

                                    ---------------------
                                    Active property flags
                                    ---------------------
   (+) Dipole Moment


------------------------------------------------------------------------------
                       ORCA ELECTRIC PROPERTIES CALCULATION
------------------------------------------------------------------------------

Dipole Moment Calculation                       ... on
Quadrupole Moment Calculation                   ... off
Polarizability Calculation                      ... off
GBWName                                         ... FeH.gbw
Electron density file                           ... FeH.scfp
The origin for moment calculation is the CENTER OF MASS  = ( 0.000000,  0.000000  0.053938)

-------------
DIPOLE MOMENT
-------------
                                X             Y             Z
Electronic contribution:      0.00000      -0.00000      -2.95760
Nuclear contribution   :      0.00000       0.00000       1.58614
                        -----------------------------------------
Total Dipole Moment    :      0.00000      -0.00000      -1.37146
                        -----------------------------------------
Magnitude (a.u.)       :      1.37146
Magnitude (Debye)      :      3.48599



--------------------
Rotational spectrum 
--------------------
 
Rotational constants in cm-1:     0.000000     6.568301     6.568301 
Rotational constants in MHz :     0.000000 196912.697447 196912.697447 

 Dipole components along the rotational axes: 
x,y,z [a.u.] :    -1.371464    -0.000000     0.000000 
x,y,z [Debye]:    -3.485985    -0.000000     0.000000 

 

Timings for individual modules:

Sum of individual times         ...      236.073 sec (=   3.935 min)
GTO integral calculation        ...        2.623 sec (=   0.044 min)   1.1 %
SCF iterations                  ...      190.869 sec (=   3.181 min)  80.9 %
MP2 module                      ...       42.580 sec (=   0.710 min)  18.0 %
                             ****ORCA TERMINATED NORMALLY****
TOTAL RUN TIME: 0 days 0 hours 6 minutes 18 seconds 483 msec
