
                                 *****************
                                 * O   R   C   A *
                                 *****************

           --- An Ab Initio, DFT and Semiempirical electronic structure package ---

                  #######################################################
                  #                        -***-                        #
                  #          Department of theory and spectroscopy      #
                  #               Directorship: Frank Neese             #
                  #        Max Planck Institute fuer Kohlenforschung    #
                  #                Kaiser Wilhelm Platz 1               #
                  #                 D-45470 Muelheim/Ruhr               #
                  #                      Germany                        #
                  #                                                     #
                  #                  All rights reserved                #
                  #                        -***-                        #
                  #######################################################


                         Program Version 4.2.0 -  RELEASE  -


 With contributions from (in alphabetic order):
   Daniel Aravena         : Magnetic Suceptibility
   Michael Atanasov       : Ab Initio Ligand Field Theory (pilot matlab implementation)
   Alexander A. Auer      : GIAO ZORA, VPT2
   Ute Becker             : Parallelization
   Giovanni Bistoni       : ED, misc. LED, open-shell LED, HFLED
   Martin Brehm           : Molecular dynamics
   Dmytro Bykov           : SCF Hessian
   Vijay G. Chilkuri      : MRCI spin determinant printing, contributions to CSF-ICE
   Dipayan Datta          : RHF DLPNO-CCSD density
   Achintya Kumar Dutta   : EOM-CC, STEOM-CC
   Dmitry Ganyushin       : Spin-Orbit,Spin-Spin,Magnetic field MRCI
   Miquel Garcia          : C-PCM Hessian, Gaussian charge scheme
   Yang Guo               : DLPNO-NEVPT2, CIM, IAO-localization
   Andreas Hansen         : Spin unrestricted coupled pair/coupled cluster methods
   Benjamin Helmich-Paris : CASSCF linear response (MC-RPA)
   Lee Huntington         : MR-EOM, pCC
   Robert Izsak           : Overlap fitted RIJCOSX, COSX-SCS-MP3, EOM
   Christian Kollmar      : KDIIS, OOCD, Brueckner-CCSD(T), CCSD density
   Simone Kossmann        : Meta GGA functionals, TD-DFT gradient, OOMP2, MP2 Hessian
   Martin Krupicka        : AUTO-CI
   Lucas Lang             : DCDCAS
   Dagmar Lenk            : GEPOL surface, SMD
   Dimitrios Liakos       : Extrapolation schemes; Compound Job, initial MDCI parallelization
   Dimitrios Manganas     : Further ROCIS development; embedding schemes
   Dimitrios Pantazis     : SARC Basis sets
   Taras Petrenko         : DFT Hessian,TD-DFT gradient, ASA, ECA, R-Raman, ABS, FL, XAS/XES, NRVS
   Peter Pinski           : DLPNO-MP2, DLPNO-MP2 Gradient
   Christoph Reimann      : Effective Core Potentials
   Marius Retegan         : Local ZFS, SOC
   Christoph Riplinger    : Optimizer, TS searches, QM/MM, DLPNO-CCSD(T), (RO)-DLPNO pert. Triples
   Tobias Risthaus        : Range-separated hybrids, TD-DFT gradient, RPA, STAB
   Michael Roemelt        : Original ROCIS implementation
   Masaaki Saitow         : Open-shell DLPNO-CCSD energy and density
   Barbara Sandhoefer     : DKH picture change effects
   Avijit Sen             : IP-ROCIS
   Kantharuban Sivalingam : CASSCF convergence, NEVPT2, FIC-MRCI
   Bernardo de Souza      : ESD, SOC TD-DFT
   Georgi Stoychev        : AutoAux, RI-MP2 NMR
   Willem Van den Heuvel  : Paramagnetic NMR
   Boris Wezisla          : Elementary symmetry handling
   Frank Wennmohs         : Technical directorship


 We gratefully acknowledge several colleagues who have allowed us to
 interface, adapt or use parts of their codes:
   Stefan Grimme, W. Hujo, H. Kruse,             : VdW corrections, initial TS optimization,
                  C. Bannwarth                     DFT functionals, gCP, sTDA/sTD-DF
   Ed Valeev, F. Pavosevic, A. Kumar             : LibInt (2-el integral package), F12 methods
   Garnet Chan, S. Sharma, J. Yang, R. Olivares  : DMRG
   Ulf Ekstrom                                   : XCFun DFT Library
   Mihaly Kallay                                 : mrcc  (arbitrary order and MRCC methods)
   Andreas Klamt, Michael Diedenhofen            : otool_cosmo (COSMO solvation model)
   Jiri Pittner, Ondrej Demel                    : Mk-CCSD
   Frank Weinhold                                : gennbo (NPA and NBO analysis)
   Christopher J. Cramer and Donald G. Truhlar   : smd solvation model
   Lars Goerigk                                  : TD-DFT with DH, B97 family of functionals
   V. Asgeirsson, H. Jonsson                     : NEB implementation
   FAccTs GmbH                                   : IRC, NEB, NEB-TS, Multilevel, MM, QM/MM, CI optimization
   S Lehtola, MJT Oliveira, MAL Marques          : LibXC Library


 Your calculation uses the libint2 library for the computation of 2-el integrals
 For citations please refer to: http://libint.valeyev.net

 Your ORCA version has been built with support for libXC version: 4.2.3
 For citations please refer to: https://tddft.org/programs/libxc/

 This ORCA versions uses:
   CBLAS   interface :  Fast vector & matrix operations
   LAPACKE interface :  Fast linear algebra routines
   SCALAPACK package :  Parallel linear algebra routines


Your calculation utilizes the atom-pairwise dispersion correction
with the Becke-Johnson damping scheme (D3BJ)
Cite in your paper:
S.Grimme, S.Ehrlich, L.Goerigk, J Comput Chem, (2011), 32, 1456–1465 
S.Grimme, J.Antony, S.Ehrlich and H.Krieg, J.Chem.Phys., 132, (2010), 154104 
   

----- Orbital basis set information -----
Your calculation utilizes the basis: def2-TZVPPD
   F. Weigend and R. Ahlrichs, Phys. Chem. Chem. Phys. 7, 3297 (2005).
   D. Rappoport and F. Furche, J. Chem. Phys. 133 134105 (2010).

----- AuxC basis set information -----
Your calculation utilizes the auxiliary basis: def2-TZVPPD/C
   A. Hellweg, C. Hattig, S. Hofener and W. Klopper, Theor. Chem. Acc. 117, 587 (2007).

----- AuxJK basis set information -----
Your calculation utilizes the auxiliary basis: def2/JK
   H-Ba, Hf-Rn: F. Weigend, J. Comput. Chem. 29, 167 (2008).

================================================================================
                                        WARNINGS
                       Please study these warnings very carefully!
================================================================================


WARNING: No MP2 level density has been requested!
         To caclulate MP2 level properties use
         %mp2 Density relaxed end
         or
         %mp2 Density unrelaxed end
         Otherwise for double-hybrid DFT only the energy is correct!

WARNING: The frozen-core approximation is turned on by default for 
         the MP2 part of double-hybrid DFT.

INFO   : the flag for use of LIBINT has been found!

================================================================================
                                       INPUT FILE
================================================================================
NAME = H2O.in
|  1> #
|  2> # H2O ri-B2PLYP-D3BJ/Def2-TZVPPD
|  3> #
|  4> ! rijk ri-b2plyp d3bj def2-tzvppd def2/jk def2-tzvppd/c grid4 nofinalgrid
|  5> 
|  6> *xyz 0 1
|  7> O          0.00000        0.00000        0.00000
|  8> H          0.00000        0.00000        0.95691
|  9> H          0.92636        0.00000       -0.23987
| 10> *
| 11> 
| 12> %maxcore 5000
| 13> 
| 14> %pal
| 15> nprocs = 28
| 16> end
| 17> 
| 18> 
| 19>                          ****END OF INPUT****
================================================================================

                       ****************************
                       * Single Point Calculation *
                       ****************************

---------------------------------
CARTESIAN COORDINATES (ANGSTROEM)
---------------------------------
  O      0.000000    0.000000    0.000000
  H      0.000000    0.000000    0.956910
  H      0.926360    0.000000   -0.239870

----------------------------
CARTESIAN COORDINATES (A.U.)
----------------------------
  NO LB      ZA    FRAG     MASS         X           Y           Z
   0 O     8.0000    0    15.999    0.000000    0.000000    0.000000
   1 H     1.0000    0     1.008    0.000000    0.000000    1.808298
   2 H     1.0000    0     1.008    1.750567    0.000000   -0.453289

--------------------------------
INTERNAL COORDINATES (ANGSTROEM)
--------------------------------
 O      0   0   0     0.000000000000     0.00000000     0.00000000
 H      1   0   0     0.956910000000     0.00000000     0.00000000
 H      1   2   0     0.956911942918   104.51721750     0.00000000

---------------------------
INTERNAL COORDINATES (A.U.)
---------------------------
 O      0   0   0     0.000000000000     0.00000000     0.00000000
 H      1   0   0     1.808297834811     0.00000000     0.00000000
 H      1   2   0     1.808301506394   104.51721750     0.00000000

---------------------
BASIS SET INFORMATION
---------------------
There are 2 groups of distinct atoms

 Group   1 Type O   : 12s7p3d1f contracted to 6s4p3d1f pattern {621111/4111/111/1}
 Group   2 Type H   : 5s3p1d contracted to 3s3p1d pattern {311/111/1}

Atom   0O    basis set group =>   1
Atom   1H    basis set group =>   2
Atom   2H    basis set group =>   2
---------------------------------
AUXILIARY/C BASIS SET INFORMATION
---------------------------------
There are 2 groups of distinct atoms

 Group   1 Type O   : 9s7p6d4f1g contracted to 9s7p5d4f1g pattern {111111111/1111111/21111/1111/1}
 Group   2 Type H   : 5s4p3d1f contracted to 5s4p3d1f pattern {11111/1111/111/1}

Atom   0O    basis set group =>   1
Atom   1H    basis set group =>   2
Atom   2H    basis set group =>   2
----------------------------------
AUXILIARY/JK BASIS SET INFORMATION
----------------------------------
There are 2 groups of distinct atoms

 Group   1 Type O   : 14s10p6d2f1g contracted to 10s8p4d2f1g pattern {5111111111/31111111/3111/11/1}
 Group   2 Type H   : 4s2p2d contracted to 2s2p2d pattern {31/11/11}

Atom   0O    basis set group =>   1
Atom   1H    basis set group =>   2
Atom   2H    basis set group =>   2


           ************************************************************
           *        Program running with 28 parallel MPI-processes    *
           *              working on a common directory               *
           ************************************************************
------------------------------------------------------------------------------
                           ORCA GTO INTEGRAL CALCULATION
                           -- RI-GTO INTEGRALS CHOSEN --
------------------------------------------------------------------------------

                         BASIS SET STATISTICS AND STARTUP INFO

Gaussian basis set:
 # of primitive gaussian shells          ...   41
 # of primitive gaussian functions       ...   93
 # of contracted shells                  ...   28
 # of contracted basis functions         ...   74
 Highest angular momentum                ...    3
 Maximum contraction depth               ...    6
Auxiliary gaussian basis set:
 # of primitive gaussian shells          ...   49
 # of primitive gaussian functions       ...  137
 # of contracted shells                  ...   37
 # of contracted aux-basis functions     ...  113
 Highest angular momentum                ...    4
 Maximum contraction depth               ...    5
Ratio of auxiliary to basis functions    ...  1.53
Integral package used                  ... LIBINT
 One Electron integrals                  ... done
 Ordering auxiliary basis shells         ... done
 Integral threshhold             Thresh  ...  1.000e-10
 Primitive cut-off               TCut    ...  1.000e-11
 Pre-screening matrix                    ... done
 Shell pair data                         ... 
 Ordering of the shell pairs             ... done (   0.000 sec) 406 of 406 pairs
 Determination of significant pairs      ... done (   0.000 sec)
 Creation of shell pair data             ... done (   0.000 sec)
 Storage of shell pair data              ... done (   0.026 sec)
 Shell pair data done in (   0.026 sec)
 Computing two index integrals           ... done
 Cholesky decomposition of the V-matrix  ... done


Timings:
 Total evaluation time                   ...   0.428 sec (  0.007 min)
 One electron matrix time                ...   0.181 sec (  0.003 min) = 42.3%
 Schwartz matrix evaluation time         ...   0.105 sec (  0.002 min) = 24.4%
 Two index repulsion integral time       ...   0.031 sec (  0.001 min) =  7.1%
 Cholesky decomposition of V             ...   0.018 sec (  0.000 min) =  4.2%
 Three index repulsion integral time     ...   0.000 sec (  0.000 min) =  0.0%



           ************************************************************
           *        Program running with 28 parallel MPI-processes    *
           *              working on a common directory               *
           ************************************************************
-------------------------------------------------------------------------------
                                 ORCA SCF
-------------------------------------------------------------------------------

------------
SCF SETTINGS
------------
Hamiltonian:
 Density Functional     Method          .... DFT(GTOs)
 Exchange Functional    Exchange        .... B88
   X-Alpha parameter    XAlpha          ....  0.666667
   Becke's b parameter  XBeta           ....  0.004200
 Correlation Functional Correlation     .... LYP
 LDA part of GGA corr.  LDAOpt          .... VWN-3
 Gradients option       PostSCFGGA      .... off
 Hybrid DFT is turned on
   Fraction HF Exchange ScalHFX         ....  0.530000
   Scaling of DF-GGA-X  ScalDFX         ....  0.470000
   Scaling of DF-GGA-C  ScalDFC         ....  0.730000
   Scaling of DF-LDA-C  ScalLDAC        ....  0.730000
   Perturbative correction              ....  0.270000
   Density functional embedding theory  .... OFF
 RI-approximation to the Coulomb term is turned on
   Number of auxiliary basis functions  .... 113
   RI-JK (J+K treated both via RI)      .... on


General Settings:
 Integral files         IntName         .... H2O
 Hartree-Fock type      HFTyp           .... RHF
 Total Charge           Charge          ....    0
 Multiplicity           Mult            ....    1
 Number of Electrons    NEL             ....   10
 Basis Dimension        Dim             ....   74
 Nuclear Repulsion      ENuc            ....      9.1977486581 Eh

Convergence Acceleration:
 DIIS                   CNVDIIS         .... on
   Start iteration      DIISMaxIt       ....    12
   Startup error        DIISStart       ....  0.200000
   # of expansion vecs  DIISMaxEq       ....     5
   Bias factor          DIISBfac        ....   1.050
   Max. coefficient     DIISMaxC        ....  10.000
 Newton-Raphson         CNVNR           .... off
 SOSCF                  CNVSOSCF        .... on
   Start iteration      SOSCFMaxIt      ....   150
   Startup grad/error   SOSCFStart      ....  0.003300
 Level Shifting         CNVShift        .... on
   Level shift para.    LevelShift      ....    0.2500
   Turn off err/grad.   ShiftErr        ....    0.0010
 Zerner damping         CNVZerner       .... off
 Static damping         CNVDamp         .... on
   Fraction old density DampFac         ....    0.7000
   Max. Damping (<1)    DampMax         ....    0.9800
   Min. Damping (>=0)   DampMin         ....    0.0000
   Turn off err/grad.   DampErr         ....    0.1000
 Fernandez-Rico         CNVRico         .... off

SCF Procedure:
 Maximum # iterations   MaxIter         ....   125
 SCF integral mode      SCFMode         .... Direct
   Integral package                     .... LIBINT
 Reset frequency        DirectResetFreq ....    20
 Integral Threshold     Thresh          ....  1.000e-10 Eh
 Primitive CutOff       TCut            ....  1.000e-11 Eh

Convergence Tolerance:
 Convergence Check Mode ConvCheckMode   .... Total+1el-Energy
 Convergence forced     ConvForced      .... 0
 Energy Change          TolE            ....  1.000e-06 Eh
 1-El. energy change                    ....  1.000e-03 Eh
 Orbital Gradient       TolG            ....  5.000e-05
 Orbital Rotation angle TolX            ....  5.000e-05
 DIIS Error             TolErr          ....  1.000e-06


Diagonalization of the overlap matrix:
Smallest eigenvalue                        ... 6.600e-04
Time for diagonalization                   ...    0.008 sec
Threshold for overlap eigenvalues          ... 1.000e-08
Number of eigenvalues below threshold      ... 0
Time for construction of square roots      ...    0.053 sec
Total time needed                          ...    0.062 sec

-------------------
DFT GRID GENERATION
-------------------

General Integration Accuracy     IntAcc      ...  4.670
Radial Grid Type                 RadialGrid  ... Gauss-Chebyshev
Angular Grid (max. acc.)         AngularGrid ... Lebedev-302
Angular grid pruning method      GridPruning ... 3 (G Style)
Weight generation scheme         WeightScheme... Becke
Basis function cutoff            BFCut       ...    1.0000e-10
Integration weight cutoff        WCut        ...    1.0000e-14
Grids for H and He will be reduced by one unit

# of grid points (after initial pruning)     ...  13000 (   0.0 sec)
# of grid points (after weights+screening)   ...  12888 (   0.0 sec)
nearest neighbour list constructed           ...    0.0 sec
Grid point re-assignment to atoms done       ...    0.0 sec
Grid point division into batches done        ...    0.1 sec
Reduced shell lists constructed in    0.1 sec

Total number of grid points                  ...    12888
Total number of batches                      ...      203
Average number of points per batch           ...       63
Average number of grid points per atom       ...     4296
Average number of shells per batch           ...    11.89 (42.46%)
Average number of basis functions per batch  ...    26.78 (36.19%)
Average number of large shells per batch     ...     7.89 (66.36%)
Average number of large basis fcns per batch ...    18.56 (69.29%)
Average number of aux-shells per batch       ...    11.89 (32.13%)
Average number of aux functions per batch    ...    26.78 (23.70%)
Maximum spatial batch extension              ...  12.63, 17.68, 12.66 au
Average spatial batch extension              ...   0.39,  0.54,  0.45 au

Time for grid setup =    2.988 sec

------------------------------
INITIAL GUESS: MODEL POTENTIAL
------------------------------
Loading Hartree-Fock densities                     ... done
Calculating cut-offs                               ... done
Setting up the integral package                    ... done
Initializing the effective Hamiltonian             ... done
Starting the Coulomb interaction                   ... done (   0.0 sec)
Reading the grid                                   ... done
Mapping shells                                     ... done
Starting the XC term evaluation                    ... done (   0.0 sec)
  promolecular density results
     # of electrons  =      9.999017449
     EX              =     -8.783976395
     EC              =     -0.106263131
     EX+EC           =     -8.890239526
Transforming the Hamiltonian                       ... done (   0.1 sec)
Diagonalizing the Hamiltonian                      ... done (   0.0 sec)
Back transforming the eigenvectors                 ... done (   0.0 sec)
Now organizing SCF variables                       ... done
                      ------------------
                      INITIAL GUESS DONE (   3.2 sec)
                      ------------------
--------------
SCF ITERATIONS
--------------
ITER       Energy         Delta-E        Max-DP      RMS-DP      [F,P]     Damp
  0    -76.2364394972   0.000000000000 0.04981367  0.00173882  0.3344796 0.7000
  1    -76.1743095499   0.062129947321 0.03980913  0.00153851  0.2426751 0.7000
                               ***Turning on DIIS***
  2    -76.2047151317  -0.030405581795 0.05589160  0.00232894  0.0849005 0.0000
  3    -76.2978697906  -0.093154658932 0.00990004  0.00038289  0.2039506 0.7000
  4    -76.3289209324  -0.031051141793 0.00905922  0.00036969  0.1830081 0.7000
  5    -76.3362613385  -0.007340406148 0.00717334  0.00030258  0.1451824 0.7000
  6    -76.3379983912  -0.001737052706 0.00560520  0.00024438  0.1123075 0.7000
  7    -76.3382418479  -0.000243456656 0.01962527  0.00093100  0.0861493 0.0000
  8    -76.3318885647   0.006353283142 0.00126595  0.00006443  0.0073351 0.0000
                      *** Initiating the SOSCF procedure ***
                           *** Shutting down DIIS ***
                      *** Re-Reading the Fockian *** 
                      *** Removing any level shift *** 
ITER      Energy       Delta-E        Grad      Rot      Max-DP    RMS-DP
  9    -76.33193275  -0.0000441819  0.000356  0.000356  0.000404  0.000020
 10    -76.33193723  -0.0000044801  0.000287  0.000293  0.000409  0.000019
 11    -76.33193712   0.0000001024  0.000346  0.000141  0.000259  0.000009
                 **** Energy Check signals convergence ****
              ***Rediagonalizing the Fockian in SOSCF/NRSCF***

               *****************************************************
               *                     SUCCESS                       *
               *           SCF CONVERGED AFTER  12 CYCLES          *
               *****************************************************


----------------
TOTAL SCF ENERGY
----------------

Total Energy       :          -76.33193785 Eh           -2077.09763 eV

Components:
Nuclear Repulsion  :            9.19774866 Eh             250.28347 eV
Electronic Energy  :          -85.52968650 Eh           -2327.38109 eV
One Electron Energy:         -123.07509387 Eh           -3349.04357 eV
Two Electron Energy:           37.54540737 Eh            1021.66247 eV

Virial components:
Potential Energy   :         -152.44869892 Eh           -4148.34000 eV
Kinetic Energy     :           76.11676107 Eh            2071.24237 eV
Virial Ratio       :            2.00282693


DFT components:
N(Alpha)           :        4.999998899404 electrons
N(Beta)            :        4.999998899404 electrons
N(Total)           :        9.999997798808 electrons
E(X)               :       -4.221725379468 Eh       
E(C)               :       -0.248629225749 Eh       
E(XC)              :       -4.470354605217 Eh       
DFET-embed. en.    :        0.000000000000 Eh       

---------------
SCF CONVERGENCE
---------------

  Last Energy change         ...   -7.2195e-07  Tolerance :   1.0000e-06
  Last MAX-Density change    ...    1.1324e-05  Tolerance :   1.0000e-05
  Last RMS-Density change    ...    4.3407e-07  Tolerance :   1.0000e-06
  Last Orbital Gradient      ...    8.0603e-06  Tolerance :   5.0000e-05
  Last Orbital Rotation      ...    2.7587e-06  Tolerance :   5.0000e-05

             **** THE GBW FILE WAS UPDATED (H2O.gbw) ****
             **** DENSITY FILE WAS UPDATED (H2O.scfp) ****
             **** ENERGY FILE WAS UPDATED (H2O.en.tmp) ****
             **** THE GBW FILE WAS UPDATED (H2O.gbw) ****
             **** DENSITY FILE WAS UPDATED (H2O.scfp) ****
----------------
ORBITAL ENERGIES
----------------

  NO   OCC          E(Eh)            E(eV) 
   0   2.0000     -19.733506      -536.9760 
   1   2.0000      -1.159188       -31.5431 
   2   2.0000      -0.614841       -16.7307 
   3   2.0000      -0.476623       -12.9696 
   4   2.0000      -0.401092       -10.9143 
   5   0.0000       0.025232         0.6866 
   6   0.0000       0.072070         1.9611 
   7   0.0000       0.099872         2.7177 
   8   0.0000       0.101805         2.7703 
   9   0.0000       0.171448         4.6653 
  10   0.0000       0.194061         5.2807 
  11   0.0000       0.220853         6.0097 
  12   0.0000       0.236081         6.4241 
  13   0.0000       0.251970         6.8565 
  14   0.0000       0.295895         8.0517 
  15   0.0000       0.306961         8.3528 
  16   0.0000       0.349986         9.5236 
  17   0.0000       0.447771        12.1845 
  18   0.0000       0.457765        12.4564 
  19   0.0000       0.492002        13.3881 
  20   0.0000       0.542974        14.7751 
  21   0.0000       0.555310        15.1108 
  22   0.0000       0.697293        18.9743 
  23   0.0000       0.739967        20.1355 
  24   0.0000       0.749978        20.4079 
  25   0.0000       0.758530        20.6407 
  26   0.0000       0.922282        25.0966 
  27   0.0000       1.022667        27.8282 
  28   0.0000       1.029149        28.0046 
  29   0.0000       1.095218        29.8024 
  30   0.0000       1.146310        31.1927 
  31   0.0000       1.234652        33.5966 
  32   0.0000       1.356716        36.9181 
  33   0.0000       1.412039        38.4235 
  34   0.0000       1.934062        52.6285 
  35   0.0000       1.999609        54.4121 
  36   0.0000       2.072446        56.3941 
  37   0.0000       2.160546        58.7915 
  38   0.0000       2.267813        61.7103 
  39   0.0000       2.562391        69.7262 
  40   0.0000       2.789593        75.9087 
  41   0.0000       2.915350        79.3307 
  42   0.0000       3.162672        86.0607 
  43   0.0000       3.214399        87.4682 
  44   0.0000       3.311475        90.1098 
  45   0.0000       3.435730        93.4910 
  46   0.0000       3.502589        95.3103 
  47   0.0000       3.522053        95.8399 
  48   0.0000       3.525749        95.9405 
  49   0.0000       3.754219       102.1575 
  50   0.0000       3.924536       106.7921 
  51   0.0000       3.949034       107.4587 
  52   0.0000       4.040361       109.9438 
  53   0.0000       4.142792       112.7311 
  54   0.0000       4.246956       115.5656 
  55   0.0000       4.283730       116.5662 
  56   0.0000       4.343177       118.1839 
  57   0.0000       4.806954       130.8039 
  58   0.0000       4.857334       132.1748 
  59   0.0000       5.063896       137.7956 
  60   0.0000       5.293282       144.0375 
  61   0.0000       5.794047       157.6640 
  62   0.0000       6.375555       173.4877 
  63   0.0000       6.642177       180.7428 
  64   0.0000       6.694578       182.1687 
  65   0.0000       6.743421       183.4978 
  66   0.0000       6.780641       184.5106 
  67   0.0000       6.825311       185.7262 
  68   0.0000       6.984665       190.0624 
  69   0.0000       7.155109       194.7004 
  70   0.0000       7.639722       207.8874 
  71   0.0000       7.755309       211.0327 
  72   0.0000       7.946428       216.2333 
  73   0.0000      44.465943      1209.9798 

                    ********************************
                    * MULLIKEN POPULATION ANALYSIS *
                    ********************************

-----------------------
MULLIKEN ATOMIC CHARGES
-----------------------
   0 O :   -0.368517
   1 H :    0.184187
   2 H :    0.184330
Sum of atomic charges:   -0.0000000

--------------------------------
MULLIKEN REDUCED ORBITAL CHARGES
--------------------------------
  0 O s       :     3.770274  s :     3.770274
      pz      :     1.299142  p :     4.585032
      px      :     1.375160
      py      :     1.910730
      dz2     :     0.004758  d :     0.012810
      dxz     :     0.001032
      dyz     :     0.001154
      dx2y2   :     0.003940
      dxy     :     0.001926
      f0      :     0.000133  f :     0.000400
      f+1     :    -0.000039
      f-1     :     0.000045
      f+2     :     0.000053
      f-2     :     0.000008
      f+3     :     0.000145
      f-3     :     0.000056
  1 H s       :     0.714248  s :     0.714248
      pz      :     0.027753  p :     0.092432
      px      :     0.024954
      py      :     0.039725
      dz2     :     0.003457  d :     0.009133
      dxz     :     0.002340
      dyz     :     0.003315
      dx2y2   :     0.000018
      dxy     :     0.000003
  2 H s       :     0.714115  s :     0.714115
      pz      :     0.024358  p :     0.092423
      px      :     0.028345
      py      :     0.039720
      dz2     :     0.001160  d :     0.009131
      dxz     :     0.002185
      dyz     :     0.000263
      dx2y2   :     0.002468
      dxy     :     0.003056


                     *******************************
                     * LOEWDIN POPULATION ANALYSIS *
                     *******************************

----------------------
LOEWDIN ATOMIC CHARGES
----------------------
   0 O :    0.428823
   1 H :   -0.214416
   2 H :   -0.214406

-------------------------------
LOEWDIN REDUCED ORBITAL CHARGES
-------------------------------
  0 O s       :     3.193268  s :     3.193268
      pz      :     1.323771  p :     4.320190
      px      :     1.378463
      py      :     1.617955
      dz2     :     0.031686  d :     0.054392
      dxz     :     0.006678
      dyz     :     0.000165
      dx2y2   :     0.015587
      dxy     :     0.000276
      f0      :     0.001374  f :     0.003328
      f+1     :     0.000684
      f-1     :     0.000176
      f+2     :     0.000280
      f-2     :     0.000034
      f+3     :     0.000565
      f-3     :     0.000215
  1 H s       :     0.625814  s :     0.625814
      pz      :     0.219139  p :     0.490878
      px      :     0.118307
      py      :     0.153433
      dz2     :     0.031223  d :     0.097724
      dxz     :     0.029291
      dyz     :     0.037144
      dx2y2   :     0.000052
      dxy     :     0.000015
  2 H s       :     0.625809  s :     0.625809
      pz      :     0.112907  p :     0.490874
      px      :     0.224536
      py      :     0.153431
      dz2     :     0.012973  d :     0.097723
      dxz     :     0.024280
      dyz     :     0.002705
      dx2y2   :     0.023313
      dxy     :     0.034453


                      *****************************
                      * MAYER POPULATION ANALYSIS *
                      *****************************

  NA   - Mulliken gross atomic population
  ZA   - Total nuclear charge
  QA   - Mulliken gross atomic charge
  VA   - Mayer's total valence
  BVA  - Mayer's bonded valence
  FA   - Mayer's free valence

  ATOM       NA         ZA         QA         VA         BVA        FA
  0 O      8.3685     8.0000    -0.3685     2.0395     2.0395    -0.0000
  1 H      0.8158     1.0000     0.1842     1.0401     1.0401    -0.0000
  2 H      0.8157     1.0000     0.1843     1.0401     1.0401    -0.0000

  Mayer bond orders larger than 0.100000
B(  0-O ,  1-H ) :   1.0198 B(  0-O ,  2-H ) :   1.0197 

-------
TIMINGS
-------

Total SCF time: 0 days 0 hours 3 min 59 sec 

Total time                  ....     239.481 sec
Sum of individual times     ....     238.198 sec  ( 99.5%)

Fock matrix formation       ....     231.981 sec  ( 96.9%)
  XC integration            ....     228.504 sec  ( 98.5% of F)
    Basis function eval.    ....       0.013 sec  (  0.0% of XC)
    Density eval.           ....       0.008 sec  (  0.0% of XC)
    XC-Functional eval.     ....       0.012 sec  (  0.0% of XC)
    XC-Potential eval.      ....       0.013 sec  (  0.0% of XC)
Diagonalization             ....       2.049 sec  (  0.9%)
Density matrix formation    ....       0.045 sec  (  0.0%)
Population analysis         ....       0.606 sec  (  0.3%)
Initial guess               ....       0.248 sec  (  0.1%)
Orbital Transformation      ....       0.000 sec  (  0.0%)
Orbital Orthonormalization  ....       0.000 sec  (  0.0%)
DIIS solution               ....       0.068 sec  (  0.0%)
SOSCF solution              ....       0.215 sec  (  0.1%)
Grid generation             ....       2.988 sec  (  1.2%)


           ************************************************************
           *        Program running with 28 parallel MPI-processes    *
           *              working on a common directory               *
           ************************************************************

------------------------------------------------------------------------------
                                ORCA  MP2 
------------------------------------------------------------------------------

Freezing NCore=2 chemical core electrons

-------------
RI-MP2 ENERGY
-------------
Dimension of the basis                    ...   74
Memory devoted to MP2                     ... 5000 MB   
Data format for buffers                   ... DOUBLE
Compression type for matrix containers    ... UNCOMPRESSED
Overall scaling of the MP2 energy         ...   2.700e-01
Calculating two index integrals           ... done (    0.005 sec)
Cholesky decomposition of V**-1           ... done (    0.269 sec)

-----------------
RI-TRANSFORMATION (AUX index driven)
-----------------

Dimension of the orbital-basis         ... 74
Dimension of the aux-basis             ... 170
Transformation of internal/external MOs...    1-   4 to    5-  73
Number Format for Storage              ... Double (8 Byte)
Integral mode                          ... Direct

First Phase: integral generation and transformation of MO indices
  Aux angular momentum 0               ... done (    0.000 sec)
  Aux angular momentum 1               ... done (    0.003 sec)
  Aux angular momentum 2               ... done (    0.000 sec)
  Aux angular momentum 3               ... done (    0.001 sec)
  Aux angular momentum 4               ... done (    0.001 sec)
Closing buffer VIA ( 0.00 GB; CompressionRatio= 0.99)
  Phase 1 completed in     7.204 sec
Second Phase: sorting and transformation of aux index

IA-Transformation
Memory available                       ... 5000 MB 
Max. # MO pairs treated in a batch     ... 1    
# of internal orbitals                 ... 4
# batches for internal orbitals        ... 1
Closing buffer IAV ( 0.00 GB; CompressionRatio= 1.00)
(ia|v) transformation done in     0.150 sec

  Phase 2 completed in     7.842 sec
RI-Integral transformation completed in    17.104 sec
Opening buffers                              ... done

Starting loop over batches of integrals:

Operator 0  - window                       ... (  1-  4)x(  5- 73)
Operator 0  - Memory available             ...  5000 MB
Operator 0  - Memory needed per MO         ...   0.1 MB
Operator 0  - Number of orbitals per batch ... 1
Operator 0  - Number of batches            ... 1

OPERATOR  0   PASS   0:  MOs     1 ...    1 +    2 ...    2 +    3 ...    3 +    4 ...    4
  Reading integrals       ... ok
Time spent in pair loops =     0.004 sec
Deleting buffer (Ka|jb)[aa] ...done

-----------------------------------------------
 RI-MP2 CORRELATION ENERGY:     -0.084505747 Eh
-----------------------------------------------


-------
TIMINGS
-------

Total time                :   18.491 sec
Integral trafo            :   17.121 sec ( 92.6%)
I/O of integrals          :    0.001 sec (  0.0%)
K(i,j) Operators          :    0.000 sec (  0.0%)
T(i,j) pair energies      :    0.001 sec (  0.0%)
V-calculation             :    0.005 sec (  0.0%)
V**(-1/2)                 :    0.269 sec (  1.5%)
Gamma(ia|P)               :    0.000 sec (  0.0%)
Gamma-Trafo               :    0.000 sec (  0.0%)
D(virtual)                :    0.000 sec (  0.0%)
D(internal)               :    0.000 sec (  0.0%)
W(virtual)                :    0.000 sec (  0.0%)
W(internal)               :    0.000 sec (  0.0%)
L(virtual)                :    0.000 sec (  0.0%)
L(internal)               :    0.000 sec (  0.0%)
G(D)                      :    0.000 sec (  0.0%)
G(Z)                      :    0.000 sec (  0.0%)
Z-Vector Solution         :    0.000 sec (  0.0%)
Z-Vector Solution         :    0.000 sec (  0.0%)
3-Index Derivative 
+ Separable RIJ part      :    0.000 sec (  0.0%)
2-Index Derivative 
+ Separable RIJ part      :    0.000 sec (  0.0%)
Separable Gradient (X)    :    0.000 sec (  0.0%)


---------------------------------------
MP2 TOTAL ENERGY:      -76.416443593 Eh
---------------------------------------


-------------------------------------------------------------------------------
                          DFT DISPERSION CORRECTION                            
                                                                               
                              DFTD3 V3.1  Rev 1                                
                          USING Becke-Johnson damping                          
-------------------------------------------------------------------------------
The B2PLYP functional is recognized
Active option DFTDOPT                   ...         4   

molecular C6(AA) [au] = 44.529947 


            DFT-D V3
 parameters
 s6 scaling factor         :     0.6400 
 a1 scaling factor         :     0.3065 
 s8 scaling factor         :     0.9147 
 a2 scaling factor         :     5.0570 
 ad hoc parameters k1-k3   :    16.0000     1.3333    -4.0000 

 Edisp/kcal,au: -0.147018726689  -0.000234289229 
 E6   /kcal   :  -0.095280851 
 E8   /kcal   :  -0.051737876 
 % E8         :  35.191350687 

-------------------------   ----------------
Dispersion correction           -0.000234289
-------------------------   ----------------


-------------------------   --------------------
FINAL SINGLE POINT ENERGY       -76.416677882517
-------------------------   --------------------


                            ***************************************
                            *     ORCA property calculations      *
                            ***************************************


  WARNING: The energy has been calculated at the MP2 level but the densities
           used in the property calculations are still SCF densities
           MP2 response densities have not been calculated 
           use %mp2 Density relaxed end
           or  %mp2 Density unrelaxed end

                                    ---------------------
                                    Active property flags
                                    ---------------------
   (+) Dipole Moment


------------------------------------------------------------------------------
                       ORCA ELECTRIC PROPERTIES CALCULATION
------------------------------------------------------------------------------

Dipole Moment Calculation                       ... on
Quadrupole Moment Calculation                   ... off
Polarizability Calculation                      ... off
GBWName                                         ... H2O.gbw
Electron density file                           ... H2O.scfp
The origin for moment calculation is the CENTER OF MASS  = ( 0.097950,  0.000000  0.075817)

-------------
DIPOLE MOMENT
-------------
                                X             Y             Z
Electronic contribution:     -0.17463      -0.00000      -0.13517
Nuclear contribution   :      0.77107       0.00000       0.59684
                        -----------------------------------------
Total Dipole Moment    :      0.59644      -0.00000       0.46167
                        -----------------------------------------
Magnitude (a.u.)       :      0.75424
Magnitude (Debye)      :      1.91712



--------------------
Rotational spectrum 
--------------------
 
Rotational constants in cm-1:    27.444931    14.603274     9.531581 
Rotational constants in MHz : 822778.333197 437795.154799 285749.598240 

 Dipole components along the rotational axes: 
x,y,z [a.u.] :     0.000004     0.754239     0.000000 
x,y,z [Debye]:     0.000011     1.917124     0.000000 

 

Timings for individual modules:

Sum of individual times         ...      273.010 sec (=   4.550 min)
GTO integral calculation        ...        7.589 sec (=   0.126 min)   2.8 %
SCF iterations                  ...      242.514 sec (=   4.042 min)  88.8 %
MP2 module                      ...       22.907 sec (=   0.382 min)   8.4 %
                             ****ORCA TERMINATED NORMALLY****
TOTAL RUN TIME: 0 days 0 hours 6 minutes 21 seconds 649 msec
