
                                 *****************
                                 * O   R   C   A *
                                 *****************

           --- An Ab Initio, DFT and Semiempirical electronic structure package ---

                  #######################################################
                  #                        -***-                        #
                  #          Department of theory and spectroscopy      #
                  #               Directorship: Frank Neese             #
                  #        Max Planck Institute fuer Kohlenforschung    #
                  #                Kaiser Wilhelm Platz 1               #
                  #                 D-45470 Muelheim/Ruhr               #
                  #                      Germany                        #
                  #                                                     #
                  #                  All rights reserved                #
                  #                        -***-                        #
                  #######################################################


                         Program Version 4.2.0 -  RELEASE  -


 With contributions from (in alphabetic order):
   Daniel Aravena         : Magnetic Suceptibility
   Michael Atanasov       : Ab Initio Ligand Field Theory (pilot matlab implementation)
   Alexander A. Auer      : GIAO ZORA, VPT2
   Ute Becker             : Parallelization
   Giovanni Bistoni       : ED, misc. LED, open-shell LED, HFLED
   Martin Brehm           : Molecular dynamics
   Dmytro Bykov           : SCF Hessian
   Vijay G. Chilkuri      : MRCI spin determinant printing, contributions to CSF-ICE
   Dipayan Datta          : RHF DLPNO-CCSD density
   Achintya Kumar Dutta   : EOM-CC, STEOM-CC
   Dmitry Ganyushin       : Spin-Orbit,Spin-Spin,Magnetic field MRCI
   Miquel Garcia          : C-PCM Hessian, Gaussian charge scheme
   Yang Guo               : DLPNO-NEVPT2, CIM, IAO-localization
   Andreas Hansen         : Spin unrestricted coupled pair/coupled cluster methods
   Benjamin Helmich-Paris : CASSCF linear response (MC-RPA)
   Lee Huntington         : MR-EOM, pCC
   Robert Izsak           : Overlap fitted RIJCOSX, COSX-SCS-MP3, EOM
   Christian Kollmar      : KDIIS, OOCD, Brueckner-CCSD(T), CCSD density
   Simone Kossmann        : Meta GGA functionals, TD-DFT gradient, OOMP2, MP2 Hessian
   Martin Krupicka        : AUTO-CI
   Lucas Lang             : DCDCAS
   Dagmar Lenk            : GEPOL surface, SMD
   Dimitrios Liakos       : Extrapolation schemes; Compound Job, initial MDCI parallelization
   Dimitrios Manganas     : Further ROCIS development; embedding schemes
   Dimitrios Pantazis     : SARC Basis sets
   Taras Petrenko         : DFT Hessian,TD-DFT gradient, ASA, ECA, R-Raman, ABS, FL, XAS/XES, NRVS
   Peter Pinski           : DLPNO-MP2, DLPNO-MP2 Gradient
   Christoph Reimann      : Effective Core Potentials
   Marius Retegan         : Local ZFS, SOC
   Christoph Riplinger    : Optimizer, TS searches, QM/MM, DLPNO-CCSD(T), (RO)-DLPNO pert. Triples
   Tobias Risthaus        : Range-separated hybrids, TD-DFT gradient, RPA, STAB
   Michael Roemelt        : Original ROCIS implementation
   Masaaki Saitow         : Open-shell DLPNO-CCSD energy and density
   Barbara Sandhoefer     : DKH picture change effects
   Avijit Sen             : IP-ROCIS
   Kantharuban Sivalingam : CASSCF convergence, NEVPT2, FIC-MRCI
   Bernardo de Souza      : ESD, SOC TD-DFT
   Georgi Stoychev        : AutoAux, RI-MP2 NMR
   Willem Van den Heuvel  : Paramagnetic NMR
   Boris Wezisla          : Elementary symmetry handling
   Frank Wennmohs         : Technical directorship


 We gratefully acknowledge several colleagues who have allowed us to
 interface, adapt or use parts of their codes:
   Stefan Grimme, W. Hujo, H. Kruse,             : VdW corrections, initial TS optimization,
                  C. Bannwarth                     DFT functionals, gCP, sTDA/sTD-DF
   Ed Valeev, F. Pavosevic, A. Kumar             : LibInt (2-el integral package), F12 methods
   Garnet Chan, S. Sharma, J. Yang, R. Olivares  : DMRG
   Ulf Ekstrom                                   : XCFun DFT Library
   Mihaly Kallay                                 : mrcc  (arbitrary order and MRCC methods)
   Andreas Klamt, Michael Diedenhofen            : otool_cosmo (COSMO solvation model)
   Jiri Pittner, Ondrej Demel                    : Mk-CCSD
   Frank Weinhold                                : gennbo (NPA and NBO analysis)
   Christopher J. Cramer and Donald G. Truhlar   : smd solvation model
   Lars Goerigk                                  : TD-DFT with DH, B97 family of functionals
   V. Asgeirsson, H. Jonsson                     : NEB implementation
   FAccTs GmbH                                   : IRC, NEB, NEB-TS, Multilevel, MM, QM/MM, CI optimization
   S Lehtola, MJT Oliveira, MAL Marques          : LibXC Library


 Your calculation uses the libint2 library for the computation of 2-el integrals
 For citations please refer to: http://libint.valeyev.net

 Your ORCA version has been built with support for libXC version: 4.2.3
 For citations please refer to: https://tddft.org/programs/libxc/

 This ORCA versions uses:
   CBLAS   interface :  Fast vector & matrix operations
   LAPACKE interface :  Fast linear algebra routines
   SCALAPACK package :  Parallel linear algebra routines


Your calculation utilizes the atom-pairwise dispersion correction
with the Becke-Johnson damping scheme (D3BJ)
Cite in your paper:
S.Grimme, S.Ehrlich, L.Goerigk, J Comput Chem, (2011), 32, 1456–1465 
S.Grimme, J.Antony, S.Ehrlich and H.Krieg, J.Chem.Phys., 132, (2010), 154104 
   

----- Orbital basis set information -----
Your calculation utilizes the basis: def2-TZVPPD
   F. Weigend and R. Ahlrichs, Phys. Chem. Chem. Phys. 7, 3297 (2005).
   D. Rappoport and F. Furche, J. Chem. Phys. 133 134105 (2010).

----- AuxC basis set information -----
Your calculation utilizes the auxiliary basis: def2-TZVPPD/C
   A. Hellweg, C. Hattig, S. Hofener and W. Klopper, Theor. Chem. Acc. 117, 587 (2007).

----- AuxJK basis set information -----
Your calculation utilizes the auxiliary basis: def2/JK
   H-Ba, Hf-Rn: F. Weigend, J. Comput. Chem. 29, 167 (2008).

================================================================================
                                        WARNINGS
                       Please study these warnings very carefully!
================================================================================


WARNING: your system is open-shell and RHF/RKS was chosen
  ===> : WILL SWITCH to UHF/UKS


WARNING: No MP2 level density has been requested!
         To caclulate MP2 level properties use
         %mp2 Density relaxed end
         or
         %mp2 Density unrelaxed end
         Otherwise for double-hybrid DFT only the energy is correct!

WARNING: The frozen-core approximation is turned on by default for 
         the MP2 part of double-hybrid DFT.

INFO   : the flag for use of LIBINT has been found!

================================================================================
                                       INPUT FILE
================================================================================
NAME = LiO.in
|  1> #
|  2> # LiO ri-B2PLYP-D3BJ/Def2-TZVPPD
|  3> #
|  4> ! rijk ri-b2plyp d3bj def2-tzvppd def2/jk def2-tzvppd/c grid4 nofinalgrid
|  5> 
|  6> *xyz 0 2
|  7> Li         0.00000        0.00000        0.00000
|  8> O          0.00000        0.00000        1.68900
|  9> *
| 10> 
| 11> %maxcore 5000
| 12> 
| 13> %pal
| 14> nprocs = 28
| 15> end
| 16> 
| 17> 
| 18>                          ****END OF INPUT****
================================================================================

                       ****************************
                       * Single Point Calculation *
                       ****************************

---------------------------------
CARTESIAN COORDINATES (ANGSTROEM)
---------------------------------
  Li     0.000000    0.000000    0.000000
  O      0.000000    0.000000    1.689000

----------------------------
CARTESIAN COORDINATES (A.U.)
----------------------------
  NO LB      ZA    FRAG     MASS         X           Y           Z
   0 Li    3.0000    0     6.941    0.000000    0.000000    0.000000
   1 O     8.0000    0    15.999    0.000000    0.000000    3.191747

--------------------------------
INTERNAL COORDINATES (ANGSTROEM)
--------------------------------
 Li     0   0   0     0.000000000000     0.00000000     0.00000000
 O      1   0   0     1.689000000000     0.00000000     0.00000000

---------------------------
INTERNAL COORDINATES (A.U.)
---------------------------
 Li     0   0   0     0.000000000000     0.00000000     0.00000000
 O      1   0   0     3.191747440193     0.00000000     0.00000000

---------------------
BASIS SET INFORMATION
---------------------
There are 2 groups of distinct atoms

 Group   1 Type Li  : 11s4p1d contracted to 5s4p1d pattern {62111/1111/1}
 Group   2 Type O   : 12s7p3d1f contracted to 6s4p3d1f pattern {621111/4111/111/1}

Atom   0Li   basis set group =>   1
Atom   1O    basis set group =>   2
---------------------------------
AUXILIARY/C BASIS SET INFORMATION
---------------------------------
There are 2 groups of distinct atoms

 Group   1 Type Li  : 10s7p4d1f contracted to 10s7p4d1f pattern {1111111111/1111111/1111/1}
 Group   2 Type O   : 9s7p6d4f1g contracted to 9s7p5d4f1g pattern {111111111/1111111/21111/1111/1}

Atom   0Li   basis set group =>   1
Atom   1O    basis set group =>   2
----------------------------------
AUXILIARY/JK BASIS SET INFORMATION
----------------------------------
There are 2 groups of distinct atoms

 Group   1 Type Li  : 10s7p4d2f contracted to 7s5p3d2f pattern {4111111/31111/211/11}
 Group   2 Type O   : 14s10p6d2f1g contracted to 10s8p4d2f1g pattern {5111111111/31111111/3111/11/1}

Atom   0Li   basis set group =>   1
Atom   1O    basis set group =>   2


           ************************************************************
           *        Program running with 28 parallel MPI-processes    *
           *              working on a common directory               *
           ************************************************************
------------------------------------------------------------------------------
                           ORCA GTO INTEGRAL CALCULATION
                           -- RI-GTO INTEGRALS CHOSEN --
------------------------------------------------------------------------------

                         BASIS SET STATISTICS AND STARTUP INFO

Gaussian basis set:
 # of primitive gaussian shells          ...   39
 # of primitive gaussian functions       ...   83
 # of contracted shells                  ...   24
 # of contracted basis functions         ...   62
 Highest angular momentum                ...    3
 Maximum contraction depth               ...    6
Auxiliary gaussian basis set:
 # of primitive gaussian shells          ...   56
 # of primitive gaussian functions       ...  162
 # of contracted shells                  ...   42
 # of contracted aux-basis functions     ...  128
 Highest angular momentum                ...    4
 Maximum contraction depth               ...    5
Ratio of auxiliary to basis functions    ...  2.06
Integral package used                  ... LIBINT
 One Electron integrals                  ... done
 Ordering auxiliary basis shells         ... done
 Integral threshhold             Thresh  ...  1.000e-10
 Primitive cut-off               TCut    ...  1.000e-11
 Pre-screening matrix                    ... done
 Shell pair data                         ... 
 Ordering of the shell pairs             ... done (   0.000 sec) 297 of 300 pairs
 Determination of significant pairs      ... done (   0.000 sec)
 Creation of shell pair data             ... done (   0.000 sec)
 Storage of shell pair data              ... done (   0.004 sec)
 Shell pair data done in (   0.004 sec)
 Computing two index integrals           ... done
 Cholesky decomposition of the V-matrix  ... done


Timings:
 Total evaluation time                   ...   0.177 sec (  0.003 min)
 One electron matrix time                ...   0.037 sec (  0.001 min) = 20.9%
 Schwartz matrix evaluation time         ...   0.109 sec (  0.002 min) = 61.6%
 Two index repulsion integral time       ...   0.002 sec (  0.000 min) =  1.0%
 Cholesky decomposition of V             ...   0.003 sec (  0.000 min) =  1.9%
 Three index repulsion integral time     ...   0.000 sec (  0.000 min) =  0.0%



           ************************************************************
           *        Program running with 28 parallel MPI-processes    *
           *              working on a common directory               *
           ************************************************************
-------------------------------------------------------------------------------
                                 ORCA SCF
-------------------------------------------------------------------------------

------------
SCF SETTINGS
------------
Hamiltonian:
 Density Functional     Method          .... DFT(GTOs)
 Exchange Functional    Exchange        .... B88
   X-Alpha parameter    XAlpha          ....  0.666667
   Becke's b parameter  XBeta           ....  0.004200
 Correlation Functional Correlation     .... LYP
 LDA part of GGA corr.  LDAOpt          .... VWN-3
 Gradients option       PostSCFGGA      .... off
 Hybrid DFT is turned on
   Fraction HF Exchange ScalHFX         ....  0.530000
   Scaling of DF-GGA-X  ScalDFX         ....  0.470000
   Scaling of DF-GGA-C  ScalDFC         ....  0.730000
   Scaling of DF-LDA-C  ScalLDAC        ....  0.730000
   Perturbative correction              ....  0.270000
   Density functional embedding theory  .... OFF
 RI-approximation to the Coulomb term is turned on
   Number of auxiliary basis functions  .... 128
   RI-JK (J+K treated both via RI)      .... on


General Settings:
 Integral files         IntName         .... LiO
 Hartree-Fock type      HFTyp           .... UHF
 Total Charge           Charge          ....    0
 Multiplicity           Mult            ....    2
 Number of Electrons    NEL             ....   11
 Basis Dimension        Dim             ....   62
 Nuclear Repulsion      ENuc            ....      7.5193919474 Eh

Convergence Acceleration:
 DIIS                   CNVDIIS         .... on
   Start iteration      DIISMaxIt       ....    12
   Startup error        DIISStart       ....  0.200000
   # of expansion vecs  DIISMaxEq       ....     5
   Bias factor          DIISBfac        ....   1.050
   Max. coefficient     DIISMaxC        ....  10.000
 Newton-Raphson         CNVNR           .... off
 SOSCF                  CNVSOSCF        .... off
 Level Shifting         CNVShift        .... on
   Level shift para.    LevelShift      ....    0.2500
   Turn off err/grad.   ShiftErr        ....    0.0010
 Zerner damping         CNVZerner       .... off
 Static damping         CNVDamp         .... on
   Fraction old density DampFac         ....    0.7000
   Max. Damping (<1)    DampMax         ....    0.9800
   Min. Damping (>=0)   DampMin         ....    0.0000
   Turn off err/grad.   DampErr         ....    0.1000
 Fernandez-Rico         CNVRico         .... off

SCF Procedure:
 Maximum # iterations   MaxIter         ....   125
 SCF integral mode      SCFMode         .... Direct
   Integral package                     .... LIBINT
 Reset frequency        DirectResetFreq ....    20
 Integral Threshold     Thresh          ....  1.000e-10 Eh
 Primitive CutOff       TCut            ....  1.000e-11 Eh

Convergence Tolerance:
 Convergence Check Mode ConvCheckMode   .... Total+1el-Energy
 Convergence forced     ConvForced      .... 0
 Energy Change          TolE            ....  1.000e-06 Eh
 1-El. energy change                    ....  1.000e-03 Eh
 DIIS Error             TolErr          ....  1.000e-06


Diagonalization of the overlap matrix:
Smallest eigenvalue                        ... 2.607e-03
Time for diagonalization                   ...    0.026 sec
Threshold for overlap eigenvalues          ... 1.000e-08
Number of eigenvalues below threshold      ... 0
Time for construction of square roots      ...    0.112 sec
Total time needed                          ...    0.138 sec

-------------------
DFT GRID GENERATION
-------------------

General Integration Accuracy     IntAcc      ...  4.670
Radial Grid Type                 RadialGrid  ... Gauss-Chebyshev
Angular Grid (max. acc.)         AngularGrid ... Lebedev-302
Angular grid pruning method      GridPruning ... 3 (G Style)
Weight generation scheme         WeightScheme... Becke
Basis function cutoff            BFCut       ...    1.0000e-10
Integration weight cutoff        WCut        ...    1.0000e-14
Grids for H and He will be reduced by one unit

# of grid points (after initial pruning)     ...  12088 (   0.0 sec)
# of grid points (after weights+screening)   ...  12047 (   0.0 sec)
nearest neighbour list constructed           ...    0.0 sec
Grid point re-assignment to atoms done       ...    0.0 sec
Grid point division into batches done        ...    0.1 sec
Reduced shell lists constructed in    0.1 sec

Total number of grid points                  ...    12047
Total number of batches                      ...      190
Average number of points per batch           ...       63
Average number of grid points per atom       ...     6024
Average number of shells per batch           ...     3.75 (15.62%)
Average number of basis functions per batch  ...     8.50 (13.71%)
Average number of large shells per batch     ...     2.12 (56.67%)
Average number of large basis fcns per batch ...     4.88 (57.35%)
Average number of aux-shells per batch       ...     3.75 ( 8.93%)
Average number of aux functions per batch    ...     8.50 ( 6.64%)
Maximum spatial batch extension              ...  43.84, 39.87, 23.89 au
Average spatial batch extension              ...   1.29,  1.08,  0.81 au

Time for grid setup =    1.822 sec

------------------------------
INITIAL GUESS: MODEL POTENTIAL
------------------------------
Loading Hartree-Fock densities                     ... done
Calculating cut-offs                               ... done
Setting up the integral package                    ... done
Initializing the effective Hamiltonian             ... done
Starting the Coulomb interaction                   ... done (   0.0 sec)
Reading the grid                                   ... done
Mapping shells                                     ... done
Starting the XC term evaluation                    ... done (   0.0 sec)
  promolecular density results
     # of electrons  =     11.000010517
     EX              =     -9.856005972
     EC              =     -0.097910216
     EX+EC           =     -9.953916188
Transforming the Hamiltonian                       ... done (   0.0 sec)
Diagonalizing the Hamiltonian                      ... done (   0.0 sec)
Back transforming the eigenvectors                 ... done (   0.0 sec)
Now organizing SCF variables                       ... done
                      ------------------
                      INITIAL GUESS DONE (   2.0 sec)
                      ------------------
--------------
SCF ITERATIONS
--------------
ITER       Energy         Delta-E        Max-DP      RMS-DP      [F,P]     Damp
  0    -82.5083621224   0.000000000000 0.02340861  0.00096801  0.2938308 0.7000
  1    -82.4468724617   0.061489660701 0.02008893  0.00089862  0.2244678 0.7000
                               ***Turning on DIIS***
  2    -82.4653916359  -0.018519174151 0.03192160  0.00154488  0.0840776 0.0000
  3    -82.5544969646  -0.089105328776 0.00539018  0.00023914  0.1986160 0.7000
  4    -82.5877473929  -0.033250428308 0.00517690  0.00023843  0.1790488 0.7000
  5    -82.5961847043  -0.008437311413 0.00434350  0.00020369  0.1412500 0.7000
  6    -82.5984775131  -0.002292808718 0.00359373  0.00016963  0.1072233 0.7000
  7    -82.5987012070  -0.000223693949 0.01231518  0.00057517  0.0793586 0.0000
  8    -82.5880653106   0.010635896429 0.00140801  0.00006293  0.0120147 0.0000
  9    -82.5881766658  -0.000111355196 0.00047570  0.00002300  0.0042754 0.0000
 10    -82.5881932500  -0.000016584188 0.00018704  0.00001017  0.0016701 0.0000
 11    -82.5881967139  -0.000003463904 0.00015846  0.00000920  0.0007029 0.0000
 12    -82.5881981848  -0.000001470917 0.00010546  0.00000575  0.0001297 0.0000
                 **** Energy Check signals convergence ****

               *****************************************************
               *                     SUCCESS                       *
               *           SCF CONVERGED AFTER  13 CYCLES          *
               *****************************************************


----------------
TOTAL SCF ENERGY
----------------

Total Energy       :          -82.58819859 Eh           -2247.33914 eV

Components:
Nuclear Repulsion  :            7.51939195 Eh             204.61306 eV
Electronic Energy  :          -90.10759054 Eh           -2451.95219 eV
One Electron Energy:         -129.57476549 Eh           -3525.90862 eV
Two Electron Energy:           39.46717495 Eh            1073.95643 eV

Virial components:
Potential Energy   :         -164.96704124 Eh           -4488.98141 eV
Kinetic Energy     :           82.37884265 Eh            2241.64227 eV
Virial Ratio       :            2.00254138


DFT components:
N(Alpha)           :        6.000008087269 electrons
N(Beta)            :        5.000007114212 electrons
N(Total)           :       11.000015201482 electrons
E(X)               :       -4.758612291798 Eh       
E(C)               :       -0.259074264712 Eh       
E(XC)              :       -5.017686556510 Eh       
DFET-embed. en.    :        0.000000000000 Eh       

---------------
SCF CONVERGENCE
---------------

  Last Energy change         ...   -4.0789e-07  Tolerance :   1.0000e-06
  Last MAX-Density change    ...    5.9556e-05  Tolerance :   1.0000e-05
  Last RMS-Density change    ...    3.3783e-06  Tolerance :   1.0000e-06
  Last DIIS Error            ...    4.1261e-05  Tolerance :   1.0000e-06

             **** THE GBW FILE WAS UPDATED (LiO.gbw) ****
             **** DENSITY FILE WAS UPDATED (LiO.scfp) ****
             **** ENERGY FILE WAS UPDATED (LiO.en.tmp) ****
----------------------
UHF SPIN CONTAMINATION
----------------------

Warning: in a DFT calculation there is little theoretical justification to 
         calculate <S**2> as in Hartree-Fock theory. We will do it anyways
         but you should keep in mind that the values have only limited relevance

Expectation value of <S**2>     :     0.755301
Ideal value S*(S+1) for S=0.5   :     0.750000
Deviation                       :     0.005301

             **** THE GBW FILE WAS UPDATED (LiO.gbw) ****
             **** DENSITY FILE WAS UPDATED (LiO.scfp) ****
----------------
ORBITAL ENERGIES
----------------
                 SPIN UP ORBITALS
  NO   OCC          E(Eh)            E(eV) 
   0   1.0000     -19.649426      -534.6881 
   1   1.0000      -2.184535       -59.4442 
   2   1.0000      -0.971511       -26.4361 
   3   1.0000      -0.377179       -10.2636 
   4   1.0000      -0.320183        -8.7126 
   5   1.0000      -0.300810        -8.1855 
   6   0.0000      -0.031084        -0.8458 
   7   0.0000       0.019893         0.5413 
   8   0.0000       0.020898         0.5687 
   9   0.0000       0.038686         1.0527 
  10   0.0000       0.078321         2.1312 
  11   0.0000       0.102302         2.7838 
  12   0.0000       0.104536         2.8446 
  13   0.0000       0.155129         4.2213 
  14   0.0000       0.158764         4.3202 
  15   0.0000       0.164160         4.4670 
  16   0.0000       0.192924         5.2497 
  17   0.0000       0.289192         7.8693 
  18   0.0000       0.326705         8.8901 
  19   0.0000       0.327287         8.9059 
  20   0.0000       0.383773        10.4430 
  21   0.0000       0.410023        11.1573 
  22   0.0000       0.411246        11.1906 
  23   0.0000       0.451457        12.2848 
  24   0.0000       0.460487        12.5305 
  25   0.0000       0.515293        14.0218 
  26   0.0000       0.515679        14.0323 
  27   0.0000       0.602075        16.3833 
  28   0.0000       0.677562        18.4374 
  29   0.0000       0.699818        19.0430 
  30   0.0000       0.757860        20.6224 
  31   0.0000       0.884109        24.0578 
  32   0.0000       0.900111        24.4933 
  33   0.0000       0.933166        25.3927 
  34   0.0000       0.994374        27.0583 
  35   0.0000       1.692298        46.0498 
  36   0.0000       1.873675        50.9853 
  37   0.0000       1.873938        50.9925 
  38   0.0000       1.883007        51.2392 
  39   0.0000       1.924061        52.3564 
  40   0.0000       2.212604        60.2080 
  41   0.0000       2.894594        78.7659 
  42   0.0000       2.952133        80.3316 
  43   0.0000       3.003448        81.7280 
  44   0.0000       3.265763        88.8659 
  45   0.0000       5.357348       145.7809 
  46   0.0000       5.369258       146.1049 
  47   0.0000       5.380312       146.4057 
  48   0.0000       5.388518       146.6290 
  49   0.0000       5.388571       146.6305 
  50   0.0000       5.424347       147.6040 
  51   0.0000       5.495178       149.5314 
  52   0.0000       6.139411       167.0619 
  53   0.0000       6.142407       167.1434 
  54   0.0000       6.395088       174.0192 
  55   0.0000       6.614416       179.9874 
  56   0.0000       6.617928       180.0830 
  57   0.0000       6.633270       180.5005 
  58   0.0000       6.689301       182.0251 
  59   0.0000       6.841816       186.1753 
  60   0.0000      14.818592       403.2344 
  61   0.0000      43.945412      1195.8155 

                 SPIN DOWN ORBITALS
  NO   OCC          E(Eh)            E(eV) 
   0   1.0000     -19.620760      -533.9080 
   1   1.0000      -2.185093       -59.4594 
   2   1.0000      -0.861617       -23.4458 
   3   1.0000      -0.288700        -7.8559 
   4   1.0000      -0.266606        -7.2547 
   5   0.0000      -0.030618        -0.8331 
   6   0.0000      -0.000453        -0.0123 
   7   0.0000       0.021418         0.5828 
   8   0.0000       0.039219         1.0672 
   9   0.0000       0.044719         1.2169 
  10   0.0000       0.078768         2.1434 
  11   0.0000       0.104851         2.8531 
  12   0.0000       0.114922         3.1272 
  13   0.0000       0.156485         4.2582 
  14   0.0000       0.166484         4.5303 
  15   0.0000       0.192734         5.2446 
  16   0.0000       0.195899         5.3307 
  17   0.0000       0.292374         7.9559 
  18   0.0000       0.327998         8.9253 
  19   0.0000       0.328965         8.9516 
  20   0.0000       0.385082        10.4786 
  21   0.0000       0.411686        11.2025 
  22   0.0000       0.414122        11.2688 
  23   0.0000       0.459424        12.5016 
  24   0.0000       0.463240        12.6054 
  25   0.0000       0.521552        14.1922 
  26   0.0000       0.523100        14.2343 
  27   0.0000       0.604861        16.4591 
  28   0.0000       0.706037        19.2122 
  29   0.0000       0.726995        19.7825 
  30   0.0000       0.770559        20.9680 
  31   0.0000       0.903773        24.5929 
  32   0.0000       0.914157        24.8755 
  33   0.0000       0.949847        25.8466 
  34   0.0000       0.996650        27.1202 
  35   0.0000       1.699483        46.2453 
  36   0.0000       1.931543        52.5599 
  37   0.0000       1.934050        52.6282 
  38   0.0000       1.936770        52.7022 
  39   0.0000       1.942457        52.8569 
  40   0.0000       2.231065        60.7104 
  41   0.0000       2.972792        80.8938 
  42   0.0000       3.008280        81.8595 
  43   0.0000       3.023907        82.2847 
  44   0.0000       3.306228        89.9670 
  45   0.0000       5.425505       147.6355 
  46   0.0000       5.428347       147.7128 
  47   0.0000       5.430590       147.7739 
  48   0.0000       5.432438       147.8241 
  49   0.0000       5.437083       147.9506 
  50   0.0000       5.438468       147.9882 
  51   0.0000       5.513073       150.0184 
  52   0.0000       6.140911       167.1027 
  53   0.0000       6.142371       167.1424 
  54   0.0000       6.399983       174.1524 
  55   0.0000       6.705447       182.4645 
  56   0.0000       6.706450       182.4918 
  57   0.0000       6.712070       182.6447 
  58   0.0000       6.720186       182.8656 
  59   0.0000       6.875844       187.1012 
  60   0.0000      14.818129       403.2218 
  61   0.0000      43.967173      1196.4076 

                    ********************************
                    * MULLIKEN POPULATION ANALYSIS *
                    ********************************

--------------------------------------------
MULLIKEN ATOMIC CHARGES AND SPIN POPULATIONS
--------------------------------------------
   0 Li:    0.845348   -0.010690
   1 O :   -0.845348    1.010690
Sum of atomic charges         :   -0.0000000
Sum of atomic spin populations:    1.0000000

-----------------------------------------------------
MULLIKEN REDUCED ORBITAL CHARGES AND SPIN POPULATIONS
-----------------------------------------------------
CHARGE
  0 Lis       :     2.008448  s :     2.008448
      pz      :     0.077001  p :     0.135464
      px      :     0.030668
      py      :     0.027796
      dz2     :     0.005102  d :     0.010740
      dxz     :     0.002944
      dyz     :     0.002686
      dx2y2   :     0.000000
      dxy     :     0.000009
  1 O s       :     3.969977  s :     3.969977
      pz      :     1.936407  p :     4.864005
      px      :     1.498511
      py      :     1.429087
      dz2     :     0.002456  d :     0.011225
      dxz     :     0.004262
      dyz     :     0.003958
      dx2y2   :     0.000003
      dxy     :     0.000545
      f0      :     0.000028  f :     0.000140
      f+1     :     0.000007
      f-1     :     0.000007
      f+2     :     0.000000
      f-2     :     0.000025
      f+3     :     0.000036
      f-3     :     0.000036

SPIN
  0 Lis       :    -0.005046  s :    -0.005046
      pz      :    -0.005300  p :    -0.005520
      px      :    -0.000812
      py      :     0.000592
      dz2     :    -0.000565  d :    -0.000124
      dxz     :     0.000160
      dyz     :     0.000278
      dx2y2   :     0.000000
      dxy     :     0.000004
  1 O s       :     0.002518  s :     0.002518
      pz      :     0.008478  p :     1.006885
      px      :     0.463636
      py      :     0.534771
      dz2     :    -0.000160  d :     0.001205
      dxz     :     0.000554
      dyz     :     0.000754
      dx2y2   :     0.000000
      dxy     :     0.000057
      f0      :    -0.000009  f :     0.000082
      f+1     :    -0.000003
      f-1     :    -0.000002
      f+2     :     0.000000
      f-2     :     0.000024
      f+3     :     0.000036
      f-3     :     0.000035


                     *******************************
                     * LOEWDIN POPULATION ANALYSIS *
                     *******************************

-------------------------------------------
LOEWDIN ATOMIC CHARGES AND SPIN POPULATIONS
-------------------------------------------
   0 Li:    0.524222    0.025088
   1 O :   -0.524222    0.974912

----------------------------------------------------
LOEWDIN REDUCED ORBITAL CHARGES AND SPIN POPULATIONS
----------------------------------------------------
CHARGE
  0 Lis       :     2.005774  s :     2.005774
      pz      :     0.179752  p :     0.285738
      px      :     0.055189
      py      :     0.050797
      dz2     :     0.090852  d :     0.184266
      dxz     :     0.048025
      dyz     :     0.045378
      dx2y2   :     0.000000
      dxy     :     0.000012
  1 O s       :     3.789241  s :     3.789241
      pz      :     1.896359  p :     4.693588
      px      :     1.431456
      py      :     1.365774
      dz2     :     0.037373  d :     0.041213
      dxz     :     0.001716
      dyz     :     0.001579
      dx2y2   :     0.000003
      dxy     :     0.000542
      f0      :     0.000067  f :     0.000180
      f+1     :     0.000007
      f-1     :     0.000008
      f+2     :     0.000000
      f-2     :     0.000025
      f+3     :     0.000036
      f-3     :     0.000036

SPIN
  0 Lis       :    -0.004823  s :    -0.004823
      pz      :    -0.006999  p :     0.004142
      px      :     0.004310
      py      :     0.006831
      dz2     :    -0.000905  d :     0.025768
      dxz     :     0.012229
      dyz     :     0.014444
      dx2y2   :     0.000000
      dxy     :     0.000001
  1 O s       :     0.007178  s :     0.007178
      pz      :     0.005694  p :     0.967535
      px      :     0.446902
      py      :     0.514940
      dz2     :    -0.000245  d :     0.000083
      dxz     :     0.000093
      dyz     :     0.000176
      dx2y2   :     0.000000
      dxy     :     0.000059
      f0      :     0.000016  f :     0.000117
      f+1     :     0.000002
      f-1     :     0.000003
      f+2     :     0.000000
      f-2     :     0.000024
      f+3     :     0.000036
      f-3     :     0.000035


                      *****************************
                      * MAYER POPULATION ANALYSIS *
                      *****************************

  NA   - Mulliken gross atomic population
  ZA   - Total nuclear charge
  QA   - Mulliken gross atomic charge
  VA   - Mayer's total valence
  BVA  - Mayer's bonded valence
  FA   - Mayer's free valence

  ATOM       NA         ZA         QA         VA         BVA        FA
  0 Li     2.1547     3.0000     0.8453     0.3114     0.3111     0.0004
  1 O      8.8453     8.0000    -0.8453     1.2984     0.3111     0.9873

  Mayer bond orders larger than 0.100000
B(  0-Li,  1-O ) :   0.3111 

-------
TIMINGS
-------

Total SCF time: 0 days 0 hours 2 min 6 sec 

Total time                  ....     126.864 sec
Sum of individual times     ....     125.491 sec  ( 98.9%)

Fock matrix formation       ....     120.669 sec  ( 95.1%)
  XC integration            ....     115.432 sec  ( 95.7% of F)
    Basis function eval.    ....       0.008 sec  (  0.0% of XC)
    Density eval.           ....       0.008 sec  (  0.0% of XC)
    XC-Functional eval.     ....       0.017 sec  (  0.0% of XC)
    XC-Potential eval.      ....       0.011 sec  (  0.0% of XC)
Diagonalization             ....       1.502 sec  (  1.2%)
Density matrix formation    ....       0.007 sec  (  0.0%)
Population analysis         ....       1.206 sec  (  1.0%)
Initial guess               ....       0.182 sec  (  0.1%)
Orbital Transformation      ....       0.000 sec  (  0.0%)
Orbital Orthonormalization  ....       0.000 sec  (  0.0%)
DIIS solution               ....       0.105 sec  (  0.1%)
Grid generation             ....       1.822 sec  (  1.4%)


           ************************************************************
           *        Program running with 28 parallel MPI-processes    *
           *              working on a common directory               *
           ************************************************************

------------------------------------------------------------------------------
                                ORCA  MP2 
------------------------------------------------------------------------------

Freezing NCore=2 chemical core electrons

-------------
RI-MP2 ENERGY
-------------
Dimension of the basis                    ...   62
Memory devoted to MP2                     ... 5000 MB   
Data format for buffers                   ... DOUBLE
Compression type for matrix containers    ... UNCOMPRESSED
Overall scaling of the MP2 energy         ...   2.700e-01
Calculating two index integrals           ... done (    0.001 sec)
Cholesky decomposition of V**-1           ... done (    0.181 sec)

-----------------
RI-TRANSFORMATION (AUX index driven)
-----------------

Dimension of the orbital-basis         ... 62
Dimension of the aux-basis             ... 150
Transformation of internal/external MOs...    1-   5 to    6-  61
Number Format for Storage              ... Double (8 Byte)
Integral mode                          ... Direct

First Phase: integral generation and transformation of MO indices
  Aux angular momentum 0               ... done (    0.001 sec)
  Aux angular momentum 1               ... done (    0.002 sec)
  Aux angular momentum 2               ... done (    0.000 sec)
  Aux angular momentum 3               ... done (    0.001 sec)
  Aux angular momentum 4               ... done (    0.001 sec)
Closing buffer VIA ( 0.00 GB; CompressionRatio= 0.99)
  Phase 1 completed in     8.659 sec
Second Phase: sorting and transformation of aux index

IA-Transformation
Memory available                       ... 5000 MB 
Max. # MO pairs treated in a batch     ... 1    
# of internal orbitals                 ... 5
# batches for internal orbitals        ... 1
Closing buffer IAV ( 0.00 GB; CompressionRatio= 1.00)
(ia|v) transformation done in     0.219 sec

  Phase 2 completed in     9.081 sec
RI-Integral transformation completed in    19.594 sec

-----------------
RI-TRANSFORMATION (AUX index driven)
-----------------

Dimension of the orbital-basis         ... 62
Dimension of the aux-basis             ... 150
Transformation of internal/external MOs...    1-   4 to    5-  61
Number Format for Storage              ... Double (8 Byte)
Integral mode                          ... Direct

First Phase: integral generation and transformation of MO indices
  Aux angular momentum 0               ... done (    0.000 sec)
  Aux angular momentum 1               ... done (    0.002 sec)
  Aux angular momentum 2               ... done (    0.000 sec)
  Aux angular momentum 3               ... done (    0.000 sec)
  Aux angular momentum 4               ... done (    0.001 sec)
Closing buffer VIA ( 0.00 GB; CompressionRatio= 0.99)
  Phase 1 completed in     8.240 sec
Second Phase: sorting and transformation of aux index

IA-Transformation
Memory available                       ... 5000 MB 
Max. # MO pairs treated in a batch     ... 1    
# of internal orbitals                 ... 4
# batches for internal orbitals        ... 1
Closing buffer IAV ( 0.00 GB; CompressionRatio= 1.00)
(ia|v) transformation done in     0.936 sec

  Phase 2 completed in    10.123 sec
RI-Integral transformation completed in    19.693 sec
Opening buffers                              ... done

Starting loop over batches of integrals:

Operator 0  - window                       ... (  1-  5)x(  6- 61)
Operator 0  - Memory available             ...  5000 MB
Operator 0  - Memory needed per MO         ...   0.1 MB
Operator 0  - Number of orbitals per batch ... 1
Operator 0  - Number of batches            ... 1

OPERATOR  0   PASS   0:  MOs     1 ...    1 +    2 ...    2 +    3 ...    3 +    4 ...    4
                            +    5 ...    5
  Reading integrals       ... ok

Operator 1  - window                       ... (  1-  4)x(  5- 61)
Operator 1  - Memory available             ...  5000 MB
Operator 1  - Memory needed per MO         ...   0.1 MB
Operator 1  - Number of orbitals per batch ... 1
Operator 1  - Number of batches            ... 1

OPERATOR  1   PASS   0:  MOs     1 ...    1 +    2 ...    2 +    3 ...    3 +    4 ...    4
  Reading integrals       ... ok
Time spent in pair loops =     0.004 sec
Deleting buffer (Ka|jb)[aa] ...done
Deleting buffer (Ka|jb)[ab] ...done
Deleting buffer (Ka|jb)[ba] ...done
Deleting buffer (Ka|jb)[bb] ...done

Correlation energy components}
 E2 and T2 for alpha/alpha pairs :     -0.011394216 Eh      0.000000000
 E2 and T2 for beta/beta   pairs :     -0.005549992 Eh      0.000000000
 E2 and T2 for alpha/beta  pairs :     -0.059492200 Eh      0.000000000


-----------------------------------------------
 RI-MP2 CORRELATION ENERGY:     -0.076436408 Eh
-----------------------------------------------


-------
TIMINGS
-------

Total time                :   42.570 sec
Integral trafo            :   39.316 sec ( 92.4%)
I/O of integrals          :    0.001 sec (  0.0%)
K(i,j) Operators          :    0.001 sec (  0.0%)
T(i,j) pair energies      :    0.000 sec (  0.0%)
V-calculation             :    0.001 sec (  0.0%)
V**(-1/2)                 :    0.181 sec (  0.4%)
Gamma(ia|P)               :    0.000 sec (  0.0%)
Gamma-Trafo               :    0.000 sec (  0.0%)
D(virtual)                :    0.000 sec (  0.0%)
D(internal)               :    0.000 sec (  0.0%)
W(virtual)                :    0.000 sec (  0.0%)
W(internal)               :    0.000 sec (  0.0%)
L(virtual)                :    0.000 sec (  0.0%)
L(internal)               :    0.000 sec (  0.0%)
G(D)                      :    0.000 sec (  0.0%)
G(Z)                      :    0.000 sec (  0.0%)
Z-Vector Solution         :    0.000 sec (  0.0%)
Z-Vector Solution         :    0.000 sec (  0.0%)
3-Index Derivative 
+ Separable RIJ part      :    0.000 sec (  0.0%)
2-Index Derivative 
+ Separable RIJ part      :    0.000 sec (  0.0%)
Separable Gradient (X)    :    0.000 sec (  0.0%)


---------------------------------------
MP2 TOTAL ENERGY:      -82.664635001 Eh
---------------------------------------


-------------------------------------------------------------------------------
                          DFT DISPERSION CORRECTION                            
                                                                               
                              DFTD3 V3.1  Rev 1                                
                          USING Becke-Johnson damping                          
-------------------------------------------------------------------------------
The B2PLYP functional is recognized
Active option DFTDOPT                   ...         4   

molecular C6(AA) [au] = 159.524706 


            DFT-D V3
 parameters
 s6 scaling factor         :     0.6400 
 a1 scaling factor         :     0.3065 
 s8 scaling factor         :     0.9147 
 a2 scaling factor         :     5.0570 
 ad hoc parameters k1-k3   :    16.0000     1.3333    -4.0000 

 Edisp/kcal,au: -0.201795114869  -0.000321580951 
 E6   /kcal   :  -0.093571575 
 E8   /kcal   :  -0.108223540 
 % E8         :  53.630406441 

-------------------------   ----------------
Dispersion correction           -0.000321581
-------------------------   ----------------


-------------------------   --------------------
FINAL SINGLE POINT ENERGY       -82.664956581747
-------------------------   --------------------


                            ***************************************
                            *     ORCA property calculations      *
                            ***************************************


  WARNING: The energy has been calculated at the MP2 level but the densities
           used in the property calculations are still SCF densities
           MP2 response densities have not been calculated 
           use %mp2 Density relaxed end
           or  %mp2 Density unrelaxed end

                                    ---------------------
                                    Active property flags
                                    ---------------------
   (+) Dipole Moment


------------------------------------------------------------------------------
                       ORCA ELECTRIC PROPERTIES CALCULATION
------------------------------------------------------------------------------

Dipole Moment Calculation                       ... on
Quadrupole Moment Calculation                   ... off
Polarizability Calculation                      ... off
GBWName                                         ... LiO.gbw
Electron density file                           ... LiO.scfp
The origin for moment calculation is the CENTER OF MASS  = ( 0.000000,  0.000000  2.226014)

-------------
DIPOLE MOMENT
-------------
                                X             Y             Z
Electronic contribution:     -0.00000       0.00000      -3.67629
Nuclear contribution   :      0.00000       0.00000       1.04782
                        -----------------------------------------
Total Dipole Moment    :     -0.00000       0.00000      -2.62847
                        -----------------------------------------
Magnitude (a.u.)       :      2.62847
Magnitude (Debye)      :      6.68104



--------------------
Rotational spectrum 
--------------------
 
Rotational constants in cm-1:     0.000000     1.220720     1.220720 
Rotational constants in MHz :     0.000000 36596.271053 36596.271053 

 Dipole components along the rotational axes: 
x,y,z [a.u.] :    -2.628472     0.000000    -0.000000 
x,y,z [Debye]:    -6.681044     0.000000    -0.000000 

 

Timings for individual modules:

Sum of individual times         ...      179.814 sec (=   2.997 min)
GTO integral calculation        ...        2.569 sec (=   0.043 min)   1.4 %
SCF iterations                  ...      130.457 sec (=   2.174 min)  72.6 %
MP2 module                      ...       46.788 sec (=   0.780 min)  26.0 %
                             ****ORCA TERMINATED NORMALLY****
TOTAL RUN TIME: 0 days 0 hours 6 minutes 13 seconds 493 msec
