
                                 *****************
                                 * O   R   C   A *
                                 *****************

           --- An Ab Initio, DFT and Semiempirical electronic structure package ---

                  #######################################################
                  #                        -***-                        #
                  #          Department of theory and spectroscopy      #
                  #               Directorship: Frank Neese             #
                  #        Max Planck Institute fuer Kohlenforschung    #
                  #                Kaiser Wilhelm Platz 1               #
                  #                 D-45470 Muelheim/Ruhr               #
                  #                      Germany                        #
                  #                                                     #
                  #                  All rights reserved                #
                  #                        -***-                        #
                  #######################################################


                         Program Version 4.2.0 -  RELEASE  -


 With contributions from (in alphabetic order):
   Daniel Aravena         : Magnetic Suceptibility
   Michael Atanasov       : Ab Initio Ligand Field Theory (pilot matlab implementation)
   Alexander A. Auer      : GIAO ZORA, VPT2
   Ute Becker             : Parallelization
   Giovanni Bistoni       : ED, misc. LED, open-shell LED, HFLED
   Martin Brehm           : Molecular dynamics
   Dmytro Bykov           : SCF Hessian
   Vijay G. Chilkuri      : MRCI spin determinant printing, contributions to CSF-ICE
   Dipayan Datta          : RHF DLPNO-CCSD density
   Achintya Kumar Dutta   : EOM-CC, STEOM-CC
   Dmitry Ganyushin       : Spin-Orbit,Spin-Spin,Magnetic field MRCI
   Miquel Garcia          : C-PCM Hessian, Gaussian charge scheme
   Yang Guo               : DLPNO-NEVPT2, CIM, IAO-localization
   Andreas Hansen         : Spin unrestricted coupled pair/coupled cluster methods
   Benjamin Helmich-Paris : CASSCF linear response (MC-RPA)
   Lee Huntington         : MR-EOM, pCC
   Robert Izsak           : Overlap fitted RIJCOSX, COSX-SCS-MP3, EOM
   Christian Kollmar      : KDIIS, OOCD, Brueckner-CCSD(T), CCSD density
   Simone Kossmann        : Meta GGA functionals, TD-DFT gradient, OOMP2, MP2 Hessian
   Martin Krupicka        : AUTO-CI
   Lucas Lang             : DCDCAS
   Dagmar Lenk            : GEPOL surface, SMD
   Dimitrios Liakos       : Extrapolation schemes; Compound Job, initial MDCI parallelization
   Dimitrios Manganas     : Further ROCIS development; embedding schemes
   Dimitrios Pantazis     : SARC Basis sets
   Taras Petrenko         : DFT Hessian,TD-DFT gradient, ASA, ECA, R-Raman, ABS, FL, XAS/XES, NRVS
   Peter Pinski           : DLPNO-MP2, DLPNO-MP2 Gradient
   Christoph Reimann      : Effective Core Potentials
   Marius Retegan         : Local ZFS, SOC
   Christoph Riplinger    : Optimizer, TS searches, QM/MM, DLPNO-CCSD(T), (RO)-DLPNO pert. Triples
   Tobias Risthaus        : Range-separated hybrids, TD-DFT gradient, RPA, STAB
   Michael Roemelt        : Original ROCIS implementation
   Masaaki Saitow         : Open-shell DLPNO-CCSD energy and density
   Barbara Sandhoefer     : DKH picture change effects
   Avijit Sen             : IP-ROCIS
   Kantharuban Sivalingam : CASSCF convergence, NEVPT2, FIC-MRCI
   Bernardo de Souza      : ESD, SOC TD-DFT
   Georgi Stoychev        : AutoAux, RI-MP2 NMR
   Willem Van den Heuvel  : Paramagnetic NMR
   Boris Wezisla          : Elementary symmetry handling
   Frank Wennmohs         : Technical directorship


 We gratefully acknowledge several colleagues who have allowed us to
 interface, adapt or use parts of their codes:
   Stefan Grimme, W. Hujo, H. Kruse,             : VdW corrections, initial TS optimization,
                  C. Bannwarth                     DFT functionals, gCP, sTDA/sTD-DF
   Ed Valeev, F. Pavosevic, A. Kumar             : LibInt (2-el integral package), F12 methods
   Garnet Chan, S. Sharma, J. Yang, R. Olivares  : DMRG
   Ulf Ekstrom                                   : XCFun DFT Library
   Mihaly Kallay                                 : mrcc  (arbitrary order and MRCC methods)
   Andreas Klamt, Michael Diedenhofen            : otool_cosmo (COSMO solvation model)
   Jiri Pittner, Ondrej Demel                    : Mk-CCSD
   Frank Weinhold                                : gennbo (NPA and NBO analysis)
   Christopher J. Cramer and Donald G. Truhlar   : smd solvation model
   Lars Goerigk                                  : TD-DFT with DH, B97 family of functionals
   V. Asgeirsson, H. Jonsson                     : NEB implementation
   FAccTs GmbH                                   : IRC, NEB, NEB-TS, Multilevel, MM, QM/MM, CI optimization
   S Lehtola, MJT Oliveira, MAL Marques          : LibXC Library


 Your calculation uses the libint2 library for the computation of 2-el integrals
 For citations please refer to: http://libint.valeyev.net

 Your ORCA version has been built with support for libXC version: 4.2.3
 For citations please refer to: https://tddft.org/programs/libxc/

 This ORCA versions uses:
   CBLAS   interface :  Fast vector & matrix operations
   LAPACKE interface :  Fast linear algebra routines
   SCALAPACK package :  Parallel linear algebra routines


Your calculation utilizes the atom-pairwise dispersion correction
with the Becke-Johnson damping scheme (D3BJ)
Cite in your paper:
S.Grimme, S.Ehrlich, L.Goerigk, J Comput Chem, (2011), 32, 1456–1465 
S.Grimme, J.Antony, S.Ehrlich and H.Krieg, J.Chem.Phys., 132, (2010), 154104 
   

----- Orbital basis set information -----
Your calculation utilizes the basis: def2-TZVPPD
   F. Weigend and R. Ahlrichs, Phys. Chem. Chem. Phys. 7, 3297 (2005).
   D. Rappoport and F. Furche, J. Chem. Phys. 133 134105 (2010).

----- AuxC basis set information -----
Your calculation utilizes the auxiliary basis: def2-TZVPPD/C
   A. Hellweg, C. Hattig, S. Hofener and W. Klopper, Theor. Chem. Acc. 117, 587 (2007).

----- AuxJK basis set information -----
Your calculation utilizes the auxiliary basis: def2/JK
   H-Ba, Hf-Rn: F. Weigend, J. Comput. Chem. 29, 167 (2008).

================================================================================
                                        WARNINGS
                       Please study these warnings very carefully!
================================================================================


WARNING: your system is open-shell and RHF/RKS was chosen
  ===> : WILL SWITCH to UHF/UKS


WARNING: No MP2 level density has been requested!
         To caclulate MP2 level properties use
         %mp2 Density relaxed end
         or
         %mp2 Density unrelaxed end
         Otherwise for double-hybrid DFT only the energy is correct!

WARNING: The frozen-core approximation is turned on by default for 
         the MP2 part of double-hybrid DFT.

INFO   : the flag for use of LIBINT has been found!

================================================================================
                                       INPUT FILE
================================================================================
NAME = V+.in
|  1> #
|  2> # V+ ri-B2PLYP-D3BJ/Def2-TZVPPD
|  3> #
|  4> ! rijk ri-b2plyp d3bj def2-tzvppd def2/jk def2-tzvppd/c grid4 nofinalgrid
|  5> 
|  6> *xyz 1 5
|  7> V          0.00000        0.00000        0.00000
|  8> *
|  9> 
| 10> %maxcore 5000
| 11> 
| 12> %pal
| 13> nprocs = 28
| 14> end
| 15> 
| 16> 
| 17>                          ****END OF INPUT****
================================================================================

                       ****************************
                       * Single Point Calculation *
                       ****************************

---------------------------------
CARTESIAN COORDINATES (ANGSTROEM)
---------------------------------
  V      0.000000    0.000000    0.000000

----------------------------
CARTESIAN COORDINATES (A.U.)
----------------------------
  NO LB      ZA    FRAG     MASS         X           Y           Z
   0 V    23.0000    0    50.940    0.000000    0.000000    0.000000

--------------------------------
INTERNAL COORDINATES (ANGSTROEM)
--------------------------------
 V      0   0   0     0.000000000000     0.00000000     0.00000000

---------------------------
INTERNAL COORDINATES (A.U.)
---------------------------
 V      0   0   0     0.000000000000     0.00000000     0.00000000

---------------------
BASIS SET INFORMATION
---------------------
There are 1 groups of distinct atoms

 Group   1 Type V   : 17s13p7d2f1g contracted to 6s6p4d2f1g pattern {842111/631111/4111/11/1}

Atom   0V    basis set group =>   1
---------------------------------
AUXILIARY/C BASIS SET INFORMATION
---------------------------------
There are 1 groups of distinct atoms

 Group   1 Type V   : 10s10p9d7f5g3h1i contracted to 10s10p9d7f5g3h1i pattern {1111111111/1111111111/111111111/1111111/11111/111/1}

Atom   0V    basis set group =>   1
----------------------------------
AUXILIARY/JK BASIS SET INFORMATION
----------------------------------
There are 1 groups of distinct atoms

 Group   1 Type V   : 19s14p12d10f7g3h1i contracted to 16s13p11d9f5g3h1i pattern {4111111111111111/2111111111111/21111111111/211111111/31111/111/1}

Atom   0V    basis set group =>   1


           ************************************************************
           *        Program running with 28 parallel MPI-processes    *
           *              working on a common directory               *
           ************************************************************
------------------------------------------------------------------------------
                           ORCA GTO INTEGRAL CALCULATION
                           -- RI-GTO INTEGRALS CHOSEN --
------------------------------------------------------------------------------

                         BASIS SET STATISTICS AND STARTUP INFO

Gaussian basis set:
 # of primitive gaussian shells          ...   40
 # of primitive gaussian functions       ...  114
 # of contracted shells                  ...   19
 # of contracted basis functions         ...   67
 Highest angular momentum                ...    4
 Maximum contraction depth               ...    8
Auxiliary gaussian basis set:
 # of primitive gaussian shells          ...   66
 # of primitive gaussian functions       ...  300
 # of contracted shells                  ...   58
 # of contracted aux-basis functions     ...  264
 Highest angular momentum                ...    6
 Maximum contraction depth               ...    4
Ratio of auxiliary to basis functions    ...  3.94
Integral package used                  ... LIBINT
 One Electron integrals                  ... done
 Ordering auxiliary basis shells         ... done
 Integral threshhold             Thresh  ...  1.000e-10
 Primitive cut-off               TCut    ...  1.000e-11
 Pre-screening matrix                    ... done
 Shell pair data                         ... 
 Ordering of the shell pairs             ... done (   0.000 sec) 190 of 190 pairs
 Determination of significant pairs      ... done (   0.000 sec)
 Creation of shell pair data             ... done (   0.000 sec)
 Storage of shell pair data              ... done (   0.044 sec)
 Shell pair data done in (   0.044 sec)
 Computing two index integrals           ... done
 Cholesky decomposition of the V-matrix  ... done


Timings:
 Total evaluation time                   ...   0.463 sec (  0.008 min)
 One electron matrix time                ...   0.091 sec (  0.002 min) = 19.6%
 Schwartz matrix evaluation time         ...   0.130 sec (  0.002 min) = 28.0%
 Two index repulsion integral time       ...   0.084 sec (  0.001 min) = 18.2%
 Cholesky decomposition of V             ...   0.059 sec (  0.001 min) = 12.7%
 Three index repulsion integral time     ...   0.000 sec (  0.000 min) =  0.0%



           ************************************************************
           *        Program running with 28 parallel MPI-processes    *
           *              working on a common directory               *
           ************************************************************
-------------------------------------------------------------------------------
                                 ORCA SCF
-------------------------------------------------------------------------------

------------
SCF SETTINGS
------------
Hamiltonian:
 Density Functional     Method          .... DFT(GTOs)
 Exchange Functional    Exchange        .... B88
   X-Alpha parameter    XAlpha          ....  0.666667
   Becke's b parameter  XBeta           ....  0.004200
 Correlation Functional Correlation     .... LYP
 LDA part of GGA corr.  LDAOpt          .... VWN-3
 Gradients option       PostSCFGGA      .... off
 Hybrid DFT is turned on
   Fraction HF Exchange ScalHFX         ....  0.530000
   Scaling of DF-GGA-X  ScalDFX         ....  0.470000
   Scaling of DF-GGA-C  ScalDFC         ....  0.730000
   Scaling of DF-LDA-C  ScalLDAC        ....  0.730000
   Perturbative correction              ....  0.270000
   Density functional embedding theory  .... OFF
 RI-approximation to the Coulomb term is turned on
   Number of auxiliary basis functions  .... 264
   RI-JK (J+K treated both via RI)      .... on


General Settings:
 Integral files         IntName         .... V+
 Hartree-Fock type      HFTyp           .... UHF
 Total Charge           Charge          ....    1
 Multiplicity           Mult            ....    5
 Number of Electrons    NEL             ....   22
 Basis Dimension        Dim             ....   67
 Nuclear Repulsion      ENuc            ....      0.0000000000 Eh

Convergence Acceleration:
 DIIS                   CNVDIIS         .... on
   Start iteration      DIISMaxIt       ....    12
   Startup error        DIISStart       ....  0.200000
   # of expansion vecs  DIISMaxEq       ....     5
   Bias factor          DIISBfac        ....   1.050
   Max. coefficient     DIISMaxC        ....  10.000
 Newton-Raphson         CNVNR           .... off
 SOSCF                  CNVSOSCF        .... off
 Level Shifting         CNVShift        .... on
   Level shift para.    LevelShift      ....    0.2500
   Turn off err/grad.   ShiftErr        ....    0.0010
 Zerner damping         CNVZerner       .... off
 Static damping         CNVDamp         .... on
   Fraction old density DampFac         ....    0.7000
   Max. Damping (<1)    DampMax         ....    0.9800
   Min. Damping (>=0)   DampMin         ....    0.0000
   Turn off err/grad.   DampErr         ....    0.1000
 Fernandez-Rico         CNVRico         .... off

SCF Procedure:
 Maximum # iterations   MaxIter         ....   125
 SCF integral mode      SCFMode         .... Direct
   Integral package                     .... LIBINT
 Reset frequency        DirectResetFreq ....    20
 Integral Threshold     Thresh          ....  1.000e-10 Eh
 Primitive CutOff       TCut            ....  1.000e-11 Eh

Convergence Tolerance:
 Convergence Check Mode ConvCheckMode   .... Total+1el-Energy
 Convergence forced     ConvForced      .... 0
 Energy Change          TolE            ....  1.000e-06 Eh
 1-El. energy change                    ....  1.000e-03 Eh
 DIIS Error             TolErr          ....  1.000e-06


Diagonalization of the overlap matrix:
Smallest eigenvalue                        ... 3.674e-02
Time for diagonalization                   ...    0.007 sec
Threshold for overlap eigenvalues          ... 1.000e-08
Number of eigenvalues below threshold      ... 0
Time for construction of square roots      ...    0.096 sec
Total time needed                          ...    0.104 sec

-------------------
DFT GRID GENERATION
-------------------

General Integration Accuracy     IntAcc      ...  4.670
Radial Grid Type                 RadialGrid  ... Gauss-Chebyshev
Angular Grid (max. acc.)         AngularGrid ... Lebedev-302
Angular grid pruning method      GridPruning ... 3 (G Style)
Weight generation scheme         WeightScheme... Becke
Basis function cutoff            BFCut       ...    1.0000e-10
Integration weight cutoff        WCut        ...    1.0000e-14
Grids for H and He will be reduced by one unit

# of grid points (after initial pruning)     ...   9664 (   0.0 sec)
# of grid points (after weights+screening)   ...   9664 (   0.0 sec)
Grid point division into batches done        ...    0.1 sec
Reduced shell lists constructed in    0.1 sec

Total number of grid points                  ...     9664
Total number of batches                      ...      152
Average number of points per batch           ...       63
Average number of grid points per atom       ...     9664
Average number of shells per batch           ...     3.43 (18.05%)
Average number of basis functions per batch  ...    10.29 (15.35%)
Average number of large shells per batch     ...     3.43 (100.00%)
Average number of large basis fcns per batch ...    10.29 (100.00%)
Average number of aux-shells per batch       ...     3.43 ( 5.91%)
Average number of aux functions per batch    ...    10.29 ( 3.90%)
Maximum spatial batch extension              ...  22.27, 22.27, 22.27 au
Average spatial batch extension              ...   0.77,  0.76,  0.74 au

Time for grid setup =    2.409 sec

------------------------------
INITIAL GUESS: MODEL POTENTIAL
------------------------------
Loading Hartree-Fock densities                     ... done
Calculating cut-offs                               ... done
Setting up the integral package                    ... done
Initializing the effective Hamiltonian             ... done
Starting the Coulomb interaction                   ... done (   0.0 sec)
Reading the grid                                   ... done
Mapping shells                                     ... done
Starting the XC term evaluation                    ... done (   0.0 sec)
  promolecular density results
     # of electrons  =     23.000003052
     EX              =    -44.136839810
     EC              =     -0.365539218
     EX+EC           =    -44.502379027
Transforming the Hamiltonian                       ... done (   0.1 sec)
Diagonalizing the Hamiltonian                      ... done (   0.0 sec)
Back transforming the eigenvectors                 ... done (   0.0 sec)
Now organizing SCF variables                       ... done
                      ------------------
                      INITIAL GUESS DONE (   3.7 sec)
                      ------------------
--------------
SCF ITERATIONS
--------------
ITER       Energy         Delta-E        Max-DP      RMS-DP      [F,P]     Damp
  0   -943.3680813737   0.000000000000 0.01498979  0.00051941  0.1022650 0.7000
  1   -943.3365964117   0.031484961961 0.01115497  0.00040036  0.0754208 0.7000
                               ***Turning on DIIS***
  2   -943.3498235043  -0.013227092565 0.01869270  0.00072274  0.0405136 0.0000
  3   -943.3837510999  -0.033927595640 0.00923837  0.00038695  0.0238755 0.0000
  4   -943.3851698815  -0.001418781564 0.00274738  0.00009041  0.0058806 0.0000
  5   -943.3852334285  -0.000063547083 0.00066519  0.00002326  0.0012358 0.0000
  6   -943.3852387635  -0.000005334933 0.00032059  0.00001504  0.0003329 0.0000
  7   -943.3852407269  -0.000001963375 0.00026461  0.00000817  0.0002841 0.0000
  8   -943.3852417946  -0.000001067786 0.00028969  0.00000877  0.0002793 0.0000
  9   -943.3852429455  -0.000001150889 0.00038096  0.00001137  0.0002786 0.0000
 10   -943.3852444396  -0.000001494044 0.00076127  0.00002243  0.0002784 0.0000
 11   -943.3852473704  -0.000002930846 0.00184120  0.00005338  0.0002770 0.0000
 12   -943.3852542068  -0.000006836375 0.00420006  0.00011848  0.0002745 0.0000
 13   -943.3852685684  -0.000014361609 0.00226406  0.00006116  0.0002638 0.0000
 14   -943.3852757012  -0.000007132785 0.00420805  0.00011149  0.0002584 0.0000
 15   -943.3852878684  -0.000012167194 0.00048005  0.00001412  0.0002420 0.0000
 16   -943.3852894650  -0.000001596671 0.00570801  0.00014600  0.0002349 0.0000
 17   -943.3853039017  -0.000014436662 0.00143981  0.00003564  0.0002191 0.0000
 18   -943.3853075955  -0.000003693833 0.00841544  0.00020529  0.0002049 0.0000
 19   -943.3853249313  -0.000017335716 0.00321758  0.00008298  0.0001909 0.0000
 20   -943.3853198787   0.000005052592 0.01371199  0.00032850  0.0001680 0.0000
 21   -943.3853409642  -0.000021085557 0.00187394  0.00004117  0.0003771 0.0000
 22   -943.3853433126  -0.000002348400 0.00664790  0.00016561  0.0001948 0.0000
 23   -943.3853491695  -0.000005856870 0.00245143  0.00006205  0.0002465 0.0000
 24   -943.3853480184   0.000001151112 0.00638298  0.00015242  0.0001362 0.0000
 25   -943.3853508257  -0.000002807329 0.00084276  0.00002171  0.0001701 0.0000
                 **** Energy Check signals convergence ****

               *****************************************************
               *                     SUCCESS                       *
               *           SCF CONVERGED AFTER  26 CYCLES          *
               *****************************************************


----------------
TOTAL SCF ENERGY
----------------

Total Energy       :         -943.38535064 Eh          -25670.82047 eV

Components:
Nuclear Repulsion  :            0.00000000 Eh               0.00000 eV
Electronic Energy  :         -943.38535064 Eh          -25670.82047 eV
One Electron Energy:        -1292.18353562 Eh          -35162.10161 eV
Two Electron Energy:          348.79818499 Eh            9491.28114 eV

Virial components:
Potential Energy   :        -1885.63502245 Eh          -51310.73755 eV
Kinetic Energy     :          942.24967181 Eh           25639.91708 eV
Virial Ratio       :            2.00120528


DFT components:
N(Alpha)           :       12.999999663038 electrons
N(Beta)            :        8.999999662917 electrons
N(Total)           :       21.999999325955 electrons
E(X)               :      -20.850331623747 Eh       
E(C)               :       -0.701108183275 Eh       
E(XC)              :      -21.551439807021 Eh       
DFET-embed. en.    :        0.000000000000 Eh       

---------------
SCF CONVERGENCE
---------------

  Last Energy change         ...    1.8944e-07  Tolerance :   1.0000e-06
  Last MAX-Density change    ...    2.0956e-04  Tolerance :   1.0000e-05
  Last RMS-Density change    ...    5.0732e-06  Tolerance :   1.0000e-06
  Last DIIS Error            ...    2.2563e-05  Tolerance :   1.0000e-06

             **** THE GBW FILE WAS UPDATED (V+.gbw) ****
             **** DENSITY FILE WAS UPDATED (V+.scfp) ****
             **** ENERGY FILE WAS UPDATED (V+.en.tmp) ****
----------------------
UHF SPIN CONTAMINATION
----------------------

Warning: in a DFT calculation there is little theoretical justification to 
         calculate <S**2> as in Hartree-Fock theory. We will do it anyways
         but you should keep in mind that the values have only limited relevance

Expectation value of <S**2>     :     6.000810
Ideal value S*(S+1) for S=2.0   :     6.000000
Deviation                       :     0.000810

             **** THE GBW FILE WAS UPDATED (V+.gbw) ****
             **** DENSITY FILE WAS UPDATED (V+.scfp) ****
----------------
ORBITAL ENERGIES
----------------
                 SPIN UP ORBITALS
  NO   OCC          E(Eh)            E(eV) 
   0   1.0000    -198.927394     -5413.0896 
   1   1.0000     -23.021868      -626.4569 
   2   1.0000     -19.384345      -527.4748 
   3   1.0000     -19.377608      -527.2915 
   4   1.0000     -19.377394      -527.2857 
   5   1.0000      -3.045542       -82.8734 
   6   1.0000      -2.027514       -55.1715 
   7   1.0000      -2.027206       -55.1631 
   8   1.0000      -2.014540       -54.8184 
   9   1.0000      -0.497604       -13.5405 
  10   1.0000      -0.496531       -13.5113 
  11   1.0000      -0.464651       -12.6438 
  12   1.0000      -0.464623       -12.6430 
  13   0.0000      -0.271494        -7.3877 
  14   0.0000      -0.168049        -4.5728 
  15   0.0000      -0.159223        -4.3327 
  16   0.0000      -0.158231        -4.3057 
  17   0.0000      -0.158209        -4.3051 
  18   0.0000      -0.035165        -0.9569 
  19   0.0000      -0.034449        -0.9374 
  20   0.0000      -0.034426        -0.9368 
  21   0.0000      -0.033397        -0.9088 
  22   0.0000      -0.008643        -0.2352 
  23   0.0000      -0.008491        -0.2310 
  24   0.0000      -0.003895        -0.1060 
  25   0.0000      -0.003894        -0.1060 
  26   0.0000       0.015974         0.4347 
  27   0.0000       0.256836         6.9889 
  28   0.0000       0.260192         7.0802 
  29   0.0000       0.260314         7.0835 
  30   0.0000       0.480781        13.0827 
  31   0.0000       0.481230        13.0949 
  32   0.0000       0.494837        13.4652 
  33   0.0000       0.494837        13.4652 
  34   0.0000       0.526045        14.3144 
  35   0.0000       0.958400        26.0794 
  36   0.0000       0.958403        26.0795 
  37   0.0000       0.972152        26.4536 
  38   0.0000       0.972367        26.4595 
  39   0.0000       0.973917        26.5016 
  40   0.0000       0.973918        26.5017 
  41   0.0000       0.982441        26.7336 
  42   0.0000       1.627780        44.2941 
  43   0.0000       1.638348        44.5817 
  44   0.0000       1.638758        44.5929 
  45   0.0000       1.809066        49.2272 
  46   0.0000       2.359528        64.2060 
  47   0.0000       2.360299        64.2270 
  48   0.0000       2.383009        64.8450 
  49   0.0000       2.383010        64.8450 
  50   0.0000       2.408785        65.5464 
  51   0.0000       4.034440       109.7827 
  52   0.0000       4.034447       109.7829 
  53   0.0000       4.036257       109.8321 
  54   0.0000       4.036258       109.8322 
  55   0.0000       4.038476       109.8925 
  56   0.0000       4.039018       109.9073 
  57   0.0000       4.043423       110.0271 
  58   0.0000       4.054414       110.3262 
  59   0.0000       4.054414       110.3262 
  60   0.0000       4.553618       123.9103 
  61   0.0000       4.553620       123.9103 
  62   0.0000       4.574470       124.4777 
  63   0.0000       4.574949       124.4907 
  64   0.0000       4.581017       124.6558 
  65   0.0000       4.581017       124.6558 
  66   0.0000       4.591141       124.9313 

                 SPIN DOWN ORBITALS
  NO   OCC          E(Eh)            E(eV) 
   0   1.0000    -198.927164     -5413.0833 
   1   1.0000     -22.968120      -624.9943 
   2   1.0000     -19.343887      -526.3739 
   3   1.0000     -19.323158      -525.8099 
   4   1.0000     -19.322491      -525.7917 
   5   1.0000      -2.860509       -77.8384 
   6   1.0000      -1.843925       -50.1758 
   7   1.0000      -1.790467       -48.7211 
   8   1.0000      -1.788744       -48.6742 
   9   0.0000      -0.247799        -6.7430 
  10   0.0000      -0.149036        -4.0555 
  11   0.0000      -0.142986        -3.8909 
  12   0.0000      -0.142744        -3.8843 
  13   0.0000      -0.123366        -3.3569 
  14   0.0000      -0.102173        -2.7803 
  15   0.0000      -0.101796        -2.7700 
  16   0.0000      -0.091880        -2.5002 
  17   0.0000      -0.091876        -2.5001 
  18   0.0000      -0.028799        -0.7837 
  19   0.0000      -0.026090        -0.7100 
  20   0.0000      -0.025951        -0.7062 
  21   0.0000      -0.017244        -0.4692 
  22   0.0000       0.033878         0.9219 
  23   0.0000       0.045280         1.2321 
  24   0.0000       0.045562         1.2398 
  25   0.0000       0.053826         1.4647 
  26   0.0000       0.053849         1.4653 
  27   0.0000       0.273899         7.4532 
  28   0.0000       0.286459         7.7949 
  29   0.0000       0.286909         7.8072 
  30   0.0000       0.545147        14.8342 
  31   0.0000       0.564792        15.3688 
  32   0.0000       0.565155        15.3786 
  33   0.0000       0.574877        15.6432 
  34   0.0000       0.574879        15.6433 
  35   0.0000       1.011833        27.5334 
  36   0.0000       1.019466        27.7411 
  37   0.0000       1.019888        27.7526 
  38   0.0000       1.033882        28.1334 
  39   0.0000       1.033886        28.1335 
  40   0.0000       1.037405        28.2292 
  41   0.0000       1.037405        28.2292 
  42   0.0000       1.681566        45.7577 
  43   0.0000       1.711065        46.5604 
  44   0.0000       1.712101        46.5886 
  45   0.0000       1.887252        51.3547 
  46   0.0000       2.449727        66.6605 
  47   0.0000       2.476577        67.3911 
  48   0.0000       2.477104        67.4054 
  49   0.0000       2.492512        67.8247 
  50   0.0000       2.492520        67.8249 
  51   0.0000       4.095437       111.4425 
  52   0.0000       4.101903       111.6185 
  53   0.0000       4.102536       111.6357 
  54   0.0000       4.117294       112.0373 
  55   0.0000       4.117304       112.0375 
  56   0.0000       4.133564       112.4800 
  57   0.0000       4.133564       112.4800 
  58   0.0000       4.136212       112.5521 
  59   0.0000       4.136212       112.5521 
  60   0.0000       4.681421       127.3879 
  61   0.0000       4.696539       127.7993 
  62   0.0000       4.697329       127.8208 
  63   0.0000       4.729493       128.6960 
  64   0.0000       4.729500       128.6962 
  65   0.0000       4.738097       128.9302 
  66   0.0000       4.738098       128.9302 

                    ********************************
                    * MULLIKEN POPULATION ANALYSIS *
                    ********************************

--------------------------------------------
MULLIKEN ATOMIC CHARGES AND SPIN POPULATIONS
--------------------------------------------
   0 V :    1.000000    4.000000
Sum of atomic charges         :    1.0000000
Sum of atomic spin populations:    4.0000000

-----------------------------------------------------
MULLIKEN REDUCED ORBITAL CHARGES AND SPIN POPULATIONS
-----------------------------------------------------
CHARGE
  0 V s       :     5.999763  s :     5.999763
      pz      :     3.999778  p :    11.999617
      px      :     3.999919
      py      :     3.999920
      dz2     :     0.171380  d :     4.000185
      dxz     :     0.931297
      dyz     :     0.900274
      dx2y2   :     0.999443
      dxy     :     0.997791
      f0      :     0.000181  f :     0.000383
      f+1     :     0.000086
      f-1     :     0.000093
      f+2     :     0.000011
      f-2     :     0.000012
      f+3     :     0.000000
      f-3     :     0.000000
      g0      :     0.000008  g :     0.000052
      g+1     :     0.000007
      g-1     :     0.000008
      g+2     :     0.000011
      g-2     :     0.000011
      g+3     :     0.000003
      g-3     :     0.000003
      g+4     :     0.000000
      g-4     :     0.000000

SPIN
  0 V s       :     0.000216  s :     0.000216
      pz      :    -0.000017  p :    -0.000123
      px      :    -0.000056
      py      :    -0.000050
      dz2     :     0.171012  d :     3.999740
      dxz     :     0.931268
      dyz     :     0.900228
      dx2y2   :     0.999443
      dxy     :     0.997790
      f0      :     0.000026  f :     0.000123
      f+1     :     0.000045
      f-1     :     0.000037
      f+2     :     0.000008
      f-2     :     0.000007
      f+3     :     0.000000
      f-3     :     0.000000
      g0      :     0.000004  g :     0.000044
      g+1     :     0.000006
      g-1     :     0.000006
      g+2     :     0.000011
      g-2     :     0.000011
      g+3     :     0.000003
      g-3     :     0.000003
      g+4     :     0.000000
      g-4     :     0.000000


                     *******************************
                     * LOEWDIN POPULATION ANALYSIS *
                     *******************************

-------------------------------------------
LOEWDIN ATOMIC CHARGES AND SPIN POPULATIONS
-------------------------------------------
   0 V :    1.000000    4.000000

----------------------------------------------------
LOEWDIN REDUCED ORBITAL CHARGES AND SPIN POPULATIONS
----------------------------------------------------
CHARGE
  0 V s       :     5.999763  s :     5.999763
      pz      :     3.999778  p :    11.999617
      px      :     3.999919
      py      :     3.999920
      dz2     :     0.171380  d :     4.000185
      dxz     :     0.931297
      dyz     :     0.900274
      dx2y2   :     0.999443
      dxy     :     0.997791
      f0      :     0.000181  f :     0.000383
      f+1     :     0.000086
      f-1     :     0.000093
      f+2     :     0.000011
      f-2     :     0.000012
      f+3     :     0.000000
      f-3     :     0.000000
      g0      :     0.000008  g :     0.000052
      g+1     :     0.000007
      g-1     :     0.000008
      g+2     :     0.000011
      g-2     :     0.000011
      g+3     :     0.000003
      g-3     :     0.000003
      g+4     :     0.000000
      g-4     :     0.000000

SPIN
  0 V s       :     0.000216  s :     0.000216
      pz      :    -0.000017  p :    -0.000123
      px      :    -0.000056
      py      :    -0.000050
      dz2     :     0.171012  d :     3.999740
      dxz     :     0.931268
      dyz     :     0.900228
      dx2y2   :     0.999443
      dxy     :     0.997790
      f0      :     0.000026  f :     0.000123
      f+1     :     0.000045
      f-1     :     0.000037
      f+2     :     0.000008
      f-2     :     0.000007
      f+3     :     0.000000
      f-3     :     0.000000
      g0      :     0.000004  g :     0.000044
      g+1     :     0.000006
      g-1     :     0.000006
      g+2     :     0.000011
      g-2     :     0.000011
      g+3     :     0.000003
      g-3     :     0.000003
      g+4     :     0.000000
      g-4     :     0.000000


                      *****************************
                      * MAYER POPULATION ANALYSIS *
                      *****************************

  NA   - Mulliken gross atomic population
  ZA   - Total nuclear charge
  QA   - Mulliken gross atomic charge
  VA   - Mayer's total valence
  BVA  - Mayer's bonded valence
  FA   - Mayer's free valence

  ATOM       NA         ZA         QA         VA         BVA        FA
  0 V     22.0000    23.0000     1.0000     4.0016     0.0000     4.0016

  Mayer bond orders larger than 0.100000


-------
TIMINGS
-------

Total SCF time: 0 days 0 hours 6 min 1 sec 

Total time                  ....     361.449 sec
Sum of individual times     ....     360.143 sec  ( 99.6%)

Fock matrix formation       ....     351.064 sec  ( 97.1%)
  XC integration            ....     335.987 sec  ( 95.7% of F)
    Basis function eval.    ....       0.020 sec  (  0.0% of XC)
    Density eval.           ....       0.029 sec  (  0.0% of XC)
    XC-Functional eval.     ....       0.033 sec  (  0.0% of XC)
    XC-Potential eval.      ....       0.031 sec  (  0.0% of XC)
Diagonalization             ....       4.556 sec  (  1.3%)
Density matrix formation    ....       0.011 sec  (  0.0%)
Population analysis         ....       0.536 sec  (  0.1%)
Initial guess               ....       1.303 sec  (  0.4%)
Orbital Transformation      ....       0.000 sec  (  0.0%)
Orbital Orthonormalization  ....       0.000 sec  (  0.0%)
DIIS solution               ....       0.264 sec  (  0.1%)
Grid generation             ....       2.409 sec  (  0.7%)


           ************************************************************
           *        Program running with 28 parallel MPI-processes    *
           *              working on a common directory               *
           ************************************************************

------------------------------------------------------------------------------
                                ORCA  MP2 
------------------------------------------------------------------------------

Freezing NCore=10 chemical core electrons

-------------
RI-MP2 ENERGY
-------------
Dimension of the basis                    ...   67
Memory devoted to MP2                     ... 5000 MB   
Data format for buffers                   ... DOUBLE
Compression type for matrix containers    ... UNCOMPRESSED
Overall scaling of the MP2 energy         ...   2.700e-01
Calculating two index integrals           ... done (    0.013 sec)
Cholesky decomposition of V**-1           ... done (    0.096 sec)

-----------------
RI-TRANSFORMATION (AUX index driven)
-----------------

Dimension of the orbital-basis         ... 67
Dimension of the aux-basis             ... 225
Transformation of internal/external MOs...    5-  12 to   13-  66
Number Format for Storage              ... Double (8 Byte)
Integral mode                          ... Direct

First Phase: integral generation and transformation of MO indices
  Aux angular momentum 0               ... done (    0.000 sec)
  Aux angular momentum 1               ... done (    0.002 sec)
  Aux angular momentum 2               ... done (    0.001 sec)
  Aux angular momentum 3               ... done (    0.001 sec)
  Aux angular momentum 4               ... done (    0.001 sec)
  Aux angular momentum 5               ... done (    0.002 sec)
  Aux angular momentum 6               ... done (    0.003 sec)
Closing buffer VIA ( 0.00 GB; CompressionRatio= 1.00)
  Phase 1 completed in     0.806 sec
Second Phase: sorting and transformation of aux index

IA-Transformation
Memory available                       ... 5000 MB 
Max. # MO pairs treated in a batch     ... 1    
# of internal orbitals                 ... 8
# batches for internal orbitals        ... 1
Closing buffer IAV ( 0.00 GB; CompressionRatio= 1.00)
(ia|v) transformation done in     0.169 sec

  Phase 2 completed in     1.520 sec
RI-Integral transformation completed in     2.750 sec

-----------------
RI-TRANSFORMATION (AUX index driven)
-----------------

Dimension of the orbital-basis         ... 67
Dimension of the aux-basis             ... 225
Transformation of internal/external MOs...    5-   8 to    9-  66
Number Format for Storage              ... Double (8 Byte)
Integral mode                          ... Direct

First Phase: integral generation and transformation of MO indices
  Aux angular momentum 0               ... done (    0.000 sec)
  Aux angular momentum 1               ... done (    0.002 sec)
  Aux angular momentum 2               ... done (    0.001 sec)
  Aux angular momentum 3               ... done (    0.001 sec)
  Aux angular momentum 4               ... done (    0.001 sec)
  Aux angular momentum 5               ... done (    0.002 sec)
  Aux angular momentum 6               ... done (    0.003 sec)
Closing buffer VIA ( 0.00 GB; CompressionRatio= 0.99)
  Phase 1 completed in     1.075 sec
Second Phase: sorting and transformation of aux index

IA-Transformation
Memory available                       ... 5000 MB 
Max. # MO pairs treated in a batch     ... 1    
# of internal orbitals                 ... 4
# batches for internal orbitals        ... 1
Closing buffer IAV ( 0.00 GB; CompressionRatio= 1.00)
(ia|v) transformation done in     0.068 sec

  Phase 2 completed in     1.721 sec
RI-Integral transformation completed in     3.243 sec
Opening buffers                              ... done

Starting loop over batches of integrals:

Operator 0  - window                       ... (  5- 12)x( 13- 66)
Operator 0  - Memory available             ...  5000 MB
Operator 0  - Memory needed per MO         ...   0.1 MB
Operator 0  - Number of orbitals per batch ... 1
Operator 0  - Number of batches            ... 1

OPERATOR  0   PASS   0:  MOs     5 ...    5 +    6 ...    6 +    7 ...    7 +    8 ...    8
                            +    9 ...    9 +   10 ...   10 +   11 ...   11 +   12 ...   12
  Reading integrals       ... ok

Operator 1  - window                       ... (  5-  8)x(  9- 66)
Operator 1  - Memory available             ...  5000 MB
Operator 1  - Memory needed per MO         ...   0.1 MB
Operator 1  - Number of orbitals per batch ... 1
Operator 1  - Number of batches            ... 1

OPERATOR  1   PASS   0:  MOs     5 ...    5 +    6 ...    6 +    7 ...    7 +    8 ...    8
  Reading integrals       ... ok
Time spent in pair loops =     0.005 sec
Deleting buffer (Ka|jb)[aa] ...done
Deleting buffer (Ka|jb)[ab] ...done
Deleting buffer (Ka|jb)[ba] ...done
Deleting buffer (Ka|jb)[bb] ...done

Correlation energy components}
 E2 and T2 for alpha/alpha pairs :     -0.029801950 Eh      0.000000000
 E2 and T2 for beta/beta   pairs :     -0.008874515 Eh      0.000000000
 E2 and T2 for alpha/beta  pairs :     -0.066055724 Eh      0.000000000


-----------------------------------------------
 RI-MP2 CORRELATION ENERGY:     -0.104732188 Eh
-----------------------------------------------


-------
TIMINGS
-------

Total time                :    6.324 sec
Integral trafo            :    6.017 sec ( 95.1%)
I/O of integrals          :    0.003 sec (  0.0%)
K(i,j) Operators          :    0.001 sec (  0.0%)
T(i,j) pair energies      :    0.000 sec (  0.0%)
V-calculation             :    0.013 sec (  0.2%)
V**(-1/2)                 :    0.096 sec (  1.5%)
Gamma(ia|P)               :    0.000 sec (  0.0%)
Gamma-Trafo               :    0.000 sec (  0.0%)
D(virtual)                :    0.000 sec (  0.0%)
D(internal)               :    0.000 sec (  0.0%)
W(virtual)                :    0.000 sec (  0.0%)
W(internal)               :    0.000 sec (  0.0%)
L(virtual)                :    0.000 sec (  0.0%)
L(internal)               :    0.000 sec (  0.0%)
G(D)                      :    0.000 sec (  0.0%)
G(Z)                      :    0.000 sec (  0.0%)
Z-Vector Solution         :    0.000 sec (  0.0%)
Z-Vector Solution         :    0.000 sec (  0.0%)
3-Index Derivative 
+ Separable RIJ part      :    0.000 sec (  0.0%)
2-Index Derivative 
+ Separable RIJ part      :    0.000 sec (  0.0%)
Separable Gradient (X)    :    0.000 sec (  0.0%)


---------------------------------------
MP2 TOTAL ENERGY:     -943.490082824 Eh
---------------------------------------


-------------------------------------------------------------------------------
                          DFT DISPERSION CORRECTION                            
                                                                               
                              DFTD3 V3.1  Rev 1                                
                          USING Becke-Johnson damping                          
-------------------------------------------------------------------------------
The B2PLYP functional is recognized
Active option DFTDOPT                   ...         4   

molecular C6(AA) [au] = 1116.097907 


            DFT-D V3
 parameters
 s6 scaling factor         :     0.6400 
 a1 scaling factor         :     0.3065 
 s8 scaling factor         :     0.9147 
 a2 scaling factor         :     5.0570 
 ad hoc parameters k1-k3   :    16.0000     1.3333    -4.0000 

 Edisp/kcal,au: -0.000000000000  -0.000000000000 
 E6   /kcal   :  -0.000000000 
 E8   /kcal   :  -0.000000000 
 % E8         :          -nan 

-------------------------   ----------------
Dispersion correction            0.000000000
-------------------------   ----------------


-------------------------   --------------------
FINAL SINGLE POINT ENERGY      -943.490082824439
-------------------------   --------------------


                            ***************************************
                            *     ORCA property calculations      *
                            ***************************************


  WARNING: The energy has been calculated at the MP2 level but the densities
           used in the property calculations are still SCF densities
           MP2 response densities have not been calculated 
           use %mp2 Density relaxed end
           or  %mp2 Density unrelaxed end

                                    ---------------------
                                    Active property flags
                                    ---------------------
   (+) Dipole Moment


------------------------------------------------------------------------------
                       ORCA ELECTRIC PROPERTIES CALCULATION
------------------------------------------------------------------------------

Dipole Moment Calculation                       ... on
Quadrupole Moment Calculation                   ... off
Polarizability Calculation                      ... off
GBWName                                         ... V+.gbw
Electron density file                           ... V+.scfp
The origin for moment calculation is the CENTER OF MASS  = ( 0.000000,  0.000000  0.000000)

-------------
DIPOLE MOMENT
-------------
                                X             Y             Z
Electronic contribution:     -0.00000       0.00000      -0.00000
Nuclear contribution   :      0.00000       0.00000       0.00000
                        -----------------------------------------
Total Dipole Moment    :     -0.00000       0.00000      -0.00000
                        -----------------------------------------
Magnitude (a.u.)       :      0.00000
Magnitude (Debye)      :      0.00000



--------------------
Rotational spectrum 
--------------------
 
Rotational constants in cm-1:     0.000000     0.000000     0.000000 
Rotational constants in MHz :     0.000000     0.000000     0.000000 

 Dipole components along the rotational axes: 
x,y,z [a.u.] :    -0.000000     0.000000    -0.000000 
x,y,z [Debye]:    -0.000000     0.000000    -0.000000 

 

Timings for individual modules:

Sum of individual times         ...      381.782 sec (=   6.363 min)
GTO integral calculation        ...        7.899 sec (=   0.132 min)   2.1 %
SCF iterations                  ...      364.224 sec (=   6.070 min)  95.4 %
MP2 module                      ...        9.659 sec (=   0.161 min)   2.5 %
                             ****ORCA TERMINATED NORMALLY****
TOTAL RUN TIME: 0 days 0 hours 6 minutes 31 seconds 773 msec
