
                                 *****************
                                 * O   R   C   A *
                                 *****************

           --- An Ab Initio, DFT and Semiempirical electronic structure package ---

                  #######################################################
                  #                        -***-                        #
                  #          Department of theory and spectroscopy      #
                  #               Directorship: Frank Neese             #
                  #        Max Planck Institute fuer Kohlenforschung    #
                  #                Kaiser Wilhelm Platz 1               #
                  #                 D-45470 Muelheim/Ruhr               #
                  #                      Germany                        #
                  #                                                     #
                  #                  All rights reserved                #
                  #                        -***-                        #
                  #######################################################


                         Program Version 4.2.0 -  RELEASE  -


 With contributions from (in alphabetic order):
   Daniel Aravena         : Magnetic Suceptibility
   Michael Atanasov       : Ab Initio Ligand Field Theory (pilot matlab implementation)
   Alexander A. Auer      : GIAO ZORA, VPT2
   Ute Becker             : Parallelization
   Giovanni Bistoni       : ED, misc. LED, open-shell LED, HFLED
   Martin Brehm           : Molecular dynamics
   Dmytro Bykov           : SCF Hessian
   Vijay G. Chilkuri      : MRCI spin determinant printing, contributions to CSF-ICE
   Dipayan Datta          : RHF DLPNO-CCSD density
   Achintya Kumar Dutta   : EOM-CC, STEOM-CC
   Dmitry Ganyushin       : Spin-Orbit,Spin-Spin,Magnetic field MRCI
   Miquel Garcia          : C-PCM Hessian, Gaussian charge scheme
   Yang Guo               : DLPNO-NEVPT2, CIM, IAO-localization
   Andreas Hansen         : Spin unrestricted coupled pair/coupled cluster methods
   Benjamin Helmich-Paris : CASSCF linear response (MC-RPA)
   Lee Huntington         : MR-EOM, pCC
   Robert Izsak           : Overlap fitted RIJCOSX, COSX-SCS-MP3, EOM
   Christian Kollmar      : KDIIS, OOCD, Brueckner-CCSD(T), CCSD density
   Simone Kossmann        : Meta GGA functionals, TD-DFT gradient, OOMP2, MP2 Hessian
   Martin Krupicka        : AUTO-CI
   Lucas Lang             : DCDCAS
   Dagmar Lenk            : GEPOL surface, SMD
   Dimitrios Liakos       : Extrapolation schemes; Compound Job, initial MDCI parallelization
   Dimitrios Manganas     : Further ROCIS development; embedding schemes
   Dimitrios Pantazis     : SARC Basis sets
   Taras Petrenko         : DFT Hessian,TD-DFT gradient, ASA, ECA, R-Raman, ABS, FL, XAS/XES, NRVS
   Peter Pinski           : DLPNO-MP2, DLPNO-MP2 Gradient
   Christoph Reimann      : Effective Core Potentials
   Marius Retegan         : Local ZFS, SOC
   Christoph Riplinger    : Optimizer, TS searches, QM/MM, DLPNO-CCSD(T), (RO)-DLPNO pert. Triples
   Tobias Risthaus        : Range-separated hybrids, TD-DFT gradient, RPA, STAB
   Michael Roemelt        : Original ROCIS implementation
   Masaaki Saitow         : Open-shell DLPNO-CCSD energy and density
   Barbara Sandhoefer     : DKH picture change effects
   Avijit Sen             : IP-ROCIS
   Kantharuban Sivalingam : CASSCF convergence, NEVPT2, FIC-MRCI
   Bernardo de Souza      : ESD, SOC TD-DFT
   Georgi Stoychev        : AutoAux, RI-MP2 NMR
   Willem Van den Heuvel  : Paramagnetic NMR
   Boris Wezisla          : Elementary symmetry handling
   Frank Wennmohs         : Technical directorship


 We gratefully acknowledge several colleagues who have allowed us to
 interface, adapt or use parts of their codes:
   Stefan Grimme, W. Hujo, H. Kruse,             : VdW corrections, initial TS optimization,
                  C. Bannwarth                     DFT functionals, gCP, sTDA/sTD-DF
   Ed Valeev, F. Pavosevic, A. Kumar             : LibInt (2-el integral package), F12 methods
   Garnet Chan, S. Sharma, J. Yang, R. Olivares  : DMRG
   Ulf Ekstrom                                   : XCFun DFT Library
   Mihaly Kallay                                 : mrcc  (arbitrary order and MRCC methods)
   Andreas Klamt, Michael Diedenhofen            : otool_cosmo (COSMO solvation model)
   Jiri Pittner, Ondrej Demel                    : Mk-CCSD
   Frank Weinhold                                : gennbo (NPA and NBO analysis)
   Christopher J. Cramer and Donald G. Truhlar   : smd solvation model
   Lars Goerigk                                  : TD-DFT with DH, B97 family of functionals
   V. Asgeirsson, H. Jonsson                     : NEB implementation
   FAccTs GmbH                                   : IRC, NEB, NEB-TS, Multilevel, MM, QM/MM, CI optimization
   S Lehtola, MJT Oliveira, MAL Marques          : LibXC Library


 Your calculation uses the libint2 library for the computation of 2-el integrals
 For citations please refer to: http://libint.valeyev.net

 Your ORCA version has been built with support for libXC version: 4.2.3
 For citations please refer to: https://tddft.org/programs/libxc/

 This ORCA versions uses:
   CBLAS   interface :  Fast vector & matrix operations
   LAPACKE interface :  Fast linear algebra routines
   SCALAPACK package :  Parallel linear algebra routines


Your calculation utilizes the atom-pairwise dispersion correction
with the Becke-Johnson damping scheme (D3BJ)
Cite in your paper:
S.Grimme, S.Ehrlich, L.Goerigk, J Comput Chem, (2011), 32, 1456–1465 
S.Grimme, J.Antony, S.Ehrlich and H.Krieg, J.Chem.Phys., 132, (2010), 154104 
   

----- Orbital basis set information -----
Your calculation utilizes the basis: def2-TZVPPD
   F. Weigend and R. Ahlrichs, Phys. Chem. Chem. Phys. 7, 3297 (2005).
   D. Rappoport and F. Furche, J. Chem. Phys. 133 134105 (2010).

----- AuxC basis set information -----
Your calculation utilizes the auxiliary basis: def2-TZVPPD/C
   A. Hellweg, C. Hattig, S. Hofener and W. Klopper, Theor. Chem. Acc. 117, 587 (2007).

----- AuxJK basis set information -----
Your calculation utilizes the auxiliary basis: def2/JK
   H-Ba, Hf-Rn: F. Weigend, J. Comput. Chem. 29, 167 (2008).

cite the ECPs for Zr [Def2-ECP] as follows:
Ce-Yb(ecp-28): M. Dolg, H. Stoll, H.Preuss, J. Chem. Phys., 1989, 90, 1730-1734.
Y-Cd(ecp-28), Hf-Hg(ecp-46): D. Andrae,U. Haeussermann, M. Dolg, H. Stoll, H. Preuss, Theor. Chim. Acta, 1990, 77, 123-141.
In-Sb(ecp-28), Tl-Bi(ecp-46): B. Metz, H. Stoll, M. Dolg, J. Chem. Phys., 2000, 113, 2563-2569.
Te-Xe(ecp-28), Po-Rn(ecp-46): K. A. Peterson, D. Figgen, E. Goll, H. Stoll, M. Dolg, J. Chem. Phys., 2003, 119, 11113-11123.
Rb(ecp-28), Cs(ecp-46): T. Leininger, A. Nicklass, W. Kuechle, H. Stoll, M. Dolg, A. Bergner, Chem. Phys. Lett., 1996, 255, 274-280.
Sr(ecp-28), Ba(ecp-46): M. Kaupp, P. V. Schleyer, H. Stoll and H. Preuss, J. Chem. Phys., 1991, 94, 1360-1366.
La(ecp-46): M. Dolg, H. Stoll, A. Savin, H. Preuss, Theor. Chim. Acta, 1989, 75, 173-194.
Lu(ecp-28): X. Cao, M. Dolg, J. Chem. Phys., 2001, 115, 7348-7355.

ECP parameters for Zr [Def2-ECP] have been obtained from:
TURBOMOLE (7.0.2)

================================================================================
                                        WARNINGS
                       Please study these warnings very carefully!
================================================================================


WARNING: your system is open-shell and RHF/RKS was chosen
  ===> : WILL SWITCH to UHF/UKS


WARNING: No MP2 level density has been requested!
         To caclulate MP2 level properties use
         %mp2 Density relaxed end
         or
         %mp2 Density unrelaxed end
         Otherwise for double-hybrid DFT only the energy is correct!

WARNING: The frozen-core approximation is turned on by default for 
         the MP2 part of double-hybrid DFT.

INFO   : the flag for use of LIBINT has been found!

================================================================================
                                       INPUT FILE
================================================================================
NAME = Zr.in
|  1> #
|  2> # Zr ri-B2PLYP-D3BJ/Def2-TZVPPD
|  3> #
|  4> ! rijk ri-b2plyp d3bj def2-tzvppd def2/jk def2-tzvppd/c grid4 nofinalgrid
|  5> 
|  6> *xyz 0 3
|  7> Zr         0.00000        0.00000        0.00000
|  8> *
|  9> 
| 10> %maxcore 5000
| 11> 
| 12> %pal
| 13> nprocs = 28
| 14> end
| 15> 
| 16> 
| 17>                          ****END OF INPUT****
================================================================================

                       ****************************
                       * Single Point Calculation *
                       ****************************

---------------------------------
CARTESIAN COORDINATES (ANGSTROEM)
---------------------------------
  Zr     0.000000    0.000000    0.000000

----------------------------
CARTESIAN COORDINATES (A.U.)
----------------------------
  NO LB      ZA    FRAG     MASS         X           Y           Z
   0 Zr   12.0000*   0    91.220    0.000000    0.000000    0.000000
* core charge reduced due to ECP

--------------------------------
INTERNAL COORDINATES (ANGSTROEM)
--------------------------------
 Zr     0   0   0     0.000000000000     0.00000000     0.00000000

---------------------------
INTERNAL COORDINATES (A.U.)
---------------------------
 Zr     0   0   0     0.000000000000     0.00000000     0.00000000

---------------------
BASIS SET INFORMATION
---------------------
There are 1 groups of distinct atoms

 Group   1 Type Zr  : 7s7p5d2f1g contracted to 6s4p3d2f1g pattern {211111/4111/311/11/1}

Atom   0Zr   basis set group =>   1
---------------------------------
AUXILIARY/C BASIS SET INFORMATION
---------------------------------
There are 1 groups of distinct atoms

 Group   1 Type Zr  : 8s7p6d5f4g3h1i contracted to 8s7p6d5f4g3h1i pattern {11111111/1111111/111111/11111/1111/111/1}

Atom   0Zr   basis set group =>   1
----------------------------------
AUXILIARY/JK BASIS SET INFORMATION
----------------------------------
There are 1 groups of distinct atoms

 Group   1 Type Zr  : 13s12p10d9f6g3h2i contracted to 11s10p9d8f6g3h2i pattern {31111111111/3111111111/211111111/21111111/111111/111/11}

Atom   0Zr   basis set group =>   1
-------------------------
ECP PARAMETER INFORMATION
-------------------------

 Group 1, Type Zr ECP Def2-ECP (replacing 28 core electrons, lmax=3)

Atom   0Zr   ECP group =>   1



           ************************************************************
           *        Program running with 28 parallel MPI-processes    *
           *              working on a common directory               *
           ************************************************************
------------------------------------------------------------------------------
                           ORCA GTO INTEGRAL CALCULATION
                           -- RI-GTO INTEGRALS CHOSEN --
------------------------------------------------------------------------------

                         BASIS SET STATISTICS AND STARTUP INFO

Gaussian basis set:
 # of primitive gaussian shells          ...   22
 # of primitive gaussian functions       ...   76
 # of contracted shells                  ...   16
 # of contracted basis functions         ...   56
 Highest angular momentum                ...    4
 Maximum contraction depth               ...    4
Auxiliary gaussian basis set:
 # of primitive gaussian shells          ...   55
 # of primitive gaussian functions       ...  275
 # of contracted shells                  ...   49
 # of contracted aux-basis functions     ...  255
 Highest angular momentum                ...    6
 Maximum contraction depth               ...    3
Ratio of auxiliary to basis functions    ...  4.55
Integral package used                  ... LIBINT
 One Electron integrals                  
   ECP integrals                         ... done
 Ordering auxiliary basis shells         ... done
 Integral threshhold             Thresh  ...  1.000e-10
 Primitive cut-off               TCut    ...  1.000e-11
 Pre-screening matrix                    ... done
 Shell pair data                         ... 
 Ordering of the shell pairs             ... done (   0.000 sec) 136 of 136 pairs
 Determination of significant pairs      ... done (   0.000 sec)
 Creation of shell pair data             ... done (   0.000 sec)
 Storage of shell pair data              ... done (   0.036 sec)
 Shell pair data done in (   0.036 sec)
 Computing two index integrals           ... done
 Cholesky decomposition of the V-matrix  ... done


Timings:
 Total evaluation time                   ...   0.502 sec (  0.008 min)
 One electron matrix time                ...   0.125 sec (  0.002 min) = 24.9%
 Schwartz matrix evaluation time         ...   0.105 sec (  0.002 min) = 20.9%
 Two index repulsion integral time       ...   0.086 sec (  0.001 min) = 17.2%
 Cholesky decomposition of V             ...   0.093 sec (  0.002 min) = 18.6%
 Three index repulsion integral time     ...   0.000 sec (  0.000 min) =  0.0%



           ************************************************************
           *        Program running with 28 parallel MPI-processes    *
           *              working on a common directory               *
           ************************************************************
-------------------------------------------------------------------------------
                                 ORCA SCF
-------------------------------------------------------------------------------

------------
SCF SETTINGS
------------
Hamiltonian:
 Density Functional     Method          .... DFT(GTOs)
 Exchange Functional    Exchange        .... B88
   X-Alpha parameter    XAlpha          ....  0.666667
   Becke's b parameter  XBeta           ....  0.004200
 Correlation Functional Correlation     .... LYP
 LDA part of GGA corr.  LDAOpt          .... VWN-3
 Gradients option       PostSCFGGA      .... off
 Hybrid DFT is turned on
   Fraction HF Exchange ScalHFX         ....  0.530000
   Scaling of DF-GGA-X  ScalDFX         ....  0.470000
   Scaling of DF-GGA-C  ScalDFC         ....  0.730000
   Scaling of DF-LDA-C  ScalLDAC        ....  0.730000
   Perturbative correction              ....  0.270000
   Density functional embedding theory  .... OFF
 RI-approximation to the Coulomb term is turned on
   Number of auxiliary basis functions  .... 255
   RI-JK (J+K treated both via RI)      .... on


General Settings:
 Integral files         IntName         .... Zr
 Hartree-Fock type      HFTyp           .... UHF
 Total Charge           Charge          ....    0
 Multiplicity           Mult            ....    3
 Number of Electrons    NEL             ....   12
 Basis Dimension        Dim             ....   56
 Nuclear Repulsion      ENuc            ....      0.0000000000 Eh

Convergence Acceleration:
 DIIS                   CNVDIIS         .... on
   Start iteration      DIISMaxIt       ....    12
   Startup error        DIISStart       ....  0.200000
   # of expansion vecs  DIISMaxEq       ....     5
   Bias factor          DIISBfac        ....   1.050
   Max. coefficient     DIISMaxC        ....  10.000
 Newton-Raphson         CNVNR           .... off
 SOSCF                  CNVSOSCF        .... off
 Level Shifting         CNVShift        .... on
   Level shift para.    LevelShift      ....    0.2500
   Turn off err/grad.   ShiftErr        ....    0.0010
 Zerner damping         CNVZerner       .... off
 Static damping         CNVDamp         .... on
   Fraction old density DampFac         ....    0.7000
   Max. Damping (<1)    DampMax         ....    0.9800
   Min. Damping (>=0)   DampMin         ....    0.0000
   Turn off err/grad.   DampErr         ....    0.1000
 Fernandez-Rico         CNVRico         .... off

SCF Procedure:
 Maximum # iterations   MaxIter         ....   125
 SCF integral mode      SCFMode         .... Direct
   Integral package                     .... LIBINT
 Reset frequency        DirectResetFreq ....    20
 Integral Threshold     Thresh          ....  1.000e-10 Eh
 Primitive CutOff       TCut            ....  1.000e-11 Eh

Convergence Tolerance:
 Convergence Check Mode ConvCheckMode   .... Total+1el-Energy
 Convergence forced     ConvForced      .... 0
 Energy Change          TolE            ....  1.000e-06 Eh
 1-El. energy change                    ....  1.000e-03 Eh
 DIIS Error             TolErr          ....  1.000e-06


Diagonalization of the overlap matrix:
Smallest eigenvalue                        ... 2.006e-02
Time for diagonalization                   ...    0.005 sec
Threshold for overlap eigenvalues          ... 1.000e-08
Number of eigenvalues below threshold      ... 0
Time for construction of square roots      ...    0.034 sec
Total time needed                          ...    0.038 sec

-------------------
DFT GRID GENERATION
-------------------

General Integration Accuracy     IntAcc      ...  4.670
Radial Grid Type                 RadialGrid  ... Gauss-Chebyshev
Angular Grid (max. acc.)         AngularGrid ... Lebedev-302
Angular grid pruning method      GridPruning ... 3 (G Style)
Weight generation scheme         WeightScheme... Becke
Basis function cutoff            BFCut       ...    1.0000e-10
Integration weight cutoff        WCut        ...    1.0000e-14
Grids for H and He will be reduced by one unit

# of grid points (after initial pruning)     ...  10682 (   0.0 sec)
# of grid points (after weights+screening)   ...  10682 (   0.0 sec)
Grid point division into batches done        ...    0.1 sec
Reduced shell lists constructed in    0.1 sec

Total number of grid points                  ...    10682
Total number of batches                      ...      167
Average number of points per batch           ...       63
Average number of grid points per atom       ...    10682
Average number of shells per batch           ...     1.71 (10.71%)
Average number of basis functions per batch  ...     3.43 ( 6.12%)
Average number of large shells per batch     ...     1.71 (100.00%)
Average number of large basis fcns per batch ...     3.43 (100.00%)
Average number of aux-shells per batch       ...     1.71 ( 3.50%)
Average number of aux functions per batch    ...     3.43 ( 1.34%)
Maximum spatial batch extension              ...  28.90, 28.90, 28.90 au
Average spatial batch extension              ...   0.91,  0.91,  0.88 au

Time for grid setup =    1.741 sec

------------------------------
INITIAL GUESS: MODEL POTENTIAL
------------------------------
Loading Hartree-Fock densities                     ... done
  calling /mnt/storage/software/apps/orca-4.2.0/orca_4_2_0_linux_x86-64_openmpi314/orca Zr_atom40.inp > Zr_atom40.out in order to generate an atomic fitting density for atom 0 (Zr with ECP) on-the-fly... 
    atom 0 (Zr), assumed electronic state with S=3: 1s2 2s2 2p6 3s2 3p6 4s2 3d10 4p6 4d2 5s2           ... done
Calculating cut-offs                               ... done
Setting up the integral package                    ... done
Initializing the effective Hamiltonian             ... done
Starting the Coulomb interaction                   ... done (   0.0 sec)
Reading the grid                                   ... done
Mapping shells                                     ... done
Starting the XC term evaluation                    ... done (   0.0 sec)
  promolecular density results
     # of electrons  =     40.000376052
     EX              =   -110.544106432
     EC              =     -0.727553922
     EX+EC           =   -111.271660354
Transforming the Hamiltonian                       ... done (   0.0 sec)
Diagonalizing the Hamiltonian                      ... done (   0.0 sec)
Back transforming the eigenvectors                 ... done (   0.0 sec)
Now organizing SCF variables                       ... done
                      ------------------
                      INITIAL GUESS DONE (  16.2 sec)
                      ------------------
--------------
SCF ITERATIONS
--------------
ITER       Energy         Delta-E        Max-DP      RMS-DP      [F,P]     Damp
  0    -46.1967770970   0.000000000000 0.10302037  0.00400404  0.4728560 0.7000
  1    -46.1697746769   0.027002420101 0.08861696  0.00361586  0.3498455 0.7000
                               ***Turning on DIIS***
  2    -46.2585017614  -0.088727084479 0.06416533  0.00241627  0.1975887 0.7000
  3    -46.3668731600  -0.108371398584 0.03047675  0.00117243  0.1154838 0.7000
  4    -46.4785697970  -0.111696637076 0.05061994  0.00203740  0.0744542 0.0000
  5    -46.5976469163  -0.119077119274 0.02804046  0.00092112  0.0465147 0.0000
  6    -46.6023115771  -0.004664660749 0.01423202  0.00063862  0.0237678 0.0000
  7    -46.6047580550  -0.002446477928 0.01356528  0.00053010  0.0136528 0.0000
  8    -46.6067688034  -0.002010748378 0.01050050  0.00041572  0.0105984 0.0000
  9    -46.6084382817  -0.001669478299 0.00825874  0.00032024  0.0116308 0.0000
 10    -46.6097982491  -0.001359967400 0.00797635  0.00028259  0.0122881 0.0000
 11    -46.6110307005  -0.001232451468 0.00358363  0.00014121  0.0128538 0.0000
 12    -46.6116507398  -0.000620039223 0.00196844  0.00007191  0.0130544 0.0000
 13    -46.6119408114  -0.000290071659 0.00147455  0.00006817  0.0130693 0.0000
 14    -46.6119245468   0.000016264670 0.01314557  0.00036127  0.0129307 0.0000
 15    -46.6135299566  -0.001605409869 0.01749177  0.00048012  0.0135050 0.0000
 16    -46.6157760313  -0.002246074730 0.00770170  0.00026909  0.0141049 0.0000
 17    -46.6170789746  -0.001302943254 0.00453630  0.00013431  0.0142046 0.0000
 18    -46.6169849088   0.000094065821 0.00204728  0.00006099  0.0138923 0.0000
 19    -46.6172132802  -0.000228371385 0.01545556  0.00036808  0.0138846 0.0000
 20    -46.6189138212  -0.001700541077 0.01493977  0.00036378  0.0144208 0.0000
 21    -46.6206888972  -0.001775075936 0.03305223  0.00076664  0.0147911 0.0000
 22    -46.6244145387  -0.003725641489 0.03742917  0.00083851  0.0155325 0.0000
 23    -46.6286384980  -0.004223959343 0.02550030  0.00060668  0.0157931 0.0000
 24    -46.6318379849  -0.003199486891 0.00760224  0.00018210  0.0155618 0.0000
 25    -46.6324913323  -0.000653347347 0.01261136  0.00025069  0.0149900 0.0000
 26    -46.6316439597   0.000847372547 0.02381204  0.00051657  0.0145457 0.0000
 27    -46.6342387751  -0.002594815393 0.03402295  0.00071510  0.0147426 0.0000
 28    -46.6377947624  -0.003555987285 0.06771335  0.00139258  0.0146369 0.0000
 29    -46.6444433725  -0.006648610101 0.04505129  0.00100245  0.0141140 0.0000
 30    -46.6494204741  -0.004977101625 0.08095645  0.00178177  0.0125283 0.0000
 31    -46.6573139999  -0.007893525750 0.01669465  0.00068846  0.0120003 0.0000
 32    -46.6608090169  -0.003495016992 0.05392516  0.00161818  0.0106880 0.0000
 33    -46.6676244951  -0.006815478216 0.01359181  0.00070445  0.0097016 0.0000
 34    -46.6711285215  -0.003504026460 0.01775942  0.00083014  0.0083361 0.0000
 35    -46.6751591791  -0.004030657542 0.01976325  0.00083312  0.0076374 0.0000
 36    -46.6790758869  -0.003916707797 0.01887055  0.00078570  0.0073337 0.0000
 37    -46.6825233126  -0.003447425758 0.01343903  0.00060493  0.0073939 0.0000
 38    -46.6849746314  -0.002451318817 0.01005986  0.00050170  0.0077948 0.0000
 39    -46.6868460878  -0.001871456383 0.00490221  0.00016420  0.0084430 0.0000
 40    -46.6872975024  -0.000451414543 0.00371876  0.00013492  0.0088122 0.0000
 41    -46.6871180217   0.000179480671 0.00236359  0.00006664  0.0090142 0.0000
 42    -46.6870976591   0.000020362580 0.00353535  0.00016767  0.0092051 0.0000
 43    -46.6877048065  -0.000607147359 0.00390100  0.00019637  0.0095280 0.0000
 44    -46.6883824057  -0.000677599268 0.00655101  0.00027536  0.0097801 0.0000
 45    -46.6892889558  -0.000906550065 0.00974091  0.00037552  0.0103908 0.0000
 46    -46.6904635129  -0.001174557121 0.00494989  0.00020396  0.0113533 0.0000
 47    -46.6910944942  -0.000630981236 0.00912752  0.00028943  0.0119365 0.0000
 48    -46.6903035856   0.000790908588 0.00113349  0.00004596  0.0113673 0.0000
 49    -46.6902664618   0.000037123793 0.00282185  0.00010341  0.0112631 0.0000
 50    -46.6905980595  -0.000331597746 0.01232766  0.00040314  0.0114475 0.0000
 51    -46.6918427328  -0.001244673226 0.01148106  0.00036972  0.0123921 0.0000
 52    -46.6930294394  -0.001186706631 0.00346421  0.00012764  0.0132664 0.0000
 53    -46.6929461959   0.000083243535 0.00498090  0.00014527  0.0131856 0.0000
 54    -46.6925921367   0.000354059113 0.00124577  0.00003092  0.0129235 0.0000
 55    -46.6926359124  -0.000043775680 0.01419186  0.00041625  0.0129361 0.0000
 56    -46.6939298120  -0.001293899613 0.01097994  0.00032194  0.0138282 0.0000
 57    -46.6949856946  -0.001055882541 0.00423052  0.00013907  0.0144623 0.0000
 58    -46.6954133419  -0.000427647350 0.00247606  0.00006457  0.0146823 0.0000
 59    -46.6953376321   0.000075709847 0.00319608  0.00010040  0.0146249 0.0000
 60    -46.6956827945  -0.000345162389 0.00847454  0.00022126  0.0148329 0.0000
 61    -46.6964170899  -0.000734295433 0.00874133  0.00024039  0.0152239 0.0000
 62    -46.6972426140  -0.000825524137 0.00405586  0.00011908  0.0155670 0.0000
 63    -46.6976249743  -0.000382360245 0.00289296  0.00008553  0.0156286 0.0000
 64    -46.6978868398  -0.000261865477 0.00828844  0.00022203  0.0156650 0.0000
 65    -46.6986800847  -0.000793244972 0.00699232  0.00018676  0.0160000 0.0000
 66    -46.6993554099  -0.000675325188 0.00444757  0.00013182  0.0162030 0.0000
 67    -46.6998297420  -0.000474332070 0.00520633  0.00015861  0.0163072 0.0000
 68    -46.7003810865  -0.000551344473 0.01749477  0.00044856  0.0164944 0.0000
 69    -46.7019120622  -0.001530975763 0.02212331  0.00053060  0.0170781 0.0000
 70    -46.7038115513  -0.001899489112 0.01454854  0.00036375  0.0175242 0.0000
 71    -46.7051747942  -0.001363242830 0.00450407  0.00013680  0.0175862 0.0000
 72    -46.7050616888   0.000113105329 0.00561541  0.00015551  0.0171902 0.0000
 73    -46.7056691657  -0.000607476912 0.01412852  0.00033028  0.0172509 0.0000
 74    -46.7068908677  -0.001221701924 0.02147184  0.00049831  0.0173883 0.0000
 75    -46.7086749180  -0.001784050331 0.04083015  0.00091682  0.0175111 0.0000
 76    -46.7118376530  -0.003162735000 0.04290054  0.00094287  0.0175913 0.0000
 77    -46.7151062734  -0.003268620422 0.07672401  0.00164973  0.0169236 0.0000
 78    -46.7200533308  -0.004947057331 0.03189880  0.00082157  0.0153640 0.0000
 79    -46.7226278947  -0.002574563995 0.09239660  0.00210849  0.0130607 0.0000
 80    -46.7261872487  -0.003559353988 0.01341088  0.00051480  0.0087909 0.0000
 81    -46.7272941703  -0.001106921543 0.01297779  0.00041498  0.0051067 0.0000
 82    -46.7279200214  -0.000625851121 0.01059055  0.00032750  0.0037828 0.0000
 83    -46.7283191861  -0.000399164688 0.00719547  0.00024344  0.0025810 0.0000
 84    -46.7285796819  -0.000260495834 0.00564846  0.00021158  0.0017195 0.0000
 85    -46.7287911842  -0.000211502237 0.00492168  0.00019569  0.0012094 0.0000
 86    -46.7289783768  -0.000187192604 0.01127475  0.00045404  0.0009207 0.0000
 87    -46.7293621907  -0.000383813902 0.00662616  0.00028694  0.0009764 0.0000
 88    -46.7295694891  -0.000207298409 0.01273278  0.00054627  0.0009561 0.0000
 89    -46.7298854337  -0.000315944594 0.01133380  0.00050097  0.0009393 0.0000
 90    -46.7300931547  -0.000207721067 0.00847741  0.00039944  0.0008780 0.0000
 91    -46.7302138578  -0.000120703081 0.01166703  0.00058830  0.0007546 0.0000
 92    -46.7303061234  -0.000092265545 0.00322528  0.00014939  0.0005211 0.0000
 93    -46.7303328826  -0.000026759201 0.00346153  0.00020068  0.0003788 0.0000
 94    -46.7303393650  -0.000006482432 0.00220989  0.00010272  0.0002145 0.0000
 95    -46.7303489380  -0.000009573005 0.00169120  0.00005928  0.0000953 0.0000
 96    -46.7303534214  -0.000004483384 0.00123721  0.00004410  0.0000687 0.0000
 97    -46.7303554915  -0.000002070104 0.00061712  0.00002402  0.0000480 0.0000
                 **** Energy Check signals convergence ****

               *****************************************************
               *                     SUCCESS                       *
               *           SCF CONVERGED AFTER  98 CYCLES          *
               *****************************************************


----------------
TOTAL SCF ENERGY
----------------

Total Energy       :          -46.73035627 Eh           -1271.59764 eV

Components:
Nuclear Repulsion  :            0.00000000 Eh               0.00000 eV
Electronic Energy  :          -46.73035627 Eh           -1271.59764 eV
One Electron Energy:          -77.82794832 Eh           -2117.80614 eV
Two Electron Energy:           31.09759205 Eh             846.20850 eV

Virial components:
Potential Energy   :          -61.96762625 Eh           -1686.22484 eV
Kinetic Energy     :           15.23726998 Eh             414.62720 eV
Virial Ratio       :            4.06684572


DFT components:
N(Alpha)           :        7.000000003220 electrons
N(Beta)            :        4.999999994058 electrons
N(Total)           :       11.999999997278 electrons
E(X)               :       -2.544666408206 Eh       
E(C)               :       -0.245845686866 Eh       
E(XC)              :       -2.790512095072 Eh       
DFET-embed. en.    :        0.000000000000 Eh       

---------------
SCF CONVERGENCE
---------------

  Last Energy change         ...   -7.7833e-07  Tolerance :   1.0000e-06
  Last MAX-Density change    ...    3.9596e-04  Tolerance :   1.0000e-05
  Last RMS-Density change    ...    1.7165e-05  Tolerance :   1.0000e-06
  Last DIIS Error            ...    3.9346e-05  Tolerance :   1.0000e-06

             **** THE GBW FILE WAS UPDATED (Zr.gbw) ****
             **** DENSITY FILE WAS UPDATED (Zr.scfp) ****
             **** ENERGY FILE WAS UPDATED (Zr.en.tmp) ****
----------------------
UHF SPIN CONTAMINATION
----------------------

Warning: in a DFT calculation there is little theoretical justification to 
         calculate <S**2> as in Hartree-Fock theory. We will do it anyways
         but you should keep in mind that the values have only limited relevance

Expectation value of <S**2>     :     2.006093
Ideal value S*(S+1) for S=1.0   :     2.000000
Deviation                       :     0.006093

             **** THE GBW FILE WAS UPDATED (Zr.gbw) ****
             **** DENSITY FILE WAS UPDATED (Zr.scfp) ****
----------------
ORBITAL ENERGIES
----------------
                 SPIN UP ORBITALS
  NO   OCC          E(Eh)            E(eV) 
   0   1.0000      -2.326273       -63.3011 
   1   1.0000      -1.401119       -38.1264 
   2   1.0000      -1.401041       -38.1243 
   3   1.0000      -1.401029       -38.1239 
   4   1.0000      -0.241636        -6.5752 
   5   1.0000      -0.241628        -6.5750 
   6   1.0000      -0.203428        -5.5356 
   7   0.0000      -0.016970        -0.4618 
   8   0.0000      -0.016946        -0.4611 
   9   0.0000      -0.016872        -0.4591 
  10   0.0000      -0.011885        -0.3234 
  11   0.0000      -0.011821        -0.3217 
  12   0.0000      -0.011657        -0.3172 
  13   0.0000       0.085366         2.3229 
  14   0.0000       0.139282         3.7901 
  15   0.0000       0.139334         3.7915 
  16   0.0000       0.139467         3.7951 
  17   0.0000       0.170372         4.6361 
  18   0.0000       0.170376         4.6362 
  19   0.0000       0.192209         5.2303 
  20   0.0000       0.192219         5.2305 
  21   0.0000       0.192262         5.2317 
  22   0.0000       0.500011        13.6060 
  23   0.0000       0.500089        13.6081 
  24   0.0000       0.500192        13.6109 
  25   0.0000       0.510771        13.8988 
  26   0.0000       0.510965        13.9041 
  27   0.0000       0.511097        13.9077 
  28   0.0000       0.526872        14.3369 
  29   0.0000       0.865014        23.5382 
  30   0.0000       0.865021        23.5384 
  31   0.0000       0.896504        24.3951 
  32   0.0000       0.896543        24.3962 
  33   0.0000       0.896636        24.3987 
  34   0.0000       1.007234        27.4082 
  35   0.0000       1.007246        27.4085 
  36   0.0000       1.007320        27.4106 
  37   0.0000       1.141761        31.0689 
  38   0.0000       1.202156        32.7123 
  39   0.0000       1.202170        32.7127 
  40   0.0000       1.202192        32.7133 
  41   0.0000       1.203565        32.7507 
  42   0.0000       1.206618        32.8337 
  43   0.0000       1.206629        32.8340 
  44   0.0000       1.214455        33.0470 
  45   0.0000       1.214483        33.0478 
  46   0.0000       1.214561        33.0499 
  47   0.0000       1.634553        44.4785 
  48   0.0000       1.634633        44.4806 
  49   0.0000       1.634763        44.4842 
  50   0.0000       1.650400        44.9097 
  51   0.0000       1.650482        44.9119 
  52   0.0000       1.650576        44.9145 
  53   0.0000       1.673942        45.5503 
  54   0.0000      19.840135       539.8775 
  55   0.0000      71.456435      1944.4285 

                 SPIN DOWN ORBITALS
  NO   OCC          E(Eh)            E(eV) 
   0   1.0000      -2.271081       -61.7993 
   1   1.0000      -1.329563       -36.1792 
   2   1.0000      -1.329404       -36.1749 
   3   1.0000      -1.329107       -36.1668 
   4   1.0000      -0.181663        -4.9433 
   5   0.0000      -0.005299        -0.1442 
   6   0.0000      -0.005069        -0.1379 
   7   0.0000      -0.004926        -0.1340 
   8   0.0000       0.000012         0.0003 
   9   0.0000       0.000196         0.0053 
  10   0.0000       0.000338         0.0092 
  11   0.0000       0.016933         0.4608 
  12   0.0000       0.016935         0.4608 
  13   0.0000       0.094419         2.5693 
  14   0.0000       0.150701         4.1008 
  15   0.0000       0.150930         4.1070 
  16   0.0000       0.151086         4.1113 
  17   0.0000       0.197729         5.3805 
  18   0.0000       0.197798         5.3824 
  19   0.0000       0.197857         5.3840 
  20   0.0000       0.206140         5.6094 
  21   0.0000       0.206143         5.6094 
  22   0.0000       0.524006        14.2589 
  23   0.0000       0.530460        14.4346 
  24   0.0000       0.530639        14.4394 
  25   0.0000       0.530874        14.4458 
  26   0.0000       0.536165        14.5898 
  27   0.0000       0.536236        14.5917 
  28   0.0000       0.536312        14.5938 
  29   0.0000       0.905876        24.6501 
  30   0.0000       0.905966        24.6526 
  31   0.0000       0.906059        24.6551 
  32   0.0000       0.921392        25.0723 
  33   0.0000       0.921395        25.0724 
  34   0.0000       1.031463        28.0675 
  35   0.0000       1.031676        28.0733 
  36   0.0000       1.031892        28.0792 
  37   0.0000       1.170150        31.8414 
  38   0.0000       1.220068        33.1997 
  39   0.0000       1.220176        33.2027 
  40   0.0000       1.220269        33.2052 
  41   0.0000       1.227403        33.3993 
  42   0.0000       1.227408        33.3995 
  43   0.0000       1.230244        33.4766 
  44   0.0000       1.230263        33.4772 
  45   0.0000       1.230298        33.4781 
  46   0.0000       1.233883        33.5757 
  47   0.0000       1.676182        45.6112 
  48   0.0000       1.691005        46.0146 
  49   0.0000       1.691272        46.0219 
  50   0.0000       1.691484        46.0276 
  51   0.0000       1.703260        46.3480 
  52   0.0000       1.703388        46.3516 
  53   0.0000       1.703478        46.3540 
  54   0.0000      19.839525       539.8609 
  55   0.0000      71.341133      1941.2909 

                    ********************************
                    * MULLIKEN POPULATION ANALYSIS *
                    ********************************

--------------------------------------------
MULLIKEN ATOMIC CHARGES AND SPIN POPULATIONS
--------------------------------------------
   0 Zr:   -0.000000    2.000000
Sum of atomic charges         :   -0.0000000
Sum of atomic spin populations:    2.0000000

-----------------------------------------------------
MULLIKEN REDUCED ORBITAL CHARGES AND SPIN POPULATIONS
-----------------------------------------------------
CHARGE
  0 Zrs       :     3.999727  s :     3.999727
      pz      :     1.999643  p :     5.998929
      px      :     1.999643
      py      :     1.999643
      dz2     :     0.221188  d :     1.999886
      dxz     :     0.777935
      dyz     :     0.256442
      dx2y2   :     0.236792
      dxy     :     0.507529
      f0      :     0.000042  f :     0.001071
      f+1     :     0.000249
      f-1     :     0.000145
      f+2     :     0.000120
      f-2     :     0.000242
      f+3     :     0.000218
      f-3     :     0.000054
      g0      :     0.000062  g :     0.000387
      g+1     :     0.000011
      g-1     :     0.000012
      g+2     :     0.000048
      g-2     :     0.000088
      g+3     :     0.000019
      g-3     :     0.000073
      g+4     :     0.000013
      g-4     :     0.000061

SPIN
  0 Zrs       :    -0.000082  s :    -0.000082
      pz      :    -0.000295  p :    -0.000887
      px      :    -0.000296
      py      :    -0.000296
      dz2     :     0.221168  d :     1.999793
      dxz     :     0.777929
      dyz     :     0.256405
      dx2y2   :     0.236792
      dxy     :     0.507499
      f0      :     0.000034  f :     0.000887
      f+1     :     0.000207
      f-1     :     0.000120
      f+2     :     0.000100
      f-2     :     0.000200
      f+3     :     0.000182
      f-3     :     0.000044
      g0      :     0.000057  g :     0.000289
      g+1     :     0.000009
      g-1     :     0.000011
      g+2     :     0.000028
      g-2     :     0.000047
      g+3     :     0.000010
      g-3     :     0.000073
      g+4     :     0.000010
      g-4     :     0.000044


                     *******************************
                     * LOEWDIN POPULATION ANALYSIS *
                     *******************************

-------------------------------------------
LOEWDIN ATOMIC CHARGES AND SPIN POPULATIONS
-------------------------------------------
   0 Zr:   -0.000000    2.000000

----------------------------------------------------
LOEWDIN REDUCED ORBITAL CHARGES AND SPIN POPULATIONS
----------------------------------------------------
CHARGE
  0 Zrs       :     3.999727  s :     3.999727
      pz      :     1.999643  p :     5.998929
      px      :     1.999643
      py      :     1.999643
      dz2     :     0.221188  d :     1.999886
      dxz     :     0.777935
      dyz     :     0.256442
      dx2y2   :     0.236792
      dxy     :     0.507529
      f0      :     0.000042  f :     0.001071
      f+1     :     0.000249
      f-1     :     0.000145
      f+2     :     0.000120
      f-2     :     0.000242
      f+3     :     0.000218
      f-3     :     0.000054
      g0      :     0.000062  g :     0.000387
      g+1     :     0.000011
      g-1     :     0.000012
      g+2     :     0.000048
      g-2     :     0.000088
      g+3     :     0.000019
      g-3     :     0.000073
      g+4     :     0.000013
      g-4     :     0.000061

SPIN
  0 Zrs       :    -0.000082  s :    -0.000082
      pz      :    -0.000295  p :    -0.000887
      px      :    -0.000296
      py      :    -0.000296
      dz2     :     0.221168  d :     1.999793
      dxz     :     0.777929
      dyz     :     0.256405
      dx2y2   :     0.236792
      dxy     :     0.507499
      f0      :     0.000034  f :     0.000887
      f+1     :     0.000207
      f-1     :     0.000120
      f+2     :     0.000100
      f-2     :     0.000200
      f+3     :     0.000182
      f-3     :     0.000044
      g0      :     0.000057  g :     0.000289
      g+1     :     0.000009
      g-1     :     0.000011
      g+2     :     0.000028
      g-2     :     0.000047
      g+3     :     0.000010
      g-3     :     0.000073
      g+4     :     0.000010
      g-4     :     0.000044


                      *****************************
                      * MAYER POPULATION ANALYSIS *
                      *****************************

  NA   - Mulliken gross atomic population
  ZA   - Total nuclear charge
  QA   - Mulliken gross atomic charge
  VA   - Mayer's total valence
  BVA  - Mayer's bonded valence
  FA   - Mayer's free valence

  ATOM       NA         ZA         QA         VA         BVA        FA
  0 Zr    12.0000    12.0000    -0.0000     2.0122     0.0000     2.0122

  Mayer bond orders larger than 0.100000


-------
TIMINGS
-------

Total SCF time: 0 days 0 hours 6 min 43 sec 

Total time                  ....     403.045 sec
Sum of individual times     ....     400.350 sec  ( 99.3%)

Fock matrix formation       ....     377.422 sec  ( 93.6%)
  XC integration            ....     349.808 sec  ( 92.7% of F)
    Basis function eval.    ....       0.046 sec  (  0.0% of XC)
    Density eval.           ....       0.069 sec  (  0.0% of XC)
    XC-Functional eval.     ....       0.111 sec  (  0.0% of XC)
    XC-Potential eval.      ....       0.080 sec  (  0.0% of XC)
Diagonalization             ....       5.094 sec  (  1.3%)
Density matrix formation    ....       0.420 sec  (  0.1%)
Population analysis         ....       0.200 sec  (  0.0%)
Initial guess               ....      14.508 sec  (  3.6%)
Orbital Transformation      ....       0.000 sec  (  0.0%)
Orbital Orthonormalization  ....       0.000 sec  (  0.0%)
DIIS solution               ....       0.964 sec  (  0.2%)
Grid generation             ....       1.741 sec  (  0.4%)


           ************************************************************
           *        Program running with 28 parallel MPI-processes    *
           *              working on a common directory               *
           ************************************************************

------------------------------------------------------------------------------
                                ORCA  MP2 
------------------------------------------------------------------------------

Freezing NCore=0 chemical core electrons

-------------
RI-MP2 ENERGY
-------------
Dimension of the basis                    ...   56
Memory devoted to MP2                     ... 5000 MB   
Data format for buffers                   ... DOUBLE
Compression type for matrix containers    ... UNCOMPRESSED
Overall scaling of the MP2 energy         ...   2.700e-01
Calculating two index integrals           ... done (    0.013 sec)
Cholesky decomposition of V**-1           ... done (    0.113 sec)

-----------------
RI-TRANSFORMATION (AUX index driven)
-----------------

Dimension of the orbital-basis         ... 56
Dimension of the aux-basis             ... 176
Transformation of internal/external MOs...    0-   6 to    7-  55
Number Format for Storage              ... Double (8 Byte)
Integral mode                          ... Direct

First Phase: integral generation and transformation of MO indices
  Aux angular momentum 0               ... done (    0.000 sec)
  Aux angular momentum 1               ... done (    0.002 sec)
  Aux angular momentum 2               ... done (    0.000 sec)
  Aux angular momentum 3               ... done (    0.000 sec)
  Aux angular momentum 4               ... done (    0.001 sec)
  Aux angular momentum 5               ... done (    0.001 sec)
  Aux angular momentum 6               ... done (    0.002 sec)
Closing buffer VIA ( 0.00 GB; CompressionRatio= 1.00)
  Phase 1 completed in     0.105 sec
Second Phase: sorting and transformation of aux index

IA-Transformation
Memory available                       ... 5000 MB 
Max. # MO pairs treated in a batch     ... 1    
# of internal orbitals                 ... 7
# batches for internal orbitals        ... 1
Closing buffer IAV ( 0.00 GB; CompressionRatio= 1.00)
(ia|v) transformation done in     0.021 sec

  Phase 2 completed in     0.068 sec
RI-Integral transformation completed in     0.182 sec

-----------------
RI-TRANSFORMATION (AUX index driven)
-----------------

Dimension of the orbital-basis         ... 56
Dimension of the aux-basis             ... 176
Transformation of internal/external MOs...    0-   4 to    5-  55
Number Format for Storage              ... Double (8 Byte)
Integral mode                          ... Direct

First Phase: integral generation and transformation of MO indices
  Aux angular momentum 0               ... done (    0.000 sec)
  Aux angular momentum 1               ... done (    0.002 sec)
  Aux angular momentum 2               ... done (    0.000 sec)
  Aux angular momentum 3               ... done (    0.000 sec)
  Aux angular momentum 4               ... done (    0.001 sec)
  Aux angular momentum 5               ... done (    0.001 sec)
  Aux angular momentum 6               ... done (    0.002 sec)
Closing buffer VIA ( 0.00 GB; CompressionRatio= 0.99)
  Phase 1 completed in     0.091 sec
Second Phase: sorting and transformation of aux index

IA-Transformation
Memory available                       ... 5000 MB 
Max. # MO pairs treated in a batch     ... 1    
# of internal orbitals                 ... 5
# batches for internal orbitals        ... 1
Closing buffer IAV ( 0.00 GB; CompressionRatio= 1.00)
(ia|v) transformation done in     0.021 sec

  Phase 2 completed in     0.095 sec
RI-Integral transformation completed in     0.201 sec
Opening buffers                              ... done

Starting loop over batches of integrals:

Operator 0  - window                       ... (  0-  6)x(  7- 55)
Operator 0  - Memory available             ...  5000 MB
Operator 0  - Memory needed per MO         ...   0.1 MB
Operator 0  - Number of orbitals per batch ... 1
Operator 0  - Number of batches            ... 1

OPERATOR  0   PASS   0:  MOs     0 ...    0 +    1 ...    1 +    2 ...    2 +    3 ...    3
                            +    4 ...    4 +    5 ...    5 +    6 ...    6
  Reading integrals       ... ok

Operator 1  - window                       ... (  0-  4)x(  5- 55)
Operator 1  - Memory available             ...  5000 MB
Operator 1  - Memory needed per MO         ...   0.1 MB
Operator 1  - Number of orbitals per batch ... 1
Operator 1  - Number of batches            ... 1

OPERATOR  1   PASS   0:  MOs     0 ...    0 +    1 ...    1 +    2 ...    2 +    3 ...    3
                            +    4 ...    4
  Reading integrals       ... ok
Time spent in pair loops =     0.006 sec

Correlation energy components}
 E2 and T2 for alpha/alpha pairs :     -0.015083708 Eh      0.000000000
 E2 and T2 for beta/beta   pairs :     -0.009286268 Eh      0.000000000
 E2 and T2 for alpha/beta  pairs :     -0.060334413 Eh      0.000000000


-----------------------------------------------
 RI-MP2 CORRELATION ENERGY:     -0.084704389 Eh
-----------------------------------------------


-------
TIMINGS
-------

Total time                :    0.592 sec
Integral trafo            :    0.422 sec ( 71.3%)
I/O of integrals          :    0.002 sec (  0.3%)
K(i,j) Operators          :    0.000 sec (  0.1%)
T(i,j) pair energies      :    0.000 sec (  0.0%)
V-calculation             :    0.013 sec (  2.2%)
V**(-1/2)                 :    0.113 sec ( 19.1%)
Gamma(ia|P)               :    0.000 sec (  0.0%)
Gamma-Trafo               :    0.000 sec (  0.0%)
D(virtual)                :    0.000 sec (  0.0%)
D(internal)               :    0.000 sec (  0.0%)
W(virtual)                :    0.000 sec (  0.0%)
W(internal)               :    0.000 sec (  0.0%)
L(virtual)                :    0.000 sec (  0.0%)
L(internal)               :    0.000 sec (  0.0%)
G(D)                      :    0.000 sec (  0.0%)
G(Z)                      :    0.000 sec (  0.0%)
Z-Vector Solution         :    0.000 sec (  0.0%)
Z-Vector Solution         :    0.000 sec (  0.0%)
3-Index Derivative 
+ Separable RIJ part      :    0.000 sec (  0.0%)
2-Index Derivative 
+ Separable RIJ part      :    0.000 sec (  0.0%)
Separable Gradient (X)    :    0.000 sec (  0.0%)


---------------------------------------
MP2 TOTAL ENERGY:      -46.815060659 Eh
---------------------------------------


-------------------------------------------------------------------------------
                          DFT DISPERSION CORRECTION                            
                                                                               
                              DFTD3 V3.1  Rev 1                                
                          USING Becke-Johnson damping                          
-------------------------------------------------------------------------------
The B2PLYP functional is recognized
Active option DFTDOPT                   ...         4   

molecular C6(AA) [au] = 1822.717581 


            DFT-D V3
 parameters
 s6 scaling factor         :     0.6400 
 a1 scaling factor         :     0.3065 
 s8 scaling factor         :     0.9147 
 a2 scaling factor         :     5.0570 
 ad hoc parameters k1-k3   :    16.0000     1.3333    -4.0000 

 Edisp/kcal,au: -0.000000000000  -0.000000000000 
 E6   /kcal   :  -0.000000000 
 E8   /kcal   :  -0.000000000 
 % E8         :          -nan 

-------------------------   ----------------
Dispersion correction            0.000000000
-------------------------   ----------------


-------------------------   --------------------
FINAL SINGLE POINT ENERGY       -46.815060658665
-------------------------   --------------------


                            ***************************************
                            *     ORCA property calculations      *
                            ***************************************


  WARNING: The energy has been calculated at the MP2 level but the densities
           used in the property calculations are still SCF densities
           MP2 response densities have not been calculated 
           use %mp2 Density relaxed end
           or  %mp2 Density unrelaxed end

                                    ---------------------
                                    Active property flags
                                    ---------------------
   (+) Dipole Moment


------------------------------------------------------------------------------
                       ORCA ELECTRIC PROPERTIES CALCULATION
------------------------------------------------------------------------------

Dipole Moment Calculation                       ... on
Quadrupole Moment Calculation                   ... off
Polarizability Calculation                      ... off
GBWName                                         ... Zr.gbw
Electron density file                           ... Zr.scfp
The origin for moment calculation is the CENTER OF MASS  = ( 0.000000,  0.000000  0.000000)

-------------
DIPOLE MOMENT
-------------
                                X             Y             Z
Electronic contribution:      0.00000       0.00000       0.00000
Nuclear contribution   :      0.00000       0.00000       0.00000
                        -----------------------------------------
Total Dipole Moment    :      0.00000       0.00000       0.00000
                        -----------------------------------------
Magnitude (a.u.)       :      0.00000
Magnitude (Debye)      :      0.00000



--------------------
Rotational spectrum 
--------------------
 
Rotational constants in cm-1:     0.000000     0.000000     0.000000 
Rotational constants in MHz :     0.000000     0.000000     0.000000 

 Dipole components along the rotational axes: 
x,y,z [a.u.] :     0.000000     0.000000     0.000000 
x,y,z [Debye]:     0.000000     0.000000     0.000001 

 

Timings for individual modules:

Sum of individual times         ...      417.410 sec (=   6.957 min)
GTO integral calculation        ...        7.923 sec (=   0.132 min)   1.9 %
SCF iterations                  ...      405.582 sec (=   6.760 min)  97.2 %
MP2 module                      ...        3.906 sec (=   0.065 min)   0.9 %
                             ****ORCA TERMINATED NORMALLY****
TOTAL RUN TIME: 0 days 0 hours 7 minutes 0 seconds 851 msec
