
                                 *****************
                                 * O   R   C   A *
                                 *****************

           --- An Ab Initio, DFT and Semiempirical electronic structure package ---

                  #######################################################
                  #                        -***-                        #
                  #          Department of theory and spectroscopy      #
                  #               Directorship: Frank Neese             #
                  #        Max Planck Institute fuer Kohlenforschung    #
                  #                Kaiser Wilhelm Platz 1               #
                  #                 D-45470 Muelheim/Ruhr               #
                  #                      Germany                        #
                  #                                                     #
                  #                  All rights reserved                #
                  #                        -***-                        #
                  #######################################################


                         Program Version 4.2.0 -  RELEASE  -


 With contributions from (in alphabetic order):
   Daniel Aravena         : Magnetic Suceptibility
   Michael Atanasov       : Ab Initio Ligand Field Theory (pilot matlab implementation)
   Alexander A. Auer      : GIAO ZORA, VPT2
   Ute Becker             : Parallelization
   Giovanni Bistoni       : ED, misc. LED, open-shell LED, HFLED
   Martin Brehm           : Molecular dynamics
   Dmytro Bykov           : SCF Hessian
   Vijay G. Chilkuri      : MRCI spin determinant printing, contributions to CSF-ICE
   Dipayan Datta          : RHF DLPNO-CCSD density
   Achintya Kumar Dutta   : EOM-CC, STEOM-CC
   Dmitry Ganyushin       : Spin-Orbit,Spin-Spin,Magnetic field MRCI
   Miquel Garcia          : C-PCM Hessian, Gaussian charge scheme
   Yang Guo               : DLPNO-NEVPT2, CIM, IAO-localization
   Andreas Hansen         : Spin unrestricted coupled pair/coupled cluster methods
   Benjamin Helmich-Paris : CASSCF linear response (MC-RPA)
   Lee Huntington         : MR-EOM, pCC
   Robert Izsak           : Overlap fitted RIJCOSX, COSX-SCS-MP3, EOM
   Christian Kollmar      : KDIIS, OOCD, Brueckner-CCSD(T), CCSD density
   Simone Kossmann        : Meta GGA functionals, TD-DFT gradient, OOMP2, MP2 Hessian
   Martin Krupicka        : AUTO-CI
   Lucas Lang             : DCDCAS
   Dagmar Lenk            : GEPOL surface, SMD
   Dimitrios Liakos       : Extrapolation schemes; Compound Job, initial MDCI parallelization
   Dimitrios Manganas     : Further ROCIS development; embedding schemes
   Dimitrios Pantazis     : SARC Basis sets
   Taras Petrenko         : DFT Hessian,TD-DFT gradient, ASA, ECA, R-Raman, ABS, FL, XAS/XES, NRVS
   Peter Pinski           : DLPNO-MP2, DLPNO-MP2 Gradient
   Christoph Reimann      : Effective Core Potentials
   Marius Retegan         : Local ZFS, SOC
   Christoph Riplinger    : Optimizer, TS searches, QM/MM, DLPNO-CCSD(T), (RO)-DLPNO pert. Triples
   Tobias Risthaus        : Range-separated hybrids, TD-DFT gradient, RPA, STAB
   Michael Roemelt        : Original ROCIS implementation
   Masaaki Saitow         : Open-shell DLPNO-CCSD energy and density
   Barbara Sandhoefer     : DKH picture change effects
   Avijit Sen             : IP-ROCIS
   Kantharuban Sivalingam : CASSCF convergence, NEVPT2, FIC-MRCI
   Bernardo de Souza      : ESD, SOC TD-DFT
   Georgi Stoychev        : AutoAux, RI-MP2 NMR
   Willem Van den Heuvel  : Paramagnetic NMR
   Boris Wezisla          : Elementary symmetry handling
   Frank Wennmohs         : Technical directorship


 We gratefully acknowledge several colleagues who have allowed us to
 interface, adapt or use parts of their codes:
   Stefan Grimme, W. Hujo, H. Kruse,             : VdW corrections, initial TS optimization,
                  C. Bannwarth                     DFT functionals, gCP, sTDA/sTD-DF
   Ed Valeev, F. Pavosevic, A. Kumar             : LibInt (2-el integral package), F12 methods
   Garnet Chan, S. Sharma, J. Yang, R. Olivares  : DMRG
   Ulf Ekstrom                                   : XCFun DFT Library
   Mihaly Kallay                                 : mrcc  (arbitrary order and MRCC methods)
   Andreas Klamt, Michael Diedenhofen            : otool_cosmo (COSMO solvation model)
   Jiri Pittner, Ondrej Demel                    : Mk-CCSD
   Frank Weinhold                                : gennbo (NPA and NBO analysis)
   Christopher J. Cramer and Donald G. Truhlar   : smd solvation model
   Lars Goerigk                                  : TD-DFT with DH, B97 family of functionals
   V. Asgeirsson, H. Jonsson                     : NEB implementation
   FAccTs GmbH                                   : IRC, NEB, NEB-TS, Multilevel, MM, QM/MM, CI optimization
   S Lehtola, MJT Oliveira, MAL Marques          : LibXC Library


 Your calculation uses the libint2 library for the computation of 2-el integrals
 For citations please refer to: http://libint.valeyev.net

 Your ORCA version has been built with support for libXC version: 4.2.3
 For citations please refer to: https://tddft.org/programs/libxc/

 This ORCA versions uses:
   CBLAS   interface :  Fast vector & matrix operations
   LAPACKE interface :  Fast linear algebra routines
   SCALAPACK package :  Parallel linear algebra routines


Your calculation utilizes the atom-pairwise dispersion correction
with the Becke-Johnson damping scheme (D3BJ)
Cite in your paper:
S.Grimme, S.Ehrlich, L.Goerigk, J Comput Chem, (2011), 32, 1456–1465 
S.Grimme, J.Antony, S.Ehrlich and H.Krieg, J.Chem.Phys., 132, (2010), 154104 
   

----- Orbital basis set information -----
Your calculation utilizes the basis: def2-TZVPPD
   F. Weigend and R. Ahlrichs, Phys. Chem. Chem. Phys. 7, 3297 (2005).
   D. Rappoport and F. Furche, J. Chem. Phys. 133 134105 (2010).

----- AuxC basis set information -----
Your calculation utilizes the auxiliary basis: def2-TZVPPD/C
   A. Hellweg, C. Hattig, S. Hofener and W. Klopper, Theor. Chem. Acc. 117, 587 (2007).

----- AuxJK basis set information -----
Your calculation utilizes the auxiliary basis: def2/JK
   H-Ba, Hf-Rn: F. Weigend, J. Comput. Chem. 29, 167 (2008).

cite the ECPs for Zr [Def2-ECP] as follows:
Ce-Yb(ecp-28): M. Dolg, H. Stoll, H.Preuss, J. Chem. Phys., 1989, 90, 1730-1734.
Y-Cd(ecp-28), Hf-Hg(ecp-46): D. Andrae,U. Haeussermann, M. Dolg, H. Stoll, H. Preuss, Theor. Chim. Acta, 1990, 77, 123-141.
In-Sb(ecp-28), Tl-Bi(ecp-46): B. Metz, H. Stoll, M. Dolg, J. Chem. Phys., 2000, 113, 2563-2569.
Te-Xe(ecp-28), Po-Rn(ecp-46): K. A. Peterson, D. Figgen, E. Goll, H. Stoll, M. Dolg, J. Chem. Phys., 2003, 119, 11113-11123.
Rb(ecp-28), Cs(ecp-46): T. Leininger, A. Nicklass, W. Kuechle, H. Stoll, M. Dolg, A. Bergner, Chem. Phys. Lett., 1996, 255, 274-280.
Sr(ecp-28), Ba(ecp-46): M. Kaupp, P. V. Schleyer, H. Stoll and H. Preuss, J. Chem. Phys., 1991, 94, 1360-1366.
La(ecp-46): M. Dolg, H. Stoll, A. Savin, H. Preuss, Theor. Chim. Acta, 1989, 75, 173-194.
Lu(ecp-28): X. Cao, M. Dolg, J. Chem. Phys., 2001, 115, 7348-7355.

ECP parameters for Zr [Def2-ECP] have been obtained from:
TURBOMOLE (7.0.2)

================================================================================
                                        WARNINGS
                       Please study these warnings very carefully!
================================================================================


WARNING: your system is open-shell and RHF/RKS was chosen
  ===> : WILL SWITCH to UHF/UKS


WARNING: No MP2 level density has been requested!
         To caclulate MP2 level properties use
         %mp2 Density relaxed end
         or
         %mp2 Density unrelaxed end
         Otherwise for double-hybrid DFT only the energy is correct!

WARNING: The frozen-core approximation is turned on by default for 
         the MP2 part of double-hybrid DFT.

INFO   : the flag for use of LIBINT has been found!

================================================================================
                                       INPUT FILE
================================================================================
NAME = Zr2.in
|  1> #
|  2> # Zr2 ri-B2PLYP-D3BJ/Def2-TZVPPD
|  3> #
|  4> ! rijk ri-b2plyp d3bj def2-tzvppd def2/jk def2-tzvppd/c grid4 nofinalgrid
|  5> 
|  6> *xyz 0 3
|  7> Zr         0.00000        0.00000        0.00000
|  8> Zr         0.00000        0.00000        2.24000
|  9> *
| 10> 
| 11> %maxcore 5000
| 12> 
| 13> %pal
| 14> nprocs = 28
| 15> end
| 16> 
| 17> 
| 18>                          ****END OF INPUT****
================================================================================

                       ****************************
                       * Single Point Calculation *
                       ****************************

---------------------------------
CARTESIAN COORDINATES (ANGSTROEM)
---------------------------------
  Zr     0.000000    0.000000    0.000000
  Zr     0.000000    0.000000    2.240000

----------------------------
CARTESIAN COORDINATES (A.U.)
----------------------------
  NO LB      ZA    FRAG     MASS         X           Y           Z
   0 Zr   12.0000*   0    91.220    0.000000    0.000000    0.000000
   1 Zr   12.0000*   0    91.220    0.000000    0.000000    4.232987
* core charge reduced due to ECP

--------------------------------
INTERNAL COORDINATES (ANGSTROEM)
--------------------------------
 Zr     0   0   0     0.000000000000     0.00000000     0.00000000
 Zr     1   0   0     2.240000000000     0.00000000     0.00000000

---------------------------
INTERNAL COORDINATES (A.U.)
---------------------------
 Zr     0   0   0     0.000000000000     0.00000000     0.00000000
 Zr     1   0   0     4.232986539984     0.00000000     0.00000000

---------------------
BASIS SET INFORMATION
---------------------
There are 1 groups of distinct atoms

 Group   1 Type Zr  : 7s7p5d2f1g contracted to 6s4p3d2f1g pattern {211111/4111/311/11/1}

Atom   0Zr   basis set group =>   1
Atom   1Zr   basis set group =>   1
---------------------------------
AUXILIARY/C BASIS SET INFORMATION
---------------------------------
There are 1 groups of distinct atoms

 Group   1 Type Zr  : 8s7p6d5f4g3h1i contracted to 8s7p6d5f4g3h1i pattern {11111111/1111111/111111/11111/1111/111/1}

Atom   0Zr   basis set group =>   1
Atom   1Zr   basis set group =>   1
----------------------------------
AUXILIARY/JK BASIS SET INFORMATION
----------------------------------
There are 1 groups of distinct atoms

 Group   1 Type Zr  : 13s12p10d9f6g3h2i contracted to 11s10p9d8f6g3h2i pattern {31111111111/3111111111/211111111/21111111/111111/111/11}

Atom   0Zr   basis set group =>   1
Atom   1Zr   basis set group =>   1
-------------------------
ECP PARAMETER INFORMATION
-------------------------

 Group 1, Type Zr ECP Def2-ECP (replacing 28 core electrons, lmax=3)

Atom   0Zr   ECP group =>   1
Atom   1Zr   ECP group =>   1



           ************************************************************
           *        Program running with 28 parallel MPI-processes    *
           *              working on a common directory               *
           ************************************************************
------------------------------------------------------------------------------
                           ORCA GTO INTEGRAL CALCULATION
                           -- RI-GTO INTEGRALS CHOSEN --
------------------------------------------------------------------------------

                         BASIS SET STATISTICS AND STARTUP INFO

Gaussian basis set:
 # of primitive gaussian shells          ...   44
 # of primitive gaussian functions       ...  152
 # of contracted shells                  ...   32
 # of contracted basis functions         ...  112
 Highest angular momentum                ...    4
 Maximum contraction depth               ...    4
Auxiliary gaussian basis set:
 # of primitive gaussian shells          ...  110
 # of primitive gaussian functions       ...  550
 # of contracted shells                  ...   98
 # of contracted aux-basis functions     ...  510
 Highest angular momentum                ...    6
 Maximum contraction depth               ...    3
Ratio of auxiliary to basis functions    ...  4.55
Integral package used                  ... LIBINT
 One Electron integrals                  
   ECP integrals                         ... done
 Ordering auxiliary basis shells         ... done
 Integral threshhold             Thresh  ...  1.000e-10
 Primitive cut-off               TCut    ...  1.000e-11
 Pre-screening matrix                    ... done
 Shell pair data                         ... 
 Ordering of the shell pairs             ... done (   0.000 sec) 524 of 528 pairs
 Determination of significant pairs      ... done (   0.000 sec)
 Creation of shell pair data             ... done (   0.000 sec)
 Storage of shell pair data              ... done (   0.089 sec)
 Shell pair data done in (   0.089 sec)
 Computing two index integrals           ... done
 Cholesky decomposition of the V-matrix  ... done


Timings:
 Total evaluation time                   ...   1.249 sec (  0.021 min)
 One electron matrix time                ...   0.609 sec (  0.010 min) = 48.7%
 Schwartz matrix evaluation time         ...   0.124 sec (  0.002 min) =  9.9%
 Two index repulsion integral time       ...   0.187 sec (  0.003 min) = 15.0%
 Cholesky decomposition of V             ...   0.162 sec (  0.003 min) = 12.9%
 Three index repulsion integral time     ...   0.000 sec (  0.000 min) =  0.0%



           ************************************************************
           *        Program running with 28 parallel MPI-processes    *
           *              working on a common directory               *
           ************************************************************
-------------------------------------------------------------------------------
                                 ORCA SCF
-------------------------------------------------------------------------------

------------
SCF SETTINGS
------------
Hamiltonian:
 Density Functional     Method          .... DFT(GTOs)
 Exchange Functional    Exchange        .... B88
   X-Alpha parameter    XAlpha          ....  0.666667
   Becke's b parameter  XBeta           ....  0.004200
 Correlation Functional Correlation     .... LYP
 LDA part of GGA corr.  LDAOpt          .... VWN-3
 Gradients option       PostSCFGGA      .... off
 Hybrid DFT is turned on
   Fraction HF Exchange ScalHFX         ....  0.530000
   Scaling of DF-GGA-X  ScalDFX         ....  0.470000
   Scaling of DF-GGA-C  ScalDFC         ....  0.730000
   Scaling of DF-LDA-C  ScalLDAC        ....  0.730000
   Perturbative correction              ....  0.270000
   Density functional embedding theory  .... OFF
 RI-approximation to the Coulomb term is turned on
   Number of auxiliary basis functions  .... 510
   RI-JK (J+K treated both via RI)      .... on


General Settings:
 Integral files         IntName         .... Zr2
 Hartree-Fock type      HFTyp           .... UHF
 Total Charge           Charge          ....    0
 Multiplicity           Mult            ....    3
 Number of Electrons    NEL             ....   24
 Basis Dimension        Dim             ....  112
 Nuclear Repulsion      ENuc            ....     34.0185348193 Eh

Convergence Acceleration:
 DIIS                   CNVDIIS         .... on
   Start iteration      DIISMaxIt       ....    12
   Startup error        DIISStart       ....  0.200000
   # of expansion vecs  DIISMaxEq       ....     5
   Bias factor          DIISBfac        ....   1.050
   Max. coefficient     DIISMaxC        ....  10.000
 Newton-Raphson         CNVNR           .... off
 SOSCF                  CNVSOSCF        .... off
 Level Shifting         CNVShift        .... on
   Level shift para.    LevelShift      ....    0.2500
   Turn off err/grad.   ShiftErr        ....    0.0010
 Zerner damping         CNVZerner       .... off
 Static damping         CNVDamp         .... on
   Fraction old density DampFac         ....    0.7000
   Max. Damping (<1)    DampMax         ....    0.9800
   Min. Damping (>=0)   DampMin         ....    0.0000
   Turn off err/grad.   DampErr         ....    0.1000
 Fernandez-Rico         CNVRico         .... off

SCF Procedure:
 Maximum # iterations   MaxIter         ....   125
 SCF integral mode      SCFMode         .... Direct
   Integral package                     .... LIBINT
 Reset frequency        DirectResetFreq ....    20
 Integral Threshold     Thresh          ....  1.000e-10 Eh
 Primitive CutOff       TCut            ....  1.000e-11 Eh

Convergence Tolerance:
 Convergence Check Mode ConvCheckMode   .... Total+1el-Energy
 Convergence forced     ConvForced      .... 0
 Energy Change          TolE            ....  1.000e-06 Eh
 1-El. energy change                    ....  1.000e-03 Eh
 DIIS Error             TolErr          ....  1.000e-06


Diagonalization of the overlap matrix:
Smallest eigenvalue                        ... 1.502e-04
Time for diagonalization                   ...    0.008 sec
Threshold for overlap eigenvalues          ... 1.000e-08
Number of eigenvalues below threshold      ... 0
Time for construction of square roots      ...    0.164 sec
Total time needed                          ...    0.172 sec

-------------------
DFT GRID GENERATION
-------------------

General Integration Accuracy     IntAcc      ...  4.670
Radial Grid Type                 RadialGrid  ... Gauss-Chebyshev
Angular Grid (max. acc.)         AngularGrid ... Lebedev-302
Angular grid pruning method      GridPruning ... 3 (G Style)
Weight generation scheme         WeightScheme... Becke
Basis function cutoff            BFCut       ...    1.0000e-10
Integration weight cutoff        WCut        ...    1.0000e-14
Grids for H and He will be reduced by one unit

# of grid points (after initial pruning)     ...  21364 (   0.0 sec)
# of grid points (after weights+screening)   ...  21326 (   0.0 sec)
nearest neighbour list constructed           ...    0.0 sec
Grid point re-assignment to atoms done       ...    0.0 sec
Grid point division into batches done        ...    0.2 sec
Reduced shell lists constructed in    0.2 sec

Total number of grid points                  ...    21326
Total number of batches                      ...      334
Average number of points per batch           ...       63
Average number of grid points per atom       ...    10663
Average number of shells per batch           ...     3.15 ( 9.86%)
Average number of basis functions per batch  ...     7.15 ( 6.39%)
Average number of large shells per batch     ...     2.31 (73.17%)
Average number of large basis fcns per batch ...     5.08 (70.97%)
Average number of aux-shells per batch       ...     3.15 ( 3.22%)
Average number of aux functions per batch    ...     7.15 ( 1.40%)
Maximum spatial batch extension              ...  31.14, 31.14, 19.99 au
Average spatial batch extension              ...   0.86,  0.86,  0.64 au

Time for grid setup =    4.319 sec

------------------------------
INITIAL GUESS: MODEL POTENTIAL
------------------------------
Loading Hartree-Fock densities                     ... done
  calling /mnt/storage/software/apps/orca-4.2.0/orca_4_2_0_linux_x86-64_openmpi314/orca Zr2_atom40.inp > Zr2_atom40.out in order to generate an atomic fitting density for atom 0 (Zr with ECP) on-the-fly... 
    atom 0 (Zr), assumed electronic state with S=3: 1s2 2s2 2p6 3s2 3p6 4s2 3d10 4p6 4d2 5s2           ... done
Calculating cut-offs                               ... done
Setting up the integral package                    ... done
Initializing the effective Hamiltonian             ... done
Starting the Coulomb interaction                   ... done (   0.0 sec)
Reading the grid                                   ... done
Mapping shells                                     ... done
Starting the XC term evaluation                    ... done (   0.0 sec)
  promolecular density results
     # of electrons  =     80.000622817
     EX              =   -221.259001948
     EC              =     -1.475422260
     EX+EC           =   -222.734424209
Transforming the Hamiltonian                       ... done (   0.1 sec)
Diagonalizing the Hamiltonian                      ... done (   0.0 sec)
Back transforming the eigenvectors                 ... done (   0.0 sec)
Now organizing SCF variables                       ... done
                      ------------------
                      INITIAL GUESS DONE (  34.3 sec)
                      ------------------
--------------
SCF ITERATIONS
--------------
ITER       Energy         Delta-E        Max-DP      RMS-DP      [F,P]     Damp
  0    -92.2199236277   0.000000000000 0.14533164  0.00455827  0.4592456 0.7000
  1    -92.2663652421  -0.046441614389 0.09628028  0.00316535  0.3088274 0.7000
                               ***Turning on DIIS***
  2    -92.5975769306  -0.331211688438 0.03796775  0.00160372  0.1858667 0.7000
  3    -92.8850367384  -0.287459807874 0.03485504  0.00121913  0.1115724 0.7000
  4    -93.0981066840  -0.213069945584 0.10747152  0.00436393  0.0950954 0.0000
  5    -93.4231865305  -0.325079846482 0.03235842  0.00108489  0.0394633 0.0000
  6    -93.4390011570  -0.015814626467 0.02054497  0.00069493  0.0243738 0.0000
  7    -93.4450412873  -0.006040130285 0.01352924  0.00047526  0.0126643 0.0000
  8    -93.4478336845  -0.002792397215 0.00756926  0.00030296  0.0075422 0.0000
  9    -93.4491418680  -0.001308183472 0.00535213  0.00023270  0.0059219 0.0000
 10    -93.4500836375  -0.000941769498 0.00646284  0.00022305  0.0051916 0.0000
 11    -93.4508943251  -0.000810687628 0.00611431  0.00019117  0.0043404 0.0000
 12    -93.4514700956  -0.000575770553 0.00555083  0.00016634  0.0033552 0.0000
 13    -93.4518615319  -0.000391436252 0.00468253  0.00014030  0.0024528 0.0000
 14    -93.4521100799  -0.000248548045 0.00334342  0.00010216  0.0017040 0.0000
 15    -93.4522437953  -0.000133715404 0.00223694  0.00007047  0.0012573 0.0000
 16    -93.4523190163  -0.000075220996 0.00421476  0.00014566  0.0007090 0.0000
 17    -93.4524193155  -0.000100299125 0.00063238  0.00002820  0.0001723 0.0000
 18    -93.4524328029  -0.000013487471 0.00082015  0.00003623  0.0000872 0.0000
 19    -93.4524475431  -0.000014740132 0.00085782  0.00003362  0.0001205 0.0000
 20    -93.4524585101  -0.000010967084 0.00108217  0.00004345  0.0000755 0.0000
 21    -93.4524688428  -0.000010332694 0.00065393  0.00002641  0.0000658 0.0000
 22    -93.4524729731  -0.000004130236 0.00047041  0.00001846  0.0001659 0.0000
 23    -93.4524749114  -0.000001938319 0.00064594  0.00002605  0.0000478 0.0000
 24    -93.4524762447  -0.000001333332 0.00012351  0.00000501  0.0000175 0.0000
                 **** Energy Check signals convergence ****

               *****************************************************
               *                     SUCCESS                       *
               *           SCF CONVERGED AFTER  25 CYCLES          *
               *****************************************************


----------------
TOTAL SCF ENERGY
----------------

Total Energy       :          -93.45247633 Eh           -2542.97116 eV

Components:
Nuclear Repulsion  :           34.01853482 Eh             925.69139 eV
Electronic Energy  :         -127.47101115 Eh           -3468.66256 eV
One Electron Energy:         -224.85819557 Eh           -6118.70257 eV
Two Electron Energy:           97.38718442 Eh            2650.04001 eV

Virial components:
Potential Energy   :         -124.56114845 Eh           -3389.48117 eV
Kinetic Energy     :           31.10867212 Eh             846.51000 eV
Virial Ratio       :            4.00406510


DFT components:
N(Alpha)           :       12.999999751502 electrons
N(Beta)            :       11.000000558850 electrons
N(Total)           :       24.000000310351 electrons
E(X)               :       -5.195963153223 Eh       
E(C)               :       -0.525378731647 Eh       
E(XC)              :       -5.721341884870 Eh       
DFET-embed. en.    :        0.000000000000 Eh       

---------------
SCF CONVERGENCE
---------------

  Last Energy change         ...   -8.7870e-08  Tolerance :   1.0000e-06
  Last MAX-Density change    ...    3.9923e-05  Tolerance :   1.0000e-05
  Last RMS-Density change    ...    1.6121e-06  Tolerance :   1.0000e-06
  Last DIIS Error            ...    1.3203e-05  Tolerance :   1.0000e-06

             **** THE GBW FILE WAS UPDATED (Zr2.gbw) ****
             **** DENSITY FILE WAS UPDATED (Zr2.scfp) ****
             **** ENERGY FILE WAS UPDATED (Zr2.en.tmp) ****
----------------------
UHF SPIN CONTAMINATION
----------------------

Warning: in a DFT calculation there is little theoretical justification to 
         calculate <S**2> as in Hartree-Fock theory. We will do it anyways
         but you should keep in mind that the values have only limited relevance

Expectation value of <S**2>     :     2.256955
Ideal value S*(S+1) for S=1.0   :     2.000000
Deviation                       :     0.256955

             **** THE GBW FILE WAS UPDATED (Zr2.gbw) ****
             **** DENSITY FILE WAS UPDATED (Zr2.scfp) ****
----------------
ORBITAL ENERGIES
----------------
                 SPIN UP ORBITALS
  NO   OCC          E(Eh)            E(eV) 
   0   1.0000      -2.258059       -61.4449 
   1   1.0000      -2.224401       -60.5290 
   2   1.0000      -1.389537       -37.8112 
   3   1.0000      -1.334000       -36.3000 
   4   1.0000      -1.334000       -36.3000 
   5   1.0000      -1.303752       -35.4769 
   6   1.0000      -1.303752       -35.4769 
   7   1.0000      -1.242574       -33.8122 
   8   1.0000      -0.210221        -5.7204 
   9   1.0000      -0.210221        -5.7204 
  10   1.0000      -0.191523        -5.2116 
  11   1.0000      -0.144862        -3.9419 
  12   1.0000      -0.144861        -3.9419 
  13   0.0000      -0.043136        -1.1738 
  14   0.0000      -0.033422        -0.9095 
  15   0.0000      -0.010094        -0.2747 
  16   0.0000      -0.010094        -0.2747 
  17   0.0000       0.020454         0.5566 
  18   0.0000       0.020454         0.5566 
  19   0.0000       0.026645         0.7251 
  20   0.0000       0.026646         0.7251 
  21   0.0000       0.045592         1.2406 
  22   0.0000       0.048415         1.3174 
  23   0.0000       0.100047         2.7224 
  24   0.0000       0.102886         2.7997 
  25   0.0000       0.102886         2.7997 
  26   0.0000       0.105874         2.8810 
  27   0.0000       0.149456         4.0669 
  28   0.0000       0.149456         4.0669 
  29   0.0000       0.173400         4.7185 
  30   0.0000       0.180889         4.9222 
  31   0.0000       0.196415         5.3447 
  32   0.0000       0.196415         5.3447 
  33   0.0000       0.214283         5.8309 
  34   0.0000       0.214283         5.8309 
  35   0.0000       0.240236         6.5372 
  36   0.0000       0.240236         6.5372 
  37   0.0000       0.243598         6.6286 
  38   0.0000       0.243598         6.6286 
  39   0.0000       0.277456         7.5500 
  40   0.0000       0.282142         7.6775 
  41   0.0000       0.286229         7.7887 
  42   0.0000       0.286229         7.7887 
  43   0.0000       0.489058        13.3080 
  44   0.0000       0.489058        13.3080 
  45   0.0000       0.502601        13.6765 
  46   0.0000       0.502601        13.6765 
  47   0.0000       0.561924        15.2907 
  48   0.0000       0.605022        16.4635 
  49   0.0000       0.605022        16.4635 
  50   0.0000       0.649616        17.6769 
  51   0.0000       0.663873        18.0649 
  52   0.0000       0.663873        18.0649 
  53   0.0000       0.724373        19.7112 
  54   0.0000       0.724947        19.7268 
  55   0.0000       0.724947        19.7268 
  56   0.0000       0.738074        20.0840 
  57   0.0000       0.738075        20.0840 
  58   0.0000       0.916635        24.9429 
  59   0.0000       0.916641        24.9431 
  60   0.0000       0.917076        24.9549 
  61   0.0000       0.917076        24.9549 
  62   0.0000       0.942779        25.6543 
  63   0.0000       0.954375        25.9699 
  64   0.0000       0.954375        25.9699 
  65   0.0000       1.002484        27.2790 
  66   0.0000       1.002490        27.2791 
  67   0.0000       1.057931        28.7878 
  68   0.0000       1.057931        28.7878 
  69   0.0000       1.068094        29.0643 
  70   0.0000       1.100785        29.9539 
  71   0.0000       1.162269        31.6269 
  72   0.0000       1.162269        31.6269 
  73   0.0000       1.199667        32.6446 
  74   0.0000       1.199668        32.6446 
  75   0.0000       1.217490        33.1296 
  76   0.0000       1.274384        34.6778 
  77   0.0000       1.274385        34.6778 
  78   0.0000       1.302434        35.4410 
  79   0.0000       1.302434        35.4410 
  80   0.0000       1.303231        35.4627 
  81   0.0000       1.303232        35.4628 
  82   0.0000       1.412154        38.4267 
  83   0.0000       1.412154        38.4267 
  84   0.0000       1.430333        38.9213 
  85   0.0000       1.487872        40.4871 
  86   0.0000       1.487872        40.4871 
  87   0.0000       1.615606        43.9629 
  88   0.0000       1.703722        46.3606 
  89   0.0000       1.703722        46.3606 
  90   0.0000       1.746939        47.5366 
  91   0.0000       1.746939        47.5366 
  92   0.0000       1.761941        47.9448 
  93   0.0000       1.762688        47.9652 
  94   0.0000       1.762688        47.9652 
  95   0.0000       1.779052        48.4105 
  96   0.0000       1.779053        48.4105 
  97   0.0000       1.788941        48.6796 
  98   0.0000       1.788943        48.6796 
  99   0.0000       1.823060        49.6080 
 100   0.0000       1.823062        49.6080 
 101   0.0000       1.871847        50.9356 
 102   0.0000       2.042742        55.5858 
 103   0.0000       2.042742        55.5858 
 104   0.0000       2.169243        59.0281 
 105   0.0000       2.303037        62.6688 
 106   0.0000       2.303037        62.6688 
 107   0.0000       2.812852        76.5416 
 108   0.0000      20.258610       551.2648 
 109   0.0000      20.526324       558.5497 
 110   0.0000      71.610383      1948.6176 
 111   0.0000      71.702415      1951.1219 

                 SPIN DOWN ORBITALS
  NO   OCC          E(Eh)            E(eV) 
   0   1.0000      -2.239498       -60.9399 
   1   1.0000      -2.205793       -60.0227 
   2   1.0000      -1.387727       -37.7620 
   3   1.0000      -1.294602       -35.2279 
   4   1.0000      -1.294602       -35.2279 
   5   1.0000      -1.268563       -34.5194 
   6   1.0000      -1.268563       -34.5194 
   7   1.0000      -1.239465       -33.7276 
   8   1.0000      -0.193907        -5.2765 
   9   1.0000      -0.193907        -5.2765 
  10   1.0000      -0.164203        -4.4682 
  11   0.0000      -0.052103        -1.4178 
  12   0.0000      -0.026771        -0.7285 
  13   0.0000       0.002273         0.0619 
  14   0.0000       0.002273         0.0619 
  15   0.0000       0.019284         0.5247 
  16   0.0000       0.019284         0.5247 
  17   0.0000       0.020106         0.5471 
  18   0.0000       0.020107         0.5471 
  19   0.0000       0.045883         1.2485 
  20   0.0000       0.055402         1.5076 
  21   0.0000       0.085261         2.3201 
  22   0.0000       0.085261         2.3201 
  23   0.0000       0.099705         2.7131 
  24   0.0000       0.103167         2.8073 
  25   0.0000       0.103168         2.8073 
  26   0.0000       0.115067         3.1311 
  27   0.0000       0.161712         4.4004 
  28   0.0000       0.161712         4.4004 
  29   0.0000       0.180812         4.9202 
  30   0.0000       0.181969         4.9516 
  31   0.0000       0.218143         5.9360 
  32   0.0000       0.218143         5.9360 
  33   0.0000       0.219698         5.9783 
  34   0.0000       0.219699         5.9783 
  35   0.0000       0.253704         6.9036 
  36   0.0000       0.253704         6.9036 
  37   0.0000       0.255912         6.9637 
  38   0.0000       0.255912         6.9637 
  39   0.0000       0.278831         7.5874 
  40   0.0000       0.289394         7.8748 
  41   0.0000       0.296086         8.0569 
  42   0.0000       0.296086         8.0569 
  43   0.0000       0.519746        14.1430 
  44   0.0000       0.519746        14.1430 
  45   0.0000       0.526833        14.3359 
  46   0.0000       0.526833        14.3359 
  47   0.0000       0.566501        15.4153 
  48   0.0000       0.629176        17.1208 
  49   0.0000       0.629176        17.1208 
  50   0.0000       0.649110        17.6632 
  51   0.0000       0.664335        18.0775 
  52   0.0000       0.664335        18.0775 
  53   0.0000       0.729745        19.8574 
  54   0.0000       0.729976        19.8637 
  55   0.0000       0.729976        19.8637 
  56   0.0000       0.744139        20.2490 
  57   0.0000       0.744140        20.2491 
  58   0.0000       0.928039        25.2532 
  59   0.0000       0.928039        25.2532 
  60   0.0000       0.938604        25.5407 
  61   0.0000       0.938608        25.5408 
  62   0.0000       0.942671        25.6514 
  63   0.0000       0.960591        26.1390 
  64   0.0000       0.960591        26.1390 
  65   0.0000       1.025811        27.9137 
  66   0.0000       1.025816        27.9139 
  67   0.0000       1.073250        29.2046 
  68   0.0000       1.073250        29.2046 
  69   0.0000       1.080461        29.4008 
  70   0.0000       1.106272        30.1032 
  71   0.0000       1.177549        32.0427 
  72   0.0000       1.177549        32.0427 
  73   0.0000       1.223456        33.2919 
  74   0.0000       1.224801        33.3285 
  75   0.0000       1.224806        33.3287 
  76   0.0000       1.284767        34.9603 
  77   0.0000       1.284767        34.9603 
  78   0.0000       1.311719        35.6937 
  79   0.0000       1.311719        35.6937 
  80   0.0000       1.325240        36.0616 
  81   0.0000       1.325246        36.0618 
  82   0.0000       1.419548        38.6279 
  83   0.0000       1.419548        38.6279 
  84   0.0000       1.436650        39.0932 
  85   0.0000       1.501465        40.8569 
  86   0.0000       1.501465        40.8569 
  87   0.0000       1.625372        44.2286 
  88   0.0000       1.740993        47.3748 
  89   0.0000       1.740993        47.3748 
  90   0.0000       1.772874        48.2424 
  91   0.0000       1.775671        48.3185 
  92   0.0000       1.775671        48.3185 
  93   0.0000       1.780759        48.4569 
  94   0.0000       1.780759        48.4569 
  95   0.0000       1.793665        48.8081 
  96   0.0000       1.793666        48.8081 
  97   0.0000       1.802399        49.0458 
  98   0.0000       1.802399        49.0458 
  99   0.0000       1.828716        49.7619 
 100   0.0000       1.828718        49.7619 
 101   0.0000       1.880696        51.1763 
 102   0.0000       2.048943        55.7546 
 103   0.0000       2.048943        55.7546 
 104   0.0000       2.173873        59.1541 
 105   0.0000       2.307723        62.7963 
 106   0.0000       2.307723        62.7963 
 107   0.0000       2.815238        76.6065 
 108   0.0000      20.258055       551.2497 
 109   0.0000      20.525469       558.5264 
 110   0.0000      71.571286      1947.5537 
 111   0.0000      71.663318      1950.0580 

                    ********************************
                    * MULLIKEN POPULATION ANALYSIS *
                    ********************************

--------------------------------------------
MULLIKEN ATOMIC CHARGES AND SPIN POPULATIONS
--------------------------------------------
   0 Zr:    0.000048    1.000397
   1 Zr:   -0.000048    0.999603
Sum of atomic charges         :   -0.0000000
Sum of atomic spin populations:    2.0000000

-----------------------------------------------------
MULLIKEN REDUCED ORBITAL CHARGES AND SPIN POPULATIONS
-----------------------------------------------------
CHARGE
  0 Zrs       :     2.946146  s :     2.946146
      pz      :     1.976063  p :     6.004887
      px      :     2.014412
      py      :     2.014412
      dz2     :     0.068109  d :     2.995940
      dxz     :     0.969170
      dyz     :     0.969170
      dx2y2   :     0.494745
      dxy     :     0.494745
      f0      :     0.007606  f :     0.040167
      f+1     :     0.011991
      f-1     :     0.011991
      f+2     :     0.004289
      f-2     :     0.004289
      f+3     :     0.000000
      f-3     :     0.000000
      g0      :     0.001993  g :     0.012812
      g+1     :     0.004419
      g-1     :     0.004419
      g+2     :     0.000990
      g-2     :     0.000990
      g+3     :     0.000000
      g-3     :     0.000000
      g+4     :     0.000000
      g-4     :     0.000000
  1 Zrs       :     2.946305  s :     2.946305
      pz      :     1.976065  p :     6.004890
      px      :     2.014412
      py      :     2.014412
      dz2     :     0.068114  d :     2.995874
      dxz     :     0.969184
      dyz     :     0.969184
      dx2y2   :     0.494696
      dxy     :     0.494696
      f0      :     0.007606  f :     0.040168
      f+1     :     0.011991
      f-1     :     0.011991
      f+2     :     0.004290
      f-2     :     0.004290
      f+3     :     0.000000
      f-3     :     0.000000
      g0      :     0.001993  g :     0.012812
      g+1     :     0.004419
      g-1     :     0.004419
      g+2     :     0.000990
      g-2     :     0.000990
      g+3     :     0.000000
      g-3     :     0.000000
      g+4     :     0.000000
      g-4     :     0.000000

SPIN
  0 Zrs       :    -0.032674  s :    -0.032674
      pz      :     0.021513  p :     0.063203
      px      :     0.020845
      py      :     0.020845
      dz2     :     0.009845  d :     0.960926
      dxz     :    -0.019205
      dyz     :    -0.019205
      dx2y2   :     0.494745
      dxy     :     0.494745
      f0      :     0.001332  f :     0.009129
      f+1     :    -0.000391
      f-1     :    -0.000391
      f+2     :     0.004289
      f-2     :     0.004289
      f+3     :    -0.000000
      f-3     :    -0.000000
      g0      :     0.000268  g :    -0.000186
      g+1     :    -0.001217
      g-1     :    -0.001217
      g+2     :     0.000990
      g-2     :     0.000990
      g+3     :    -0.000000
      g-3     :    -0.000000
      g+4     :    -0.000000
      g-4     :    -0.000000
  1 Zrs       :    -0.033194  s :    -0.033194
      pz      :     0.021471  p :     0.063161
      px      :     0.020845
      py      :     0.020845
      dz2     :     0.009838  d :     0.960690
      dxz     :    -0.019270
      dyz     :    -0.019270
      dx2y2   :     0.494696
      dxy     :     0.494696
      f0      :     0.001333  f :     0.009132
      f+1     :    -0.000390
      f-1     :    -0.000390
      f+2     :     0.004290
      f-2     :     0.004290
      f+3     :    -0.000000
      f-3     :    -0.000000
      g0      :     0.000269  g :    -0.000186
      g+1     :    -0.001217
      g-1     :    -0.001217
      g+2     :     0.000990
      g-2     :     0.000990
      g+3     :    -0.000000
      g-3     :    -0.000000
      g+4     :    -0.000000
      g-4     :     0.000000


                     *******************************
                     * LOEWDIN POPULATION ANALYSIS *
                     *******************************

-------------------------------------------
LOEWDIN ATOMIC CHARGES AND SPIN POPULATIONS
-------------------------------------------
   0 Zr:   -0.000015    1.000131
   1 Zr:    0.000015    0.999869

----------------------------------------------------
LOEWDIN REDUCED ORBITAL CHARGES AND SPIN POPULATIONS
----------------------------------------------------
CHARGE
  0 Zrs       :     2.658018  s :     2.658018
      pz      :     1.992267  p :     5.930456
      px      :     1.969094
      py      :     1.969094
      dz2     :     0.181436  d :     3.086133
      dxz     :     0.963812
      dyz     :     0.963812
      dx2y2   :     0.488536
      dxy     :     0.488536
      f0      :     0.106322  f :     0.202444
      f+1     :     0.040019
      f-1     :     0.040019
      f+2     :     0.008042
      f-2     :     0.008042
      f+3     :     0.000000
      f-3     :     0.000000
      g0      :     0.061940  g :     0.122964
      g+1     :     0.027068
      g-1     :     0.027068
      g+2     :     0.003444
      g-2     :     0.003444
      g+3     :     0.000000
      g-3     :     0.000000
      g+4     :     0.000000
      g-4     :     0.000000
  1 Zrs       :     2.658044  s :     2.658044
      pz      :     1.992277  p :     5.930467
      px      :     1.969095
      py      :     1.969095
      dz2     :     0.181432  d :     3.086063
      dxz     :     0.963825
      dyz     :     0.963825
      dx2y2   :     0.488490
      dxy     :     0.488490
      f0      :     0.106323  f :     0.202447
      f+1     :     0.040018
      f-1     :     0.040018
      f+2     :     0.008044
      f-2     :     0.008044
      f+3     :     0.000000
      f-3     :     0.000000
      g0      :     0.061941  g :     0.122965
      g+1     :     0.027068
      g-1     :     0.027068
      g+2     :     0.003444
      g-2     :     0.003444
      g+3     :     0.000000
      g-3     :     0.000000
      g+4     :     0.000000
      g-4     :     0.000000

SPIN
  0 Zrs       :    -0.035818  s :    -0.035818
      pz      :     0.017312  p :     0.052209
      px      :     0.017448
      py      :     0.017448
      dz2     :     0.013455  d :     0.957926
      dxz     :    -0.016300
      dyz     :    -0.016300
      dx2y2   :     0.488536
      dxy     :     0.488536
      f0      :     0.003239  f :     0.019980
      f+1     :     0.000328
      f-1     :     0.000328
      f+2     :     0.008042
      f-2     :     0.008042
      f+3     :    -0.000000
      f-3     :    -0.000000
      g0      :     0.001848  g :     0.005833
      g+1     :    -0.001451
      g-1     :    -0.001451
      g+2     :     0.003444
      g-2     :     0.003444
      g+3     :    -0.000000
      g-3     :    -0.000000
      g+4     :    -0.000000
      g-4     :    -0.000000
  1 Zrs       :    -0.035900  s :    -0.035900
      pz      :     0.017321  p :     0.052223
      px      :     0.017451
      py      :     0.017451
      dz2     :     0.013454  d :     0.957722
      dxz     :    -0.016356
      dyz     :    -0.016356
      dx2y2   :     0.488490
      dxy     :     0.488490
      f0      :     0.003240  f :     0.019988
      f+1     :     0.000330
      f-1     :     0.000330
      f+2     :     0.008044
      f-2     :     0.008044
      f+3     :    -0.000000
      f-3     :    -0.000000
      g0      :     0.001849  g :     0.005836
      g+1     :    -0.001450
      g-1     :    -0.001450
      g+2     :     0.003444
      g-2     :     0.003444
      g+3     :    -0.000000
      g-3     :    -0.000000
      g+4     :    -0.000000
      g-4     :     0.000000


                      *****************************
                      * MAYER POPULATION ANALYSIS *
                      *****************************

  NA   - Mulliken gross atomic population
  ZA   - Total nuclear charge
  QA   - Mulliken gross atomic charge
  VA   - Mayer's total valence
  BVA  - Mayer's bonded valence
  FA   - Mayer's free valence

  ATOM       NA         ZA         QA         VA         BVA        FA
  0 Zr    12.0000    12.0000     0.0000     4.8467     4.2194     0.6274
  1 Zr    12.0000    12.0000    -0.0000     4.8466     4.2194     0.6273

  Mayer bond orders larger than 0.100000
B(  0-Zr,  1-Zr) :   4.2194 

-------
TIMINGS
-------

Total SCF time: 0 days 0 hours 5 min 12 sec 

Total time                  ....     312.114 sec
Sum of individual times     ....     310.767 sec  ( 99.6%)

Fock matrix formation       ....     270.239 sec  ( 86.6%)
  XC integration            ....     255.847 sec  ( 94.7% of F)
    Basis function eval.    ....       0.048 sec  (  0.0% of XC)
    Density eval.           ....       0.075 sec  (  0.0% of XC)
    XC-Functional eval.     ....       0.036 sec  (  0.0% of XC)
    XC-Potential eval.      ....       0.142 sec  (  0.1% of XC)
Diagonalization             ....       5.733 sec  (  1.8%)
Density matrix formation    ....       0.073 sec  (  0.0%)
Population analysis         ....       0.175 sec  (  0.1%)
Initial guess               ....      29.945 sec  (  9.6%)
Orbital Transformation      ....       0.000 sec  (  0.0%)
Orbital Orthonormalization  ....       0.000 sec  (  0.0%)
DIIS solution               ....       0.284 sec  (  0.1%)
Grid generation             ....       4.319 sec  (  1.4%)


           ************************************************************
           *        Program running with 28 parallel MPI-processes    *
           *              working on a common directory               *
           ************************************************************

------------------------------------------------------------------------------
                                ORCA  MP2 
------------------------------------------------------------------------------

Freezing NCore=0 chemical core electrons

-------------
RI-MP2 ENERGY
-------------
Dimension of the basis                    ...  112
Memory devoted to MP2                     ... 5000 MB   
Data format for buffers                   ... DOUBLE
Compression type for matrix containers    ... UNCOMPRESSED
Overall scaling of the MP2 energy         ...   2.700e-01
Calculating two index integrals           ... done (    0.015 sec)
Cholesky decomposition of V**-1           ... done (    0.134 sec)

-----------------
RI-TRANSFORMATION (AUX index driven)
-----------------

Dimension of the orbital-basis         ... 112
Dimension of the aux-basis             ... 352
Transformation of internal/external MOs...    0-  12 to   13- 111
Number Format for Storage              ... Double (8 Byte)
Integral mode                          ... Direct

First Phase: integral generation and transformation of MO indices
  Aux angular momentum 0               ... done (    0.001 sec)
  Aux angular momentum 1               ... done (    0.001 sec)
  Aux angular momentum 2               ... done (    0.001 sec)
  Aux angular momentum 3               ... done (    0.002 sec)
  Aux angular momentum 4               ... done (    0.002 sec)
  Aux angular momentum 5               ... done (    0.006 sec)
  Aux angular momentum 6               ... done (    0.006 sec)
Closing buffer VIA ( 0.00 GB; CompressionRatio= 1.00)
  Phase 1 completed in     0.441 sec
Second Phase: sorting and transformation of aux index

IA-Transformation
Memory available                       ... 4998 MB 
Max. # MO pairs treated in a batch     ... 1    
# of internal orbitals                 ... 13
# batches for internal orbitals        ... 1
Closing buffer IAV ( 0.00 GB; CompressionRatio= 1.00)
(ia|v) transformation done in     0.029 sec

  Phase 2 completed in     0.184 sec
RI-Integral transformation completed in     0.658 sec

-----------------
RI-TRANSFORMATION (AUX index driven)
-----------------

Dimension of the orbital-basis         ... 112
Dimension of the aux-basis             ... 352
Transformation of internal/external MOs...    0-  10 to   11- 111
Number Format for Storage              ... Double (8 Byte)
Integral mode                          ... Direct

First Phase: integral generation and transformation of MO indices
  Aux angular momentum 0               ... done (    0.001 sec)
  Aux angular momentum 1               ... done (    0.001 sec)
  Aux angular momentum 2               ... done (    0.001 sec)
  Aux angular momentum 3               ... done (    0.002 sec)
  Aux angular momentum 4               ... done (    0.002 sec)
  Aux angular momentum 5               ... done (    0.006 sec)
  Aux angular momentum 6               ... done (    0.006 sec)
Closing buffer VIA ( 0.00 GB; CompressionRatio= 1.00)
  Phase 1 completed in     0.102 sec
Second Phase: sorting and transformation of aux index

IA-Transformation
Memory available                       ... 4998 MB 
Max. # MO pairs treated in a batch     ... 1    
# of internal orbitals                 ... 11
# batches for internal orbitals        ... 1
Closing buffer IAV ( 0.00 GB; CompressionRatio= 1.00)
(ia|v) transformation done in     0.020 sec

  Phase 2 completed in     0.144 sec
RI-Integral transformation completed in     0.265 sec
Opening buffers                              ... done

Starting loop over batches of integrals:

Operator 0  - window                       ... (  0- 12)x( 13-111)
Operator 0  - Memory available             ...  5000 MB
Operator 0  - Memory needed per MO         ...   0.3 MB
Operator 0  - Number of orbitals per batch ... 1
Operator 0  - Number of batches            ... 1

OPERATOR  0   PASS   0:  MOs     0 ...    0 +    1 ...    1 +    2 ...    2 +    3 ...    3
                            +    4 ...    4 +    5 ...    5 +    6 ...    6 +    7 ...    7
                            +    8 ...    8 +    9 ...    9 +   10 ...   10 +   11 ...   11
                            +   12 ...   12
  Reading integrals       ... ok

Operator 1  - window                       ... (  0- 10)x( 11-111)
Operator 1  - Memory available             ...  5000 MB
Operator 1  - Memory needed per MO         ...   0.3 MB
Operator 1  - Number of orbitals per batch ... 1
Operator 1  - Number of batches            ... 1

OPERATOR  1   PASS   0:  MOs     0 ...    0 +    1 ...    1 +    2 ...    2 +    3 ...    3
                            +    4 ...    4 +    5 ...    5 +    6 ...    6 +    7 ...    7
                            +    8 ...    8 +    9 ...    9 +   10 ...   10
  Reading integrals       ... ok
Time spent in pair loops =     0.025 sec

Correlation energy components}
 E2 and T2 for alpha/alpha pairs :     -0.063903512 Eh      0.000000000
 E2 and T2 for beta/beta   pairs :     -0.032173091 Eh      0.000000000
 E2 and T2 for alpha/beta  pairs :     -0.178076623 Eh      0.000000000


-----------------------------------------------
 RI-MP2 CORRELATION ENERGY:     -0.274153226 Eh
-----------------------------------------------


-------
TIMINGS
-------

Total time                :    1.156 sec
Integral trafo            :    0.950 sec ( 82.2%)
I/O of integrals          :    0.000 sec (  0.0%)
K(i,j) Operators          :    0.006 sec (  0.5%)
T(i,j) pair energies      :    0.002 sec (  0.2%)
V-calculation             :    0.015 sec (  1.3%)
V**(-1/2)                 :    0.134 sec ( 11.6%)
Gamma(ia|P)               :    0.000 sec (  0.0%)
Gamma-Trafo               :    0.000 sec (  0.0%)
D(virtual)                :    0.000 sec (  0.0%)
D(internal)               :    0.000 sec (  0.0%)
W(virtual)                :    0.000 sec (  0.0%)
W(internal)               :    0.000 sec (  0.0%)
L(virtual)                :    0.000 sec (  0.0%)
L(internal)               :    0.000 sec (  0.0%)
G(D)                      :    0.000 sec (  0.0%)
G(Z)                      :    0.000 sec (  0.0%)
Z-Vector Solution         :    0.000 sec (  0.0%)
Z-Vector Solution         :    0.000 sec (  0.0%)
3-Index Derivative 
+ Separable RIJ part      :    0.000 sec (  0.0%)
2-Index Derivative 
+ Separable RIJ part      :    0.000 sec (  0.0%)
Separable Gradient (X)    :    0.000 sec (  0.0%)


---------------------------------------
MP2 TOTAL ENERGY:      -93.726629558 Eh
---------------------------------------


-------------------------------------------------------------------------------
                          DFT DISPERSION CORRECTION                            
                                                                               
                              DFTD3 V3.1  Rev 1                                
                          USING Becke-Johnson damping                          
-------------------------------------------------------------------------------
The B2PLYP functional is recognized
Active option DFTDOPT                   ...         4   

molecular C6(AA) [au] = 3778.879204 


            DFT-D V3
 parameters
 s6 scaling factor         :     0.6400 
 a1 scaling factor         :     0.3065 
 s8 scaling factor         :     0.9147 
 a2 scaling factor         :     5.0570 
 ad hoc parameters k1-k3   :    16.0000     1.3333    -4.0000 

 Edisp/kcal,au: -2.781372411694  -0.004432398601 
 E6   /kcal   :  -0.704539411 
 E8   /kcal   :  -2.076833001 
 % E8         :  74.669360793 

-------------------------   ----------------
Dispersion correction           -0.004432399
-------------------------   ----------------


-------------------------   --------------------
FINAL SINGLE POINT ENERGY       -93.731061956778
-------------------------   --------------------


                            ***************************************
                            *     ORCA property calculations      *
                            ***************************************


  WARNING: The energy has been calculated at the MP2 level but the densities
           used in the property calculations are still SCF densities
           MP2 response densities have not been calculated 
           use %mp2 Density relaxed end
           or  %mp2 Density unrelaxed end

                                    ---------------------
                                    Active property flags
                                    ---------------------
   (+) Dipole Moment


------------------------------------------------------------------------------
                       ORCA ELECTRIC PROPERTIES CALCULATION
------------------------------------------------------------------------------

Dipole Moment Calculation                       ... on
Quadrupole Moment Calculation                   ... off
Polarizability Calculation                      ... off
GBWName                                         ... Zr2.gbw
Electron density file                           ... Zr2.scfp
The origin for moment calculation is the CENTER OF MASS  = ( 0.000000,  0.000000  2.116493)

-------------
DIPOLE MOMENT
-------------
                                X             Y             Z
Electronic contribution:      0.00000      -0.00000      -0.00009
Nuclear contribution   :      0.00000       0.00000       0.00000
                        -----------------------------------------
Total Dipole Moment    :      0.00000      -0.00000      -0.00009
                        -----------------------------------------
Magnitude (a.u.)       :      0.00009
Magnitude (Debye)      :      0.00024



--------------------
Rotational spectrum 
--------------------
 
Rotational constants in cm-1:     0.000000     0.073662     0.073662 
Rotational constants in MHz :     0.000000  2208.317403  2208.317403 

 Dipole components along the rotational axes: 
x,y,z [a.u.] :    -0.000093    -0.000000     0.000000 
x,y,z [Debye]:    -0.000235    -0.000000     0.000000 

 

Timings for individual modules:

Sum of individual times         ...      330.485 sec (=   5.508 min)
GTO integral calculation        ...       10.981 sec (=   0.183 min)   3.3 %
SCF iterations                  ...      314.951 sec (=   5.249 min)  95.3 %
MP2 module                      ...        4.553 sec (=   0.076 min)   1.4 %
                             ****ORCA TERMINATED NORMALLY****
TOTAL RUN TIME: 0 days 0 hours 5 minutes 34 seconds 115 msec
