
                                 *****************
                                 * O   R   C   A *
                                 *****************

           --- An Ab Initio, DFT and Semiempirical electronic structure package ---

                  #######################################################
                  #                        -***-                        #
                  #          Department of theory and spectroscopy      #
                  #               Directorship: Frank Neese             #
                  #        Max Planck Institute fuer Kohlenforschung    #
                  #                Kaiser Wilhelm Platz 1               #
                  #                 D-45470 Muelheim/Ruhr               #
                  #                      Germany                        #
                  #                                                     #
                  #                  All rights reserved                #
                  #                        -***-                        #
                  #######################################################


                         Program Version 4.2.0 -  RELEASE  -


 With contributions from (in alphabetic order):
   Daniel Aravena         : Magnetic Suceptibility
   Michael Atanasov       : Ab Initio Ligand Field Theory (pilot matlab implementation)
   Alexander A. Auer      : GIAO ZORA, VPT2
   Ute Becker             : Parallelization
   Giovanni Bistoni       : ED, misc. LED, open-shell LED, HFLED
   Martin Brehm           : Molecular dynamics
   Dmytro Bykov           : SCF Hessian
   Vijay G. Chilkuri      : MRCI spin determinant printing, contributions to CSF-ICE
   Dipayan Datta          : RHF DLPNO-CCSD density
   Achintya Kumar Dutta   : EOM-CC, STEOM-CC
   Dmitry Ganyushin       : Spin-Orbit,Spin-Spin,Magnetic field MRCI
   Miquel Garcia          : C-PCM Hessian, Gaussian charge scheme
   Yang Guo               : DLPNO-NEVPT2, CIM, IAO-localization
   Andreas Hansen         : Spin unrestricted coupled pair/coupled cluster methods
   Benjamin Helmich-Paris : CASSCF linear response (MC-RPA)
   Lee Huntington         : MR-EOM, pCC
   Robert Izsak           : Overlap fitted RIJCOSX, COSX-SCS-MP3, EOM
   Christian Kollmar      : KDIIS, OOCD, Brueckner-CCSD(T), CCSD density
   Simone Kossmann        : Meta GGA functionals, TD-DFT gradient, OOMP2, MP2 Hessian
   Martin Krupicka        : AUTO-CI
   Lucas Lang             : DCDCAS
   Dagmar Lenk            : GEPOL surface, SMD
   Dimitrios Liakos       : Extrapolation schemes; Compound Job, initial MDCI parallelization
   Dimitrios Manganas     : Further ROCIS development; embedding schemes
   Dimitrios Pantazis     : SARC Basis sets
   Taras Petrenko         : DFT Hessian,TD-DFT gradient, ASA, ECA, R-Raman, ABS, FL, XAS/XES, NRVS
   Peter Pinski           : DLPNO-MP2, DLPNO-MP2 Gradient
   Christoph Reimann      : Effective Core Potentials
   Marius Retegan         : Local ZFS, SOC
   Christoph Riplinger    : Optimizer, TS searches, QM/MM, DLPNO-CCSD(T), (RO)-DLPNO pert. Triples
   Tobias Risthaus        : Range-separated hybrids, TD-DFT gradient, RPA, STAB
   Michael Roemelt        : Original ROCIS implementation
   Masaaki Saitow         : Open-shell DLPNO-CCSD energy and density
   Barbara Sandhoefer     : DKH picture change effects
   Avijit Sen             : IP-ROCIS
   Kantharuban Sivalingam : CASSCF convergence, NEVPT2, FIC-MRCI
   Bernardo de Souza      : ESD, SOC TD-DFT
   Georgi Stoychev        : AutoAux, RI-MP2 NMR
   Willem Van den Heuvel  : Paramagnetic NMR
   Boris Wezisla          : Elementary symmetry handling
   Frank Wennmohs         : Technical directorship


 We gratefully acknowledge several colleagues who have allowed us to
 interface, adapt or use parts of their codes:
   Stefan Grimme, W. Hujo, H. Kruse,             : VdW corrections, initial TS optimization,
                  C. Bannwarth                     DFT functionals, gCP, sTDA/sTD-DF
   Ed Valeev, F. Pavosevic, A. Kumar             : LibInt (2-el integral package), F12 methods
   Garnet Chan, S. Sharma, J. Yang, R. Olivares  : DMRG
   Ulf Ekstrom                                   : XCFun DFT Library
   Mihaly Kallay                                 : mrcc  (arbitrary order and MRCC methods)
   Andreas Klamt, Michael Diedenhofen            : otool_cosmo (COSMO solvation model)
   Jiri Pittner, Ondrej Demel                    : Mk-CCSD
   Frank Weinhold                                : gennbo (NPA and NBO analysis)
   Christopher J. Cramer and Donald G. Truhlar   : smd solvation model
   Lars Goerigk                                  : TD-DFT with DH, B97 family of functionals
   V. Asgeirsson, H. Jonsson                     : NEB implementation
   FAccTs GmbH                                   : IRC, NEB, NEB-TS, Multilevel, MM, QM/MM, CI optimization
   S Lehtola, MJT Oliveira, MAL Marques          : LibXC Library


 Your calculation uses the libint2 library for the computation of 2-el integrals
 For citations please refer to: http://libint.valeyev.net

 Your ORCA version has been built with support for libXC version: 4.2.3
 For citations please refer to: https://tddft.org/programs/libxc/

 This ORCA versions uses:
   CBLAS   interface :  Fast vector & matrix operations
   LAPACKE interface :  Fast linear algebra routines
   SCALAPACK package :  Parallel linear algebra routines


Your calculation utilizes the DFT-NL dispersion correction.
Cite in your paper:
Vydrov, O. A.; Van Voorhis, T. J. Chem. Phys. 2010, 133, 244103
Hujo, W.; Grimme, S. J. Chem. Theory Comput. 2011, 7, 3866 
   

----- Orbital basis set information -----
Your calculation utilizes the basis: def2-TZVPPD
   F. Weigend and R. Ahlrichs, Phys. Chem. Chem. Phys. 7, 3297 (2005).
   D. Rappoport and F. Furche, J. Chem. Phys. 133 134105 (2010).

----- AuxJK basis set information -----
Your calculation utilizes the auxiliary basis: def2/JK
   H-Ba, Hf-Rn: F. Weigend, J. Comput. Chem. 29, 167 (2008).

cite the ECPs for Ag [Def2-ECP] as follows:
Ce-Yb(ecp-28): M. Dolg, H. Stoll, H.Preuss, J. Chem. Phys., 1989, 90, 1730-1734.
Y-Cd(ecp-28), Hf-Hg(ecp-46): D. Andrae,U. Haeussermann, M. Dolg, H. Stoll, H. Preuss, Theor. Chim. Acta, 1990, 77, 123-141.
In-Sb(ecp-28), Tl-Bi(ecp-46): B. Metz, H. Stoll, M. Dolg, J. Chem. Phys., 2000, 113, 2563-2569.
Te-Xe(ecp-28), Po-Rn(ecp-46): K. A. Peterson, D. Figgen, E. Goll, H. Stoll, M. Dolg, J. Chem. Phys., 2003, 119, 11113-11123.
Rb(ecp-28), Cs(ecp-46): T. Leininger, A. Nicklass, W. Kuechle, H. Stoll, M. Dolg, A. Bergner, Chem. Phys. Lett., 1996, 255, 274-280.
Sr(ecp-28), Ba(ecp-46): M. Kaupp, P. V. Schleyer, H. Stoll and H. Preuss, J. Chem. Phys., 1991, 94, 1360-1366.
La(ecp-46): M. Dolg, H. Stoll, A. Savin, H. Preuss, Theor. Chim. Acta, 1989, 75, 173-194.
Lu(ecp-28): X. Cao, M. Dolg, J. Chem. Phys., 2001, 115, 7348-7355.

ECP parameters for Ag [Def2-ECP] have been obtained from:
TURBOMOLE (7.0.2)

================================================================================
                                        WARNINGS
                       Please study these warnings very carefully!
================================================================================

INFO   : Found keyword 'NumGrad' for Energy calculation
  ===> : Setting RunTyp to EnGrad

WARNING: Numerical Gradient with sloppy Convergence Criteria    
         Your results may be not reliable!                      
         Please choose at least TightSCF!                       

WARNING: your system is open-shell and RHF/RKS was chosen
  ===> : WILL SWITCH to UHF/UKS


INFO   : the flag for use of LIBINT has been found!

================================================================================
                                       INPUT FILE
================================================================================
NAME = Ag.in
|  1> #
|  2> # Ag wB97X-V/Def2-TZVPPD
|  3> #
|  4> ! wb97x-v def2-tzvppd def2/jk grid4 nofinalgrid numgrad
|  5> 
|  6> *xyz 0 2
|  7> Ag         0.00000        0.00000        0.00000
|  8> *
|  9> 
| 10> %maxcore 5000
| 11> 
| 12> %pal
| 13> nprocs = 28
| 14> end
| 15> 
| 16> 
| 17>                          ****END OF INPUT****
================================================================================

                     *******************************
                     * Energy+Gradient Calculation *
                     *******************************

---------------------------------
CARTESIAN COORDINATES (ANGSTROEM)
---------------------------------
  Ag     0.000000    0.000000    0.000000

----------------------------
CARTESIAN COORDINATES (A.U.)
----------------------------
  NO LB      ZA    FRAG     MASS         X           Y           Z
   0 Ag   19.0000*   0   107.870    0.000000    0.000000    0.000000
* core charge reduced due to ECP

--------------------------------
INTERNAL COORDINATES (ANGSTROEM)
--------------------------------
 Ag     0   0   0     0.000000000000     0.00000000     0.00000000

---------------------------
INTERNAL COORDINATES (A.U.)
---------------------------
 Ag     0   0   0     0.000000000000     0.00000000     0.00000000

---------------------
BASIS SET INFORMATION
---------------------
There are 1 groups of distinct atoms

 Group   1 Type Ag  : 7s7p6d2f1g contracted to 6s4p3d2f1g pattern {211111/4111/411/11/1}

Atom   0Ag   basis set group =>   1
----------------------------------
AUXILIARY/JK BASIS SET INFORMATION
----------------------------------
There are 1 groups of distinct atoms

 Group   1 Type Ag  : 13s12p10d9f6g3h2i contracted to 11s10p9d8f6g3h2i pattern {31111111111/3111111111/211111111/21111111/111111/111/11}

Atom   0Ag   basis set group =>   1
-------------------------
ECP PARAMETER INFORMATION
-------------------------

 Group 1, Type Ag ECP Def2-ECP (replacing 28 core electrons, lmax=3)

Atom   0Ag   ECP group =>   1



           ************************************************************
           *        Program running with 28 parallel MPI-processes    *
           *              working on a common directory               *
           ************************************************************
------------------------------------------------------------------------------
                           ORCA GTO INTEGRAL CALCULATION
------------------------------------------------------------------------------

                         BASIS SET STATISTICS AND STARTUP INFO

 # of primitive gaussian shells          ...   23
 # of primitive gaussian functions       ...   81
 # of contracted shells                  ...   16
 # of contracted basis functions         ...   56
 Highest angular momentum                ...    4
 Maximum contraction depth               ...    4
 Integral package used                   ... LIBINT
 Integral threshhold            Thresh   ...  1.000e-10
 Primitive cut-off              TCut     ...  1.000e-11


------------------------------ INTEGRAL EVALUATION ----------------------------


 * One electron integrals 

   ECP integrals                         ... done
 Pre-screening matrix                    ... done
 Shell pair data                         ... done (   0.000 sec)



           ************************************************************
           *        Program running with 28 parallel MPI-processes    *
           *              working on a common directory               *
           ************************************************************
-------------------------------------------------------------------------------
                                 ORCA SCF
-------------------------------------------------------------------------------

------------
SCF SETTINGS
------------
Hamiltonian:
 Density Functional     Method          .... DFT(GTOs)
 Exchange Functional    Exchange        .... WB97X-V
 Correlation Functional Correlation     .... WB97X-V
 Gradients option       PostSCFGGA      .... off
 Hybrid DFT is turned on
   Fraction HF Exchange ScalHFX         ....  0.167000
   Scaling of DF-GGA-X  ScalDFX         ....  0.000000
   Scaling of DF-GGA-C  ScalDFC         ....  1.000000
   Scaling of DF-LDA-C  ScalLDAC        ....  1.000000
   Perturbative correction              ....  0.000000
   Density functional embedding theory  .... OFF
 Long-range corrected/Screened/Range-Separated Hybrid DFT is turned on
   Amount of maximum screened exact exchange              ....  0.833000
   Range separation parameter mu (erf(mu*r12)/r12)        ....  0.300000
   NL short-range parameter             ....  6.000000
   NL long-range parameter              ....  0.010000


General Settings:
 Integral files         IntName         .... Ag
 Hartree-Fock type      HFTyp           .... UHF
 Total Charge           Charge          ....    0
 Multiplicity           Mult            ....    2
 Number of Electrons    NEL             ....   19
 Basis Dimension        Dim             ....   56
 Nuclear Repulsion      ENuc            ....      0.0000000000 Eh

Convergence Acceleration:
 DIIS                   CNVDIIS         .... on
   Start iteration      DIISMaxIt       ....    12
   Startup error        DIISStart       ....  0.200000
   # of expansion vecs  DIISMaxEq       ....     5
   Bias factor          DIISBfac        ....   1.050
   Max. coefficient     DIISMaxC        ....  10.000
 Newton-Raphson         CNVNR           .... off
 SOSCF                  CNVSOSCF        .... off
 Level Shifting         CNVShift        .... on
   Level shift para.    LevelShift      ....    0.2500
   Turn off err/grad.   ShiftErr        ....    0.0010
 Zerner damping         CNVZerner       .... off
 Static damping         CNVDamp         .... on
   Fraction old density DampFac         ....    0.7000
   Max. Damping (<1)    DampMax         ....    0.9800
   Min. Damping (>=0)   DampMin         ....    0.0000
   Turn off err/grad.   DampErr         ....    0.1000
 Fernandez-Rico         CNVRico         .... off

SCF Procedure:
 Maximum # iterations   MaxIter         ....   125
 SCF integral mode      SCFMode         .... Direct
   Integral package                     .... LIBINT
 Reset frequency        DirectResetFreq ....    20
 Integral Threshold     Thresh          ....  1.000e-10 Eh
 Primitive CutOff       TCut            ....  1.000e-11 Eh

Convergence Tolerance:
 Convergence Check Mode ConvCheckMode   .... Total+1el-Energy
 Convergence forced     ConvForced      .... 0
 Energy Change          TolE            ....  1.000e-06 Eh
 1-El. energy change                    ....  1.000e-03 Eh
 DIIS Error             TolErr          ....  1.000e-06


Diagonalization of the overlap matrix:
Smallest eigenvalue                        ... 2.210e-02
Time for diagonalization                   ...    0.001 sec
Threshold for overlap eigenvalues          ... 1.000e-08
Number of eigenvalues below threshold      ... 0
Time for construction of square roots      ...    0.019 sec
Total time needed                          ...    0.020 sec

-------------------
DFT GRID GENERATION
-------------------

General Integration Accuracy     IntAcc      ...  4.670
Radial Grid Type                 RadialGrid  ... Gauss-Chebyshev
Angular Grid (max. acc.)         AngularGrid ... Lebedev-302
Angular grid pruning method      GridPruning ... 3 (G Style)
Weight generation scheme         WeightScheme... Becke
Basis function cutoff            BFCut       ...    1.0000e-10
Integration weight cutoff        WCut        ...    1.0000e-14
Grids for H and He will be reduced by one unit

# of grid points (after initial pruning)     ...  10658 (   0.0 sec)
# of grid points (after weights+screening)   ...  10658 (   0.0 sec)
Grid point division into batches done        ...    0.1 sec
Reduced shell lists constructed in    0.1 sec

Total number of grid points                  ...    10658
Total number of batches                      ...      167
Average number of points per batch           ...       63
Average number of grid points per atom       ...    10658
Average number of shells per batch           ...     1.71 (10.71%)
Average number of basis functions per batch  ...     3.43 ( 6.12%)
Average number of large shells per batch     ...     0.86 (50.00%)
Average number of large basis fcns per batch ...     2.57 (75.00%)
Maximum spatial batch extension              ...  28.90, 28.90, 28.90 au
Average spatial batch extension              ...   0.91,  0.88,  0.89 au

Time for grid setup =    0.147 sec

------------------------------
INITIAL GUESS: MODEL POTENTIAL
------------------------------
Loading Hartree-Fock densities                     ... done
  calling /mnt/storage/software/apps/orca-4.2.0/orca_4_2_0_linux_x86-64_openmpi314/orca Ag_atom47.inp > Ag_atom47.out in order to generate an atomic fitting density for atom 0 (Ag with ECP) on-the-fly... 
    atom 0 (Ag), assumed electronic state with S=2: 1s2 2s2 2p6 3s2 3p6 4s2 3d10 4p6 5s2 4d9           ... done
Calculating cut-offs                               ... done
Setting up the integral package                    ... done
Initializing the effective Hamiltonian             ... done
Starting the Coulomb interaction                   ... done (   0.0 sec)
Reading the grid                                   ... done
Mapping shells                                     ... done
Starting the XC term evaluation                    ... done (   0.0 sec)
  promolecular density results
     # of electrons  =     47.001248965
     EX              =   -112.511093942
     EC              =     -3.247809733
     EX+EC           =   -115.758903675
Transforming the Hamiltonian                       ... done (   0.0 sec)
Diagonalizing the Hamiltonian                      ... done (   0.0 sec)
Back transforming the eigenvectors                 ... done (   0.0 sec)
Now organizing SCF variables                       ... done
                      ------------------
                      INITIAL GUESS DONE (   1.5 sec)
                      ------------------
--------------
SCF ITERATIONS
--------------
ITER       Energy         Delta-E        Max-DP      RMS-DP      [F,P]     Damp
               ***  Starting incremental Fock matrix formation  ***
  0   -146.9896977452   0.000000000000 0.04317776  0.00097381  0.3838758 0.7000
  1   -146.9979020310  -0.008204285815 0.04792284  0.00092067  0.2784436 0.7000
  2   -147.0024583820  -0.004556350974 0.04072243  0.00073761  0.2002701 0.7000
                               ***Turning on DIIS***
  3   -147.0054122090  -0.002953827024 0.03236669  0.00057218  0.1425582 0.7000
  4   -147.0074880525  -0.002075843555 0.02800981  0.00048353  0.1006955 0.7000
  5   -147.0089640755  -0.001476022994 0.07961893  0.00133694  0.0701114 0.0000
  6   -147.0125514465  -0.003587370958 0.01215532  0.00019137  0.0012328 0.0000
  7   -147.0125702840  -0.000018837495 0.00961882  0.00015036  0.0007667 0.0000
  8   -147.0125790530  -0.000008769063 0.00940225  0.00014716  0.0004021 0.0000
  9   -147.0125826819  -0.000003628885 0.00176509  0.00002776  0.0000609 0.0000
                 **** Energy Check signals convergence ****

               *****************************************************
               *                     SUCCESS                       *
               *           SCF CONVERGED AFTER  10 CYCLES          *
               *****************************************************


Setting up the DFT-NL grid :

General Integration Accuracy     IntAcc      ...  4.340
Radial Grid Type                 RadialGrid  ... Gauss-Chebyshev
Angular Grid (max. acc.)         AngularGrid ... Lebedev-110
Angular grid pruning method      GridPruning ... 3 (G Style)
Weight generation scheme         WeightScheme... Becke
Basis function cutoff            BFCut       ...    1.0000e-10
Integration weight cutoff        WCut        ...    1.0000e-14
Grids for H and He will be reduced by one unit

# of grid points (after initial pruning)     ...   3258 (   0.0 sec)
# of grid points (after weights+screening)   ...   3258 (   0.0 sec)
Grid point division into batches done        ...    0.0 sec
Reduced shell lists constructed in    0.0 sec

Total number of grid points                  ...     3258
Total number of batches                      ...       51
Average number of points per batch           ...       63
Average number of grid points per atom       ...     3258
Average number of shells per batch           ...     3.33 (20.83%)
Average number of basis functions per batch  ...     8.67 (15.48%)
Average number of large shells per batch     ...     2.67 (80.00%)
Average number of large basis fcns per batch ...     5.33 (61.54%)
Maximum spatial batch extension              ...  24.86, 37.49, 37.49 au
Average spatial batch extension              ...   0.97,  1.47,  1.47 au

Final grid set up in    0.0 sec

-------------------------------------------------------------------------------
                         DFT-NL dispersion correction                          
-------------------------------------------------------------------------------

SC Energy -147.012582771 
NL    Energy 0.075459990 
SC+NL Energy -146.937122781 
NL done in    0.1 sec
-------------------------------------------------------------------------------

----------------
TOTAL SCF ENERGY
----------------

Total Energy       :         -146.93712278 Eh           -3998.36238 eV

Components:
Nuclear Repulsion  :            0.00000000 Eh               0.00000 eV
Electronic Energy  :         -146.93712278 Eh           -3998.36238 eV
One Electron Energy:         -261.28672816 Eh           -7109.97334 eV
Two Electron Energy:          114.34960538 Eh            3111.61095 eV

Virial components:
Potential Energy   :         -203.36763400 Eh           -5533.91466 eV
Kinetic Energy     :           56.43051122 Eh            1535.55228 eV
Virial Ratio       :            3.60385950


DFT components:
N(Alpha)           :        9.999999999625 electrons
N(Beta)            :        9.000000000084 electrons
N(Total)           :       18.999999999708 electrons
E(X)               :       -8.602697114847 Eh       
E(C)               :       -0.880925803266 Eh       
NL Energy, E(C,NL) :        0.075459990214 Eh       
E(XC)              :       -9.408162927899 Eh       
DFET-embed. en.    :        0.000000000000 Eh       

---------------
SCF CONVERGENCE
---------------

  Last Energy change         ...   -8.9241e-08  Tolerance :   1.0000e-06
  Last MAX-Density change    ...    1.1728e-04  Tolerance :   1.0000e-05
  Last RMS-Density change    ...    1.8141e-06  Tolerance :   1.0000e-06
  Last DIIS Error            ...    4.1481e-06  Tolerance :   1.0000e-06

             **** THE GBW FILE WAS UPDATED (Ag.gbw) ****
             **** DENSITY FILE WAS UPDATED (Ag.scfp) ****
             **** ENERGY FILE WAS UPDATED (Ag.en.tmp) ****
----------------------
UHF SPIN CONTAMINATION
----------------------

Warning: in a DFT calculation there is little theoretical justification to 
         calculate <S**2> as in Hartree-Fock theory. We will do it anyways
         but you should keep in mind that the values have only limited relevance

Expectation value of <S**2>     :     0.750242
Ideal value S*(S+1) for S=0.5   :     0.750000
Deviation                       :     0.000242

             **** THE GBW FILE WAS UPDATED (Ag.gbw) ****
             **** DENSITY FILE WAS UPDATED (Ag.scfp) ****
----------------
ORBITAL ENERGIES
----------------
                 SPIN UP ORBITALS
  NO   OCC          E(Eh)            E(eV) 
   0   1.0000      -3.829919      -104.2174 
   1   1.0000      -2.428588       -66.0852 
   2   1.0000      -2.428588       -66.0852 
   3   1.0000      -2.428588       -66.0852 
   4   1.0000      -0.429629       -11.6908 
   5   1.0000      -0.429629       -11.6908 
   6   1.0000      -0.429629       -11.6908 
   7   1.0000      -0.429629       -11.6908 
   8   1.0000      -0.429629       -11.6908 
   9   1.0000      -0.260848        -7.0980 
  10   0.0000       0.043685         1.1887 
  11   0.0000       0.043685         1.1887 
  12   0.0000       0.043685         1.1887 
  13   0.0000       0.151253         4.1158 
  14   0.0000       0.269765         7.3407 
  15   0.0000       0.269765         7.3407 
  16   0.0000       0.269765         7.3407 
  17   0.0000       0.505547        13.7566 
  18   0.0000       0.505547        13.7566 
  19   0.0000       0.505547        13.7566 
  20   0.0000       0.505547        13.7566 
  21   0.0000       0.505547        13.7566 
  22   0.0000       1.706865        46.4462 
  23   0.0000       1.706865        46.4462 
  24   0.0000       1.706865        46.4462 
  25   0.0000       1.706865        46.4462 
  26   0.0000       1.706865        46.4462 
  27   0.0000       1.706865        46.4462 
  28   0.0000       1.706865        46.4462 
  29   0.0000       1.716827        46.7172 
  30   0.0000       1.716827        46.7172 
  31   0.0000       1.716827        46.7172 
  32   0.0000       1.969838        53.6020 
  33   0.0000       2.159935        58.7748 
  34   0.0000       2.159935        58.7748 
  35   0.0000       2.159935        58.7748 
  36   0.0000       2.159935        58.7748 
  37   0.0000       2.159935        58.7748 
  38   0.0000       4.949223       134.6752 
  39   0.0000       4.949223       134.6752 
  40   0.0000       4.949223       134.6752 
  41   0.0000       4.949223       134.6752 
  42   0.0000       4.949223       134.6752 
  43   0.0000       4.949223       134.6752 
  44   0.0000       4.949223       134.6752 
  45   0.0000       5.682949       154.6409 
  46   0.0000       5.682949       154.6409 
  47   0.0000       5.682949       154.6409 
  48   0.0000       5.682949       154.6409 
  49   0.0000       5.682949       154.6409 
  50   0.0000       5.682949       154.6409 
  51   0.0000       5.682949       154.6409 
  52   0.0000       5.682949       154.6409 
  53   0.0000       5.682949       154.6409 
  54   0.0000      33.419998       909.4044 
  55   0.0000     110.891489      3017.5108 

                 SPIN DOWN ORBITALS
  NO   OCC          E(Eh)            E(eV) 
   0   1.0000      -3.828285      -104.1729 
   1   1.0000      -2.427383       -66.0525 
   2   1.0000      -2.427383       -66.0525 
   3   1.0000      -2.427383       -66.0525 
   4   1.0000      -0.425005       -11.5650 
   5   1.0000      -0.425005       -11.5650 
   6   1.0000      -0.425005       -11.5650 
   7   1.0000      -0.425005       -11.5650 
   8   1.0000      -0.425005       -11.5650 
   9   0.0000      -0.031983        -0.8703 
  10   0.0000       0.072442         1.9713 
  11   0.0000       0.072442         1.9713 
  12   0.0000       0.072442         1.9713 
  13   0.0000       0.182448         4.9647 
  14   0.0000       0.293063         7.9747 
  15   0.0000       0.293063         7.9747 
  16   0.0000       0.293063         7.9747 
  17   0.0000       0.508470        13.8362 
  18   0.0000       0.508470        13.8362 
  19   0.0000       0.508470        13.8362 
  20   0.0000       0.508470        13.8362 
  21   0.0000       0.508470        13.8362 
  22   0.0000       1.714453        46.6526 
  23   0.0000       1.714453        46.6526 
  24   0.0000       1.714453        46.6526 
  25   0.0000       1.714453        46.6526 
  26   0.0000       1.714453        46.6526 
  27   0.0000       1.714453        46.6526 
  28   0.0000       1.714453        46.6526 
  29   0.0000       1.723630        46.9024 
  30   0.0000       1.723630        46.9024 
  31   0.0000       1.723630        46.9024 
  32   0.0000       1.977402        53.8078 
  33   0.0000       2.167572        58.9826 
  34   0.0000       2.167572        58.9826 
  35   0.0000       2.167572        58.9826 
  36   0.0000       2.167572        58.9826 
  37   0.0000       2.167572        58.9826 
  38   0.0000       4.952809       134.7728 
  39   0.0000       4.952809       134.7728 
  40   0.0000       4.952809       134.7728 
  41   0.0000       4.952809       134.7728 
  42   0.0000       4.952809       134.7728 
  43   0.0000       4.952809       134.7728 
  44   0.0000       4.952809       134.7728 
  45   0.0000       5.683869       154.6660 
  46   0.0000       5.683869       154.6660 
  47   0.0000       5.683869       154.6660 
  48   0.0000       5.683869       154.6660 
  49   0.0000       5.683869       154.6660 
  50   0.0000       5.683869       154.6660 
  51   0.0000       5.683869       154.6660 
  52   0.0000       5.683869       154.6660 
  53   0.0000       5.683869       154.6660 
  54   0.0000      33.422054       909.4603 
  55   0.0000     110.892623      3017.5417 

                    ********************************
                    * MULLIKEN POPULATION ANALYSIS *
                    ********************************

--------------------------------------------
MULLIKEN ATOMIC CHARGES AND SPIN POPULATIONS
--------------------------------------------
   0 Ag:   -0.000000    1.000000
Sum of atomic charges         :   -0.0000000
Sum of atomic spin populations:    1.0000000

-----------------------------------------------------
MULLIKEN REDUCED ORBITAL CHARGES AND SPIN POPULATIONS
-----------------------------------------------------
CHARGE
  0 Ags       :     3.000000  s :     3.000000
      pz      :     2.000000  p :     6.000000
      px      :     2.000000
      py      :     2.000000
      dz2     :     2.000000  d :    10.000000
      dxz     :     2.000000
      dyz     :     2.000000
      dx2y2   :     2.000000
      dxy     :     2.000000
      f0      :     0.000000  f :     0.000000
      f+1     :     0.000000
      f-1     :     0.000000
      f+2     :     0.000000
      f-2     :     0.000000
      f+3     :     0.000000
      f-3     :     0.000000
      g0      :     0.000000  g :     0.000000
      g+1     :     0.000000
      g-1     :     0.000000
      g+2     :     0.000000
      g-2     :     0.000000
      g+3     :     0.000000
      g-3     :     0.000000
      g+4     :     0.000000
      g-4     :     0.000000

SPIN
  0 Ags       :     1.000000  s :     1.000000
      pz      :    -0.000000  p :     0.000000
      px      :     0.000000
      py      :     0.000000
      dz2     :     0.000000  d :     0.000000
      dxz     :     0.000000
      dyz     :    -0.000000
      dx2y2   :     0.000000
      dxy     :    -0.000000
      f0      :     0.000000  f :     0.000000
      f+1     :     0.000000
      f-1     :     0.000000
      f+2     :     0.000000
      f-2     :     0.000000
      f+3     :     0.000000
      f-3     :     0.000000
      g0      :     0.000000  g :     0.000000
      g+1     :     0.000000
      g-1     :     0.000000
      g+2     :     0.000000
      g-2     :     0.000000
      g+3     :     0.000000
      g-3     :     0.000000
      g+4     :     0.000000
      g-4     :     0.000000


                     *******************************
                     * LOEWDIN POPULATION ANALYSIS *
                     *******************************

-------------------------------------------
LOEWDIN ATOMIC CHARGES AND SPIN POPULATIONS
-------------------------------------------
   0 Ag:   -0.000000    1.000000

----------------------------------------------------
LOEWDIN REDUCED ORBITAL CHARGES AND SPIN POPULATIONS
----------------------------------------------------
CHARGE
  0 Ags       :     3.000000  s :     3.000000
      pz      :     2.000000  p :     6.000000
      px      :     2.000000
      py      :     2.000000
      dz2     :     2.000000  d :    10.000000
      dxz     :     2.000000
      dyz     :     2.000000
      dx2y2   :     2.000000
      dxy     :     2.000000
      f0      :     0.000000  f :     0.000000
      f+1     :     0.000000
      f-1     :     0.000000
      f+2     :     0.000000
      f-2     :     0.000000
      f+3     :     0.000000
      f-3     :     0.000000
      g0      :     0.000000  g :     0.000000
      g+1     :     0.000000
      g-1     :     0.000000
      g+2     :     0.000000
      g-2     :     0.000000
      g+3     :     0.000000
      g-3     :     0.000000
      g+4     :     0.000000
      g-4     :     0.000000

SPIN
  0 Ags       :     1.000000  s :     1.000000
      pz      :    -0.000000  p :     0.000000
      px      :     0.000000
      py      :     0.000000
      dz2     :     0.000000  d :     0.000000
      dxz     :     0.000000
      dyz     :    -0.000000
      dx2y2   :     0.000000
      dxy     :    -0.000000
      f0      :     0.000000  f :     0.000000
      f+1     :     0.000000
      f-1     :     0.000000
      f+2     :     0.000000
      f-2     :     0.000000
      f+3     :     0.000000
      f-3     :     0.000000
      g0      :     0.000000  g :     0.000000
      g+1     :     0.000000
      g-1     :     0.000000
      g+2     :     0.000000
      g-2     :     0.000000
      g+3     :     0.000000
      g-3     :     0.000000
      g+4     :     0.000000
      g-4     :     0.000000


                      *****************************
                      * MAYER POPULATION ANALYSIS *
                      *****************************

  NA   - Mulliken gross atomic population
  ZA   - Total nuclear charge
  QA   - Mulliken gross atomic charge
  VA   - Mayer's total valence
  BVA  - Mayer's bonded valence
  FA   - Mayer's free valence

  ATOM       NA         ZA         QA         VA         BVA        FA
  0 Ag    19.0000    19.0000    -0.0000     1.0005     0.0000     1.0005

  Mayer bond orders larger than 0.100000


-------
TIMINGS
-------

Total SCF time: 0 days 0 hours 0 min 7 sec 

Total time                  ....       7.414 sec
Sum of individual times     ....       6.831 sec  ( 92.1%)

Fock matrix formation       ....       5.021 sec  ( 67.7%)
  XC integration            ....       2.667 sec  ( 53.1% of F)
    Basis function eval.    ....       0.006 sec  (  0.2% of XC)
    Density eval.           ....       0.008 sec  (  0.3% of XC)
    XC-Functional eval.     ....       0.014 sec  (  0.5% of XC)
    XC-Potential eval.      ....       0.008 sec  (  0.3% of XC)
Diagonalization             ....       0.075 sec  (  1.0%)
Density matrix formation    ....       0.012 sec  (  0.2%)
Population analysis         ....       0.083 sec  (  1.1%)
Initial guess               ....       1.395 sec  ( 18.8%)
Orbital Transformation      ....       0.000 sec  (  0.0%)
Orbital Orthonormalization  ....       0.000 sec  (  0.0%)
DIIS solution               ....       0.063 sec  (  0.9%)
Grid generation             ....       0.182 sec  (  2.5%)

-------------------------   --------------------
FINAL SINGLE POINT ENERGY      -146.937122780951
-------------------------   --------------------


----------------------------------------------------------------------------
                           ORCA NUMERICAL GRADIENT
                              (28-process run)
----------------------------------------------------------------------------

I state                        ... 1
J state                        ... 0
Number of atoms                ... 1
Derivative's order of accuracy ... 2
Central differences            ... used
Number of displacements        ... 6
Numerical increment            ... 5.000e-03 bohr
Translation invariance         ... used

The output will be reduced. Please look at the following files:
SCF program output             ... >Ag.lastscf
Integral program output        ... >Ag.lastint
Gradient program output        ... >Ag.lastgrad


     Note:   There are more processes than displacements to do
     ===>:   Reducing number of processes to   0


------------------------------
CARTESIAN GRADIENT (NUMERICAL)
-------------------------------
   1   Ag  :    0.000000000    0.000000000    0.000000000

Norm of the cartesian gradient     ...    0.000000000
RMS gradient                       ...    0.000000000
MAX gradient                       ...    0.000000000
*** glibc detected *** /mnt/storage/software/apps/orca-4.2.0/orca_4_2_0_linux_x86-64_openmpi314/orca: free(): invalid next size (fast): 0x000000000df6e010 ***
======= Backtrace: =========
[0xb0928aa]
[0xb09567c]
[0x76d903]
[0x76fb95]
[0x915b4f]
[0x918f24]
[0x487649]
[0xb05c99e]
[0x4870d9]
======= Memory map: ========
00400000-0bf42000 r-xp 00000000 00:2b 4876154                            /mnt/storage/software/apps/orca-4.2.0/orca_4_2_0_linux_x86-64_openmpi314/orca
0c141000-0c203000 rw-p 0bb41000 00:2b 4876154                            /mnt/storage/software/apps/orca-4.2.0/orca_4_2_0_linux_x86-64_openmpi314/orca
0c203000-0c77a000 rw-p 00000000 00:00 0 
0decb000-0e137000 rw-p 00000000 00:00 0                                  [heap]
2b213c2f9000-2b213cafa000 rw-p 00000000 00:00 0 
2b213d2f9000-2b213f9bc000 rw-p 00000000 00:00 0 
2b2140000000-2b21400b3000 rw-p 00000000 00:00 0 
2b21400b3000-2b2144000000 ---p 00000000 00:00 0 
7ffccfd2e000-7ffccfe2f000 rw-p 00000000 00:00 0                          [stack]
7ffccffb4000-7ffccffb6000 r-xp 00000000 00:00 0                          [vdso]
ffffffffff600000-ffffffffff601000 r-xp 00000000 00:00 0                  [vsyscall]
