
                                 *****************
                                 * O   R   C   A *
                                 *****************

           --- An Ab Initio, DFT and Semiempirical electronic structure package ---

                  #######################################################
                  #                        -***-                        #
                  #          Department of theory and spectroscopy      #
                  #               Directorship: Frank Neese             #
                  #        Max Planck Institute fuer Kohlenforschung    #
                  #                Kaiser Wilhelm Platz 1               #
                  #                 D-45470 Muelheim/Ruhr               #
                  #                      Germany                        #
                  #                                                     #
                  #                  All rights reserved                #
                  #                        -***-                        #
                  #######################################################


                         Program Version 4.2.0 -  RELEASE  -


 With contributions from (in alphabetic order):
   Daniel Aravena         : Magnetic Suceptibility
   Michael Atanasov       : Ab Initio Ligand Field Theory (pilot matlab implementation)
   Alexander A. Auer      : GIAO ZORA, VPT2
   Ute Becker             : Parallelization
   Giovanni Bistoni       : ED, misc. LED, open-shell LED, HFLED
   Martin Brehm           : Molecular dynamics
   Dmytro Bykov           : SCF Hessian
   Vijay G. Chilkuri      : MRCI spin determinant printing, contributions to CSF-ICE
   Dipayan Datta          : RHF DLPNO-CCSD density
   Achintya Kumar Dutta   : EOM-CC, STEOM-CC
   Dmitry Ganyushin       : Spin-Orbit,Spin-Spin,Magnetic field MRCI
   Miquel Garcia          : C-PCM Hessian, Gaussian charge scheme
   Yang Guo               : DLPNO-NEVPT2, CIM, IAO-localization
   Andreas Hansen         : Spin unrestricted coupled pair/coupled cluster methods
   Benjamin Helmich-Paris : CASSCF linear response (MC-RPA)
   Lee Huntington         : MR-EOM, pCC
   Robert Izsak           : Overlap fitted RIJCOSX, COSX-SCS-MP3, EOM
   Christian Kollmar      : KDIIS, OOCD, Brueckner-CCSD(T), CCSD density
   Simone Kossmann        : Meta GGA functionals, TD-DFT gradient, OOMP2, MP2 Hessian
   Martin Krupicka        : AUTO-CI
   Lucas Lang             : DCDCAS
   Dagmar Lenk            : GEPOL surface, SMD
   Dimitrios Liakos       : Extrapolation schemes; Compound Job, initial MDCI parallelization
   Dimitrios Manganas     : Further ROCIS development; embedding schemes
   Dimitrios Pantazis     : SARC Basis sets
   Taras Petrenko         : DFT Hessian,TD-DFT gradient, ASA, ECA, R-Raman, ABS, FL, XAS/XES, NRVS
   Peter Pinski           : DLPNO-MP2, DLPNO-MP2 Gradient
   Christoph Reimann      : Effective Core Potentials
   Marius Retegan         : Local ZFS, SOC
   Christoph Riplinger    : Optimizer, TS searches, QM/MM, DLPNO-CCSD(T), (RO)-DLPNO pert. Triples
   Tobias Risthaus        : Range-separated hybrids, TD-DFT gradient, RPA, STAB
   Michael Roemelt        : Original ROCIS implementation
   Masaaki Saitow         : Open-shell DLPNO-CCSD energy and density
   Barbara Sandhoefer     : DKH picture change effects
   Avijit Sen             : IP-ROCIS
   Kantharuban Sivalingam : CASSCF convergence, NEVPT2, FIC-MRCI
   Bernardo de Souza      : ESD, SOC TD-DFT
   Georgi Stoychev        : AutoAux, RI-MP2 NMR
   Willem Van den Heuvel  : Paramagnetic NMR
   Boris Wezisla          : Elementary symmetry handling
   Frank Wennmohs         : Technical directorship


 We gratefully acknowledge several colleagues who have allowed us to
 interface, adapt or use parts of their codes:
   Stefan Grimme, W. Hujo, H. Kruse,             : VdW corrections, initial TS optimization,
                  C. Bannwarth                     DFT functionals, gCP, sTDA/sTD-DF
   Ed Valeev, F. Pavosevic, A. Kumar             : LibInt (2-el integral package), F12 methods
   Garnet Chan, S. Sharma, J. Yang, R. Olivares  : DMRG
   Ulf Ekstrom                                   : XCFun DFT Library
   Mihaly Kallay                                 : mrcc  (arbitrary order and MRCC methods)
   Andreas Klamt, Michael Diedenhofen            : otool_cosmo (COSMO solvation model)
   Jiri Pittner, Ondrej Demel                    : Mk-CCSD
   Frank Weinhold                                : gennbo (NPA and NBO analysis)
   Christopher J. Cramer and Donald G. Truhlar   : smd solvation model
   Lars Goerigk                                  : TD-DFT with DH, B97 family of functionals
   V. Asgeirsson, H. Jonsson                     : NEB implementation
   FAccTs GmbH                                   : IRC, NEB, NEB-TS, Multilevel, MM, QM/MM, CI optimization
   S Lehtola, MJT Oliveira, MAL Marques          : LibXC Library


 Your calculation uses the libint2 library for the computation of 2-el integrals
 For citations please refer to: http://libint.valeyev.net

 Your ORCA version has been built with support for libXC version: 4.2.3
 For citations please refer to: https://tddft.org/programs/libxc/

 This ORCA versions uses:
   CBLAS   interface :  Fast vector & matrix operations
   LAPACKE interface :  Fast linear algebra routines
   SCALAPACK package :  Parallel linear algebra routines


Your calculation utilizes the DFT-NL dispersion correction.
Cite in your paper:
Vydrov, O. A.; Van Voorhis, T. J. Chem. Phys. 2010, 133, 244103
Hujo, W.; Grimme, S. J. Chem. Theory Comput. 2011, 7, 3866 
   

----- Orbital basis set information -----
Your calculation utilizes the basis: def2-TZVPPD
   F. Weigend and R. Ahlrichs, Phys. Chem. Chem. Phys. 7, 3297 (2005).
   D. Rappoport and F. Furche, J. Chem. Phys. 133 134105 (2010).

----- AuxJK basis set information -----
Your calculation utilizes the auxiliary basis: def2/JK
   H-Ba, Hf-Rn: F. Weigend, J. Comput. Chem. 29, 167 (2008).

cite the ECPs for Ag [Def2-ECP] as follows:
Ce-Yb(ecp-28): M. Dolg, H. Stoll, H.Preuss, J. Chem. Phys., 1989, 90, 1730-1734.
Y-Cd(ecp-28), Hf-Hg(ecp-46): D. Andrae,U. Haeussermann, M. Dolg, H. Stoll, H. Preuss, Theor. Chim. Acta, 1990, 77, 123-141.
In-Sb(ecp-28), Tl-Bi(ecp-46): B. Metz, H. Stoll, M. Dolg, J. Chem. Phys., 2000, 113, 2563-2569.
Te-Xe(ecp-28), Po-Rn(ecp-46): K. A. Peterson, D. Figgen, E. Goll, H. Stoll, M. Dolg, J. Chem. Phys., 2003, 119, 11113-11123.
Rb(ecp-28), Cs(ecp-46): T. Leininger, A. Nicklass, W. Kuechle, H. Stoll, M. Dolg, A. Bergner, Chem. Phys. Lett., 1996, 255, 274-280.
Sr(ecp-28), Ba(ecp-46): M. Kaupp, P. V. Schleyer, H. Stoll and H. Preuss, J. Chem. Phys., 1991, 94, 1360-1366.
La(ecp-46): M. Dolg, H. Stoll, A. Savin, H. Preuss, Theor. Chim. Acta, 1989, 75, 173-194.
Lu(ecp-28): X. Cao, M. Dolg, J. Chem. Phys., 2001, 115, 7348-7355.

ECP parameters for Ag [Def2-ECP] have been obtained from:
TURBOMOLE (7.0.2)

================================================================================
                                        WARNINGS
                       Please study these warnings very carefully!
================================================================================

INFO   : Found keyword 'NumGrad' for Energy calculation
  ===> : Setting RunTyp to EnGrad

WARNING: Numerical Gradient with sloppy Convergence Criteria    
         Your results may be not reliable!                      
         Please choose at least TightSCF!                       

INFO   : the flag for use of LIBINT has been found!

================================================================================
                                       INPUT FILE
================================================================================
NAME = Ag2.in
|  1> #
|  2> # Ag2 wB97X-V/Def2-TZVPPD
|  3> #
|  4> ! wb97x-v def2-tzvppd def2/jk grid4 nofinalgrid numgrad
|  5> 
|  6> *xyz 0 1
|  7> Ag         0.00000        0.00000        0.00000
|  8> Ag         0.00000        0.00000        2.58711
|  9> *
| 10> 
| 11> %maxcore 5000
| 12> 
| 13> %pal
| 14> nprocs = 28
| 15> end
| 16> 
| 17> 
| 18>                          ****END OF INPUT****
================================================================================

                     *******************************
                     * Energy+Gradient Calculation *
                     *******************************

---------------------------------
CARTESIAN COORDINATES (ANGSTROEM)
---------------------------------
  Ag     0.000000    0.000000    0.000000
  Ag     0.000000    0.000000    2.587110

----------------------------
CARTESIAN COORDINATES (A.U.)
----------------------------
  NO LB      ZA    FRAG     MASS         X           Y           Z
   0 Ag   19.0000*   0   107.870    0.000000    0.000000    0.000000
   1 Ag   19.0000*   0   107.870    0.000000    0.000000    4.888929
* core charge reduced due to ECP

--------------------------------
INTERNAL COORDINATES (ANGSTROEM)
--------------------------------
 Ag     0   0   0     0.000000000000     0.00000000     0.00000000
 Ag     1   0   0     2.587110000000     0.00000000     0.00000000

---------------------------
INTERNAL COORDINATES (A.U.)
---------------------------
 Ag     0   0   0     0.000000000000     0.00000000     0.00000000
 Ag     1   0   0     4.888929378329     0.00000000     0.00000000

---------------------
BASIS SET INFORMATION
---------------------
There are 1 groups of distinct atoms

 Group   1 Type Ag  : 7s7p6d2f1g contracted to 6s4p3d2f1g pattern {211111/4111/411/11/1}

Atom   0Ag   basis set group =>   1
Atom   1Ag   basis set group =>   1
----------------------------------
AUXILIARY/JK BASIS SET INFORMATION
----------------------------------
There are 1 groups of distinct atoms

 Group   1 Type Ag  : 13s12p10d9f6g3h2i contracted to 11s10p9d8f6g3h2i pattern {31111111111/3111111111/211111111/21111111/111111/111/11}

Atom   0Ag   basis set group =>   1
Atom   1Ag   basis set group =>   1
-------------------------
ECP PARAMETER INFORMATION
-------------------------

 Group 1, Type Ag ECP Def2-ECP (replacing 28 core electrons, lmax=3)

Atom   0Ag   ECP group =>   1
Atom   1Ag   ECP group =>   1



           ************************************************************
           *        Program running with 28 parallel MPI-processes    *
           *              working on a common directory               *
           ************************************************************
------------------------------------------------------------------------------
                           ORCA GTO INTEGRAL CALCULATION
------------------------------------------------------------------------------

                         BASIS SET STATISTICS AND STARTUP INFO

 # of primitive gaussian shells          ...   46
 # of primitive gaussian functions       ...  162
 # of contracted shells                  ...   32
 # of contracted basis functions         ...  112
 Highest angular momentum                ...    4
 Maximum contraction depth               ...    4
 Integral package used                   ... LIBINT
 Integral threshhold            Thresh   ...  1.000e-10
 Primitive cut-off              TCut     ...  1.000e-11


------------------------------ INTEGRAL EVALUATION ----------------------------


 * One electron integrals 

   ECP integrals                         ... done
 Pre-screening matrix                    ... done
 Shell pair data                         ... done (   0.000 sec)



           ************************************************************
           *        Program running with 28 parallel MPI-processes    *
           *              working on a common directory               *
           ************************************************************
-------------------------------------------------------------------------------
                                 ORCA SCF
-------------------------------------------------------------------------------

------------
SCF SETTINGS
------------
Hamiltonian:
 Density Functional     Method          .... DFT(GTOs)
 Exchange Functional    Exchange        .... WB97X-V
 Correlation Functional Correlation     .... WB97X-V
 Gradients option       PostSCFGGA      .... off
 Hybrid DFT is turned on
   Fraction HF Exchange ScalHFX         ....  0.167000
   Scaling of DF-GGA-X  ScalDFX         ....  0.000000
   Scaling of DF-GGA-C  ScalDFC         ....  1.000000
   Scaling of DF-LDA-C  ScalLDAC        ....  1.000000
   Perturbative correction              ....  0.000000
   Density functional embedding theory  .... OFF
 Long-range corrected/Screened/Range-Separated Hybrid DFT is turned on
   Amount of maximum screened exact exchange              ....  0.833000
   Range separation parameter mu (erf(mu*r12)/r12)        ....  0.300000
   NL short-range parameter             ....  6.000000
   NL long-range parameter              ....  0.010000


General Settings:
 Integral files         IntName         .... Ag2
 Hartree-Fock type      HFTyp           .... RHF
 Total Charge           Charge          ....    0
 Multiplicity           Mult            ....    1
 Number of Electrons    NEL             ....   38
 Basis Dimension        Dim             ....  112
 Nuclear Repulsion      ENuc            ....     73.8402975507 Eh

Convergence Acceleration:
 DIIS                   CNVDIIS         .... on
   Start iteration      DIISMaxIt       ....    12
   Startup error        DIISStart       ....  0.200000
   # of expansion vecs  DIISMaxEq       ....     5
   Bias factor          DIISBfac        ....   1.050
   Max. coefficient     DIISMaxC        ....  10.000
 Newton-Raphson         CNVNR           .... off
 SOSCF                  CNVSOSCF        .... off
 Level Shifting         CNVShift        .... on
   Level shift para.    LevelShift      ....    0.2500
   Turn off err/grad.   ShiftErr        ....    0.0010
 Zerner damping         CNVZerner       .... off
 Static damping         CNVDamp         .... on
   Fraction old density DampFac         ....    0.7000
   Max. Damping (<1)    DampMax         ....    0.9800
   Min. Damping (>=0)   DampMin         ....    0.0000
   Turn off err/grad.   DampErr         ....    0.1000
 Fernandez-Rico         CNVRico         .... off

SCF Procedure:
 Maximum # iterations   MaxIter         ....   125
 SCF integral mode      SCFMode         .... Direct
   Integral package                     .... LIBINT
 Reset frequency        DirectResetFreq ....    20
 Integral Threshold     Thresh          ....  1.000e-10 Eh
 Primitive CutOff       TCut            ....  1.000e-11 Eh

Convergence Tolerance:
 Convergence Check Mode ConvCheckMode   .... Total+1el-Energy
 Convergence forced     ConvForced      .... 0
 Energy Change          TolE            ....  1.000e-06 Eh
 1-El. energy change                    ....  1.000e-03 Eh
 DIIS Error             TolErr          ....  1.000e-06


Diagonalization of the overlap matrix:
Smallest eigenvalue                        ... 4.719e-03
Time for diagonalization                   ...    0.002 sec
Threshold for overlap eigenvalues          ... 1.000e-08
Number of eigenvalues below threshold      ... 0
Time for construction of square roots      ...    0.016 sec
Total time needed                          ...    0.019 sec

-------------------
DFT GRID GENERATION
-------------------

General Integration Accuracy     IntAcc      ...  4.670
Radial Grid Type                 RadialGrid  ... Gauss-Chebyshev
Angular Grid (max. acc.)         AngularGrid ... Lebedev-302
Angular grid pruning method      GridPruning ... 3 (G Style)
Weight generation scheme         WeightScheme... Becke
Basis function cutoff            BFCut       ...    1.0000e-10
Integration weight cutoff        WCut        ...    1.0000e-14
Grids for H and He will be reduced by one unit

# of grid points (after initial pruning)     ...  21316 (   0.0 sec)
# of grid points (after weights+screening)   ...  21282 (   0.0 sec)
nearest neighbour list constructed           ...    0.0 sec
Grid point re-assignment to atoms done       ...    0.0 sec
Grid point division into batches done        ...    0.2 sec
Reduced shell lists constructed in    0.2 sec

Total number of grid points                  ...    21282
Total number of batches                      ...      334
Average number of points per batch           ...       63
Average number of grid points per atom       ...    10641
Average number of shells per batch           ...     1.00 ( 3.12%)
Average number of basis functions per batch  ...     2.08 ( 1.85%)
Average number of large shells per batch     ...     0.77 (76.92%)
Average number of large basis fcns per batch ...     1.85 (88.89%)
Maximum spatial batch extension              ...  31.14, 31.14, 19.99 au
Average spatial batch extension              ...   0.86,  0.86,  0.64 au

Time for grid setup =    0.259 sec

------------------------------
INITIAL GUESS: MODEL POTENTIAL
------------------------------
Loading Hartree-Fock densities                     ... done
  calling /mnt/storage/software/apps/orca-4.2.0/orca_4_2_0_linux_x86-64_openmpi314/orca Ag2_atom47.inp > Ag2_atom47.out in order to generate an atomic fitting density for atom 0 (Ag with ECP) on-the-fly... 
    atom 0 (Ag), assumed electronic state with S=2: 1s2 2s2 2p6 3s2 3p6 4s2 3d10 4p6 5s2 4d9           ... done
Calculating cut-offs                               ... done
Setting up the integral package                    ... done
Initializing the effective Hamiltonian             ... done
Starting the Coulomb interaction                   ... done (   0.0 sec)
Reading the grid                                   ... done
Mapping shells                                     ... done
Starting the XC term evaluation                    ... done (   0.0 sec)
  promolecular density results
     # of electrons  =     94.001387293
     EX              =   -225.052916569
     EC              =     -6.508577741
     EX+EC           =   -231.561494311
Transforming the Hamiltonian                       ... done (   0.0 sec)
Diagonalizing the Hamiltonian                      ... done (   0.0 sec)
Back transforming the eigenvectors                 ... done (   0.0 sec)
Now organizing SCF variables                       ... done
                      ------------------
                      INITIAL GUESS DONE (   2.7 sec)
                      ------------------
--------------
SCF ITERATIONS
--------------
ITER       Energy         Delta-E        Max-DP      RMS-DP      [F,P]     Damp
               ***  Starting incremental Fock matrix formation  ***
  0   -294.0093139043   0.000000000000 0.04705929  0.00156730  0.3758059 0.7000
  1   -294.0350060796  -0.025692175280 0.04270298  0.00133014  0.2748802 0.7000
                               ***Turning on DIIS***
  2   -294.0483951657  -0.013389086067 0.03197933  0.00098009  0.1990545 0.7000
  3   -294.0568418961  -0.008446730456 0.02442963  0.00074669  0.1422631 0.7000
  4   -294.0627018657  -0.005859969600 0.06597927  0.00188850  0.0985926 0.0000
  5   -294.0771860093  -0.014484143550 0.00698415  0.00018385  0.0029178 0.0000
  6   -294.0773059393  -0.000119930061 0.00307328  0.00009833  0.0021708 0.0000
  7   -294.0773599086  -0.000053969221 0.00288639  0.00010051  0.0015262 0.0000
  8   -294.0773990471  -0.000039138586 0.00212326  0.00008200  0.0008710 0.0000
  9   -294.0774130920  -0.000014044815 0.00059324  0.00001774  0.0002090 0.0000
 10   -294.0774136549  -0.000000562976 0.00012606  0.00000376  0.0000588 0.0000
                 **** Energy Check signals convergence ****

               *****************************************************
               *                     SUCCESS                       *
               *           SCF CONVERGED AFTER  11 CYCLES          *
               *****************************************************


Setting up the DFT-NL grid :

General Integration Accuracy     IntAcc      ...  4.340
Radial Grid Type                 RadialGrid  ... Gauss-Chebyshev
Angular Grid (max. acc.)         AngularGrid ... Lebedev-110
Angular grid pruning method      GridPruning ... 3 (G Style)
Weight generation scheme         WeightScheme... Becke
Basis function cutoff            BFCut       ...    1.0000e-10
Integration weight cutoff        WCut        ...    1.0000e-14
Grids for H and He will be reduced by one unit

# of grid points (after initial pruning)     ...   6516 (   0.0 sec)
# of grid points (after weights+screening)   ...   6484 (   0.0 sec)
nearest neighbour list constructed           ...    0.0 sec
Grid point re-assignment to atoms done       ...    0.0 sec
Grid point division into batches done        ...    0.0 sec
Reduced shell lists constructed in    0.0 sec

Total number of grid points                  ...     6484
Total number of batches                      ...      102
Average number of points per batch           ...       63
Average number of grid points per atom       ...     3242
Average number of shells per batch           ...     8.00 (25.00%)
Average number of basis functions per batch  ...    20.80 (18.57%)
Average number of large shells per batch     ...     5.20 (65.00%)
Average number of large basis fcns per batch ...    10.00 (48.08%)
Maximum spatial batch extension              ...  24.86, 37.49, 21.10 au
Average spatial batch extension              ...   0.92,  1.22,  0.83 au

Final grid set up in    0.1 sec

-------------------------------------------------------------------------------
                         DFT-NL dispersion correction                          
-------------------------------------------------------------------------------

SC Energy -294.077413712 
NL    Energy 0.147026219 
SC+NL Energy -293.930387493 
NL done in    0.1 sec
-------------------------------------------------------------------------------

----------------
TOTAL SCF ENERGY
----------------

Total Energy       :         -293.93038749 Eh           -7998.25247 eV

Components:
Nuclear Repulsion  :           73.84029755 Eh            2009.29665 eV
Electronic Energy  :         -367.77068504 Eh          -10007.54911 eV
One Electron Energy:         -670.60640590 Eh          -18248.12802 eV
Two Electron Energy:          302.83572085 Eh            8240.57891 eV

Virial components:
Potential Energy   :         -406.67986224 Eh          -11066.32165 eV
Kinetic Energy     :          112.74947475 Eh            3068.06919 eV
Virial Ratio       :            3.60693354


DFT components:
N(Alpha)           :       18.999987698547 electrons
N(Beta)            :       18.999987698547 electrons
N(Total)           :       37.999975397093 electrons
E(X)               :      -17.202299689966 Eh       
E(C)               :       -1.789001346453 Eh       
NL Energy, E(C,NL) :        0.147026219013 Eh       
E(XC)              :      -18.844274817406 Eh       
DFET-embed. en.    :        0.000000000000 Eh       

---------------
SCF CONVERGENCE
---------------

  Last Energy change         ...   -5.7261e-08  Tolerance :   1.0000e-06
  Last MAX-Density change    ...    1.2993e-04  Tolerance :   1.0000e-05
  Last RMS-Density change    ...    3.4951e-06  Tolerance :   1.0000e-06
  Last DIIS Error            ...    3.2323e-05  Tolerance :   1.0000e-06

             **** THE GBW FILE WAS UPDATED (Ag2.gbw) ****
             **** DENSITY FILE WAS UPDATED (Ag2.scfp) ****
             **** ENERGY FILE WAS UPDATED (Ag2.en.tmp) ****
             **** THE GBW FILE WAS UPDATED (Ag2.gbw) ****
             **** DENSITY FILE WAS UPDATED (Ag2.scfp) ****
----------------
ORBITAL ENERGIES
----------------

  NO   OCC          E(Eh)            E(eV) 
   0   2.0000      -3.821994      -104.0017 
   1   2.0000      -3.821535      -103.9893 
   2   2.0000      -2.424864       -65.9839 
   3   2.0000      -2.419535       -65.8389 
   4   2.0000      -2.419535       -65.8389 
   5   2.0000      -2.419072       -65.8263 
   6   2.0000      -2.419072       -65.8263 
   7   2.0000      -2.419066       -65.8261 
   8   2.0000      -0.455808       -12.4032 
   9   2.0000      -0.439530       -11.9602 
  10   2.0000      -0.439530       -11.9602 
  11   2.0000      -0.420292       -11.4367 
  12   2.0000      -0.420290       -11.4367 
  13   2.0000      -0.413043       -11.2395 
  14   2.0000      -0.413041       -11.2394 
  15   2.0000      -0.400808       -10.9065 
  16   2.0000      -0.400808       -10.9065 
  17   2.0000      -0.393504       -10.7078 
  18   2.0000      -0.269137        -7.3236 
  19   0.0000      -0.022711        -0.6180 
  20   0.0000       0.038474         1.0469 
  21   0.0000       0.038474         1.0469 
  22   0.0000       0.058953         1.6042 
  23   0.0000       0.098299         2.6749 
  24   0.0000       0.098299         2.6749 
  25   0.0000       0.142110         3.8670 
  26   0.0000       0.169204         4.6043 
  27   0.0000       0.211172         5.7463 
  28   0.0000       0.255530         6.9533 
  29   0.0000       0.262102         7.1322 
  30   0.0000       0.262102         7.1322 
  31   0.0000       0.324008         8.8167 
  32   0.0000       0.324008         8.8167 
  33   0.0000       0.464756        12.6466 
  34   0.0000       0.479549        13.0492 
  35   0.0000       0.479549        13.0492 
  36   0.0000       0.516044        14.0423 
  37   0.0000       0.516044        14.0423 
  38   0.0000       0.567834        15.4516 
  39   0.0000       0.567835        15.4516 
  40   0.0000       0.676598        18.4112 
  41   0.0000       0.685226        18.6459 
  42   0.0000       0.685226        18.6459 
  43   0.0000       0.812301        22.1038 
  44   0.0000       1.555668        42.3319 
  45   0.0000       1.671481        45.4833 
  46   0.0000       1.671481        45.4833 
  47   0.0000       1.710144        46.5354 
  48   0.0000       1.710144        46.5354 
  49   0.0000       1.722849        46.8811 
  50   0.0000       1.722849        46.8811 
  51   0.0000       1.724556        46.9276 
  52   0.0000       1.724556        46.9276 
  53   0.0000       1.734218        47.1905 
  54   0.0000       1.734218        47.1905 
  55   0.0000       1.735085        47.2141 
  56   0.0000       1.735086        47.2141 
  57   0.0000       1.736047        47.2403 
  58   0.0000       1.736047        47.2403 
  59   0.0000       1.754070        47.7307 
  60   0.0000       1.837054        49.9888 
  61   0.0000       1.847496        50.2729 
  62   0.0000       1.847496        50.2729 
  63   0.0000       1.867997        50.8308 
  64   0.0000       2.045979        55.6739 
  65   0.0000       2.162840        58.8539 
  66   0.0000       2.162853        58.8542 
  67   0.0000       2.189612        59.5824 
  68   0.0000       2.189612        59.5824 
  69   0.0000       2.198885        59.8347 
  70   0.0000       2.198894        59.8350 
  71   0.0000       2.259192        61.4757 
  72   0.0000       2.259192        61.4757 
  73   0.0000       2.271468        61.8098 
  74   0.0000       2.407782        65.5191 
  75   0.0000       2.455017        66.8044 
  76   0.0000       4.913811       133.7116 
  77   0.0000       4.918185       133.8306 
  78   0.0000       4.918185       133.8306 
  79   0.0000       4.950833       134.7190 
  80   0.0000       4.951079       134.7257 
  81   0.0000       4.959795       134.9629 
  82   0.0000       4.959795       134.9629 
  83   0.0000       4.961144       134.9996 
  84   0.0000       4.961144       134.9996 
  85   0.0000       4.970712       135.2600 
  86   0.0000       4.970959       135.2667 
  87   0.0000       5.042656       137.2176 
  88   0.0000       5.042656       137.2176 
  89   0.0000       5.225550       142.1944 
  90   0.0000       5.690344       154.8421 
  91   0.0000       5.690344       154.8421 
  92   0.0000       5.691641       154.8774 
  93   0.0000       5.691923       154.8851 
  94   0.0000       5.691985       154.8868 
  95   0.0000       5.692279       154.8948 
  96   0.0000       5.692338       154.8964 
  97   0.0000       5.693537       154.9290 
  98   0.0000       5.693537       154.9290 
  99   0.0000       5.693544       154.9292 
 100   0.0000       5.693544       154.9292 
 101   0.0000       5.693769       154.9353 
 102   0.0000       5.693769       154.9353 
 103   0.0000       5.694971       154.9680 
 104   0.0000       5.694973       154.9681 
 105   0.0000       5.695452       154.9811 
 106   0.0000       5.695452       154.9811 
 107   0.0000       5.703658       155.2044 
 108   0.0000      33.471423       910.8037 
 109   0.0000      33.715532       917.4463 
 110   0.0000     110.912330      3018.0779 
 111   0.0000     110.990816      3020.2136 

                    ********************************
                    * MULLIKEN POPULATION ANALYSIS *
                    ********************************

-----------------------
MULLIKEN ATOMIC CHARGES
-----------------------
   0 Ag:   -0.000000
   1 Ag:    0.000000
Sum of atomic charges:   -0.0000000

--------------------------------
MULLIKEN REDUCED ORBITAL CHARGES
--------------------------------
  0 Ags       :     2.960288  s :     2.960288
      pz      :     2.060955  p :     6.072596
      px      :     2.005821
      py      :     2.005821
      dz2     :     1.978180  d :     9.965829
      dxz     :     1.993892
      dyz     :     1.993892
      dx2y2   :     1.999933
      dxy     :     1.999933
      f0      :     0.000571  f :     0.001272
      f+1     :     0.000284
      f-1     :     0.000284
      f+2     :     0.000067
      f-2     :     0.000067
      f+3     :     0.000000
      f-3     :     0.000000
      g0      :     0.000007  g :     0.000014
      g+1     :     0.000003
      g-1     :     0.000003
      g+2     :     0.000000
      g-2     :     0.000000
      g+3     :     0.000000
      g-3     :     0.000000
      g+4     :     0.000000
      g-4     :     0.000000
  1 Ags       :     2.960288  s :     2.960288
      pz      :     2.060954  p :     6.072596
      px      :     2.005821
      py      :     2.005821
      dz2     :     1.978180  d :     9.965829
      dxz     :     1.993892
      dyz     :     1.993892
      dx2y2   :     1.999933
      dxy     :     1.999933
      f0      :     0.000571  f :     0.001272
      f+1     :     0.000284
      f-1     :     0.000284
      f+2     :     0.000067
      f-2     :     0.000067
      f+3     :     0.000000
      f-3     :     0.000000
      g0      :     0.000007  g :     0.000014
      g+1     :     0.000003
      g-1     :     0.000003
      g+2     :     0.000000
      g-2     :     0.000000
      g+3     :     0.000000
      g-3     :     0.000000
      g+4     :     0.000000
      g-4     :     0.000000


                     *******************************
                     * LOEWDIN POPULATION ANALYSIS *
                     *******************************

----------------------
LOEWDIN ATOMIC CHARGES
----------------------
   0 Ag:   -0.000000
   1 Ag:    0.000000

-------------------------------
LOEWDIN REDUCED ORBITAL CHARGES
-------------------------------
  0 Ags       :     2.892431  s :     2.892431
      pz      :     2.113157  p :     6.128828
      px      :     2.007835
      py      :     2.007835
      dz2     :     1.993626  d :     9.976981
      dxz     :     1.991751
      dyz     :     1.991751
      dx2y2   :     1.999926
      dxy     :     1.999926
      f0      :     0.000777  f :     0.001741
      f+1     :     0.000409
      f-1     :     0.000409
      f+2     :     0.000073
      f-2     :     0.000073
      f+3     :     0.000000
      f-3     :     0.000000
      g0      :     0.000009  g :     0.000018
      g+1     :     0.000004
      g-1     :     0.000004
      g+2     :     0.000001
      g-2     :     0.000001
      g+3     :     0.000000
      g-3     :     0.000000
      g+4     :     0.000000
      g-4     :     0.000000
  1 Ags       :     2.892431  s :     2.892431
      pz      :     2.113157  p :     6.128828
      px      :     2.007835
      py      :     2.007835
      dz2     :     1.993626  d :     9.976981
      dxz     :     1.991751
      dyz     :     1.991751
      dx2y2   :     1.999926
      dxy     :     1.999926
      f0      :     0.000777  f :     0.001741
      f+1     :     0.000409
      f-1     :     0.000409
      f+2     :     0.000073
      f-2     :     0.000073
      f+3     :     0.000000
      f-3     :     0.000000
      g0      :     0.000009  g :     0.000018
      g+1     :     0.000004
      g-1     :     0.000004
      g+2     :     0.000001
      g-2     :     0.000001
      g+3     :     0.000000
      g-3     :     0.000000
      g+4     :     0.000000
      g-4     :     0.000000


                      *****************************
                      * MAYER POPULATION ANALYSIS *
                      *****************************

  NA   - Mulliken gross atomic population
  ZA   - Total nuclear charge
  QA   - Mulliken gross atomic charge
  VA   - Mayer's total valence
  BVA  - Mayer's bonded valence
  FA   - Mayer's free valence

  ATOM       NA         ZA         QA         VA         BVA        FA
  0 Ag    19.0000    19.0000    -0.0000     1.0299     1.0299    -0.0000
  1 Ag    19.0000    19.0000     0.0000     1.0299     1.0299    -0.0000

  Mayer bond orders larger than 0.100000
B(  0-Ag,  1-Ag) :   1.0299 

-------
TIMINGS
-------

Total SCF time: 0 days 0 hours 0 min 10 sec 

Total time                  ....      10.266 sec
Sum of individual times     ....       9.740 sec  ( 94.9%)

Fock matrix formation       ....       6.674 sec  ( 65.0%)
  XC integration            ....       2.607 sec  ( 39.1% of F)
    Basis function eval.    ....       0.021 sec  (  0.8% of XC)
    Density eval.           ....       0.014 sec  (  0.5% of XC)
    XC-Functional eval.     ....       0.021 sec  (  0.8% of XC)
    XC-Potential eval.      ....       0.021 sec  (  0.8% of XC)
Diagonalization             ....       0.142 sec  (  1.4%)
Density matrix formation    ....       0.004 sec  (  0.0%)
Population analysis         ....       0.029 sec  (  0.3%)
Initial guess               ....       2.472 sec  ( 24.1%)
Orbital Transformation      ....       0.000 sec  (  0.0%)
Orbital Orthonormalization  ....       0.000 sec  (  0.0%)
DIIS solution               ....       0.107 sec  (  1.0%)
Grid generation             ....       0.311 sec  (  3.0%)

-------------------------   --------------------
FINAL SINGLE POINT ENERGY      -293.930387493189
-------------------------   --------------------


----------------------------------------------------------------------------
                           ORCA NUMERICAL GRADIENT
                              (28-process run)
----------------------------------------------------------------------------

I state                        ... 1
J state                        ... 0
Number of atoms                ... 2
Derivative's order of accuracy ... 2
Central differences            ... used
Number of displacements        ... 12
Numerical increment            ... 5.000e-03 bohr
Translation invariance         ... used

The output will be reduced. Please look at the following files:
SCF program output             ... >Ag2.lastscf
Integral program output        ... >Ag2.lastint
Gradient program output        ... >Ag2.lastgrad


     Note:   There are more processes than displacements to do
     ===>:   Reducing number of processes to   3

             <<<Displacing   2/coordinate 3 (+)>>>
             <<<Displacing   2/coordinate 2 (+)>>>
             <<<Displacing   2/coordinate 1 (+)>>>
             <<<Displacing   2/coordinate 1 (-)>>>
             <<<Displacing   2/coordinate 2 (-)>>>
             <<<Displacing   2/coordinate 3 (-)>>>

------------------------------
CARTESIAN GRADIENT (NUMERICAL)
-------------------------------
   1   Ag  :    0.000000000   -0.000000000   -0.003074791
   2   Ag  :   -0.000000000    0.000000000    0.003074791

Norm of the cartesian gradient     ...    0.004348411
RMS gradient                       ...    0.001775231
MAX gradient                       ...    0.003074791

-------
TIMINGS
-------

Total numerical gradient time      ...       19.500 sec


                            ***************************************
                            *     ORCA property calculations      *
                            ***************************************

                                    ---------------------
                                    Active property flags
                                    ---------------------
   (+) Dipole Moment


------------------------------------------------------------------------------
                       ORCA ELECTRIC PROPERTIES CALCULATION
------------------------------------------------------------------------------

Dipole Moment Calculation                       ... on
Quadrupole Moment Calculation                   ... off
Polarizability Calculation                      ... off
GBWName                                         ... Ag2.gbw
Electron density file                           ... Ag2.scfp
The origin for moment calculation is the CENTER OF MASS  = ( 0.000000,  0.000000  2.444465)

-------------
DIPOLE MOMENT
-------------
                                X             Y             Z
Electronic contribution:     -0.00000      -0.00000       0.00000
Nuclear contribution   :      0.00000       0.00000       0.00000
                        -----------------------------------------
Total Dipole Moment    :     -0.00000      -0.00000       0.00000
                        -----------------------------------------
Magnitude (a.u.)       :      0.00000
Magnitude (Debye)      :      0.00000



--------------------
Rotational spectrum 
--------------------
 
Rotational constants in cm-1:     0.000000     0.046698     0.046698 
Rotational constants in MHz :     0.000000  1399.964850  1399.964850 

 Dipole components along the rotational axes: 
x,y,z [a.u.] :     0.000000    -0.000000    -0.000000 
x,y,z [Debye]:     0.000000    -0.000000    -0.000000 

 

Timings for individual modules:

Sum of individual times         ...       31.570 sec (=   0.526 min)
GTO integral calculation        ...        1.220 sec (=   0.020 min)   3.9 %
SCF iterations                  ...       10.850 sec (=   0.181 min)  34.4 %
SCF Gradient evaluation         ...       19.500 sec (=   0.325 min)  61.8 %
                             ****ORCA TERMINATED NORMALLY****
TOTAL RUN TIME: 0 days 0 hours 0 minutes 32 seconds 363 msec
