
                                 *****************
                                 * O   R   C   A *
                                 *****************

           --- An Ab Initio, DFT and Semiempirical electronic structure package ---

                  #######################################################
                  #                        -***-                        #
                  #          Department of theory and spectroscopy      #
                  #               Directorship: Frank Neese             #
                  #        Max Planck Institute fuer Kohlenforschung    #
                  #                Kaiser Wilhelm Platz 1               #
                  #                 D-45470 Muelheim/Ruhr               #
                  #                      Germany                        #
                  #                                                     #
                  #                  All rights reserved                #
                  #                        -***-                        #
                  #######################################################


                         Program Version 4.2.0 -  RELEASE  -


 With contributions from (in alphabetic order):
   Daniel Aravena         : Magnetic Suceptibility
   Michael Atanasov       : Ab Initio Ligand Field Theory (pilot matlab implementation)
   Alexander A. Auer      : GIAO ZORA, VPT2
   Ute Becker             : Parallelization
   Giovanni Bistoni       : ED, misc. LED, open-shell LED, HFLED
   Martin Brehm           : Molecular dynamics
   Dmytro Bykov           : SCF Hessian
   Vijay G. Chilkuri      : MRCI spin determinant printing, contributions to CSF-ICE
   Dipayan Datta          : RHF DLPNO-CCSD density
   Achintya Kumar Dutta   : EOM-CC, STEOM-CC
   Dmitry Ganyushin       : Spin-Orbit,Spin-Spin,Magnetic field MRCI
   Miquel Garcia          : C-PCM Hessian, Gaussian charge scheme
   Yang Guo               : DLPNO-NEVPT2, CIM, IAO-localization
   Andreas Hansen         : Spin unrestricted coupled pair/coupled cluster methods
   Benjamin Helmich-Paris : CASSCF linear response (MC-RPA)
   Lee Huntington         : MR-EOM, pCC
   Robert Izsak           : Overlap fitted RIJCOSX, COSX-SCS-MP3, EOM
   Christian Kollmar      : KDIIS, OOCD, Brueckner-CCSD(T), CCSD density
   Simone Kossmann        : Meta GGA functionals, TD-DFT gradient, OOMP2, MP2 Hessian
   Martin Krupicka        : AUTO-CI
   Lucas Lang             : DCDCAS
   Dagmar Lenk            : GEPOL surface, SMD
   Dimitrios Liakos       : Extrapolation schemes; Compound Job, initial MDCI parallelization
   Dimitrios Manganas     : Further ROCIS development; embedding schemes
   Dimitrios Pantazis     : SARC Basis sets
   Taras Petrenko         : DFT Hessian,TD-DFT gradient, ASA, ECA, R-Raman, ABS, FL, XAS/XES, NRVS
   Peter Pinski           : DLPNO-MP2, DLPNO-MP2 Gradient
   Christoph Reimann      : Effective Core Potentials
   Marius Retegan         : Local ZFS, SOC
   Christoph Riplinger    : Optimizer, TS searches, QM/MM, DLPNO-CCSD(T), (RO)-DLPNO pert. Triples
   Tobias Risthaus        : Range-separated hybrids, TD-DFT gradient, RPA, STAB
   Michael Roemelt        : Original ROCIS implementation
   Masaaki Saitow         : Open-shell DLPNO-CCSD energy and density
   Barbara Sandhoefer     : DKH picture change effects
   Avijit Sen             : IP-ROCIS
   Kantharuban Sivalingam : CASSCF convergence, NEVPT2, FIC-MRCI
   Bernardo de Souza      : ESD, SOC TD-DFT
   Georgi Stoychev        : AutoAux, RI-MP2 NMR
   Willem Van den Heuvel  : Paramagnetic NMR
   Boris Wezisla          : Elementary symmetry handling
   Frank Wennmohs         : Technical directorship


 We gratefully acknowledge several colleagues who have allowed us to
 interface, adapt or use parts of their codes:
   Stefan Grimme, W. Hujo, H. Kruse,             : VdW corrections, initial TS optimization,
                  C. Bannwarth                     DFT functionals, gCP, sTDA/sTD-DF
   Ed Valeev, F. Pavosevic, A. Kumar             : LibInt (2-el integral package), F12 methods
   Garnet Chan, S. Sharma, J. Yang, R. Olivares  : DMRG
   Ulf Ekstrom                                   : XCFun DFT Library
   Mihaly Kallay                                 : mrcc  (arbitrary order and MRCC methods)
   Andreas Klamt, Michael Diedenhofen            : otool_cosmo (COSMO solvation model)
   Jiri Pittner, Ondrej Demel                    : Mk-CCSD
   Frank Weinhold                                : gennbo (NPA and NBO analysis)
   Christopher J. Cramer and Donald G. Truhlar   : smd solvation model
   Lars Goerigk                                  : TD-DFT with DH, B97 family of functionals
   V. Asgeirsson, H. Jonsson                     : NEB implementation
   FAccTs GmbH                                   : IRC, NEB, NEB-TS, Multilevel, MM, QM/MM, CI optimization
   S Lehtola, MJT Oliveira, MAL Marques          : LibXC Library


 Your calculation uses the libint2 library for the computation of 2-el integrals
 For citations please refer to: http://libint.valeyev.net

 Your ORCA version has been built with support for libXC version: 4.2.3
 For citations please refer to: https://tddft.org/programs/libxc/

 This ORCA versions uses:
   CBLAS   interface :  Fast vector & matrix operations
   LAPACKE interface :  Fast linear algebra routines
   SCALAPACK package :  Parallel linear algebra routines


Your calculation utilizes the DFT-NL dispersion correction.
Cite in your paper:
Vydrov, O. A.; Van Voorhis, T. J. Chem. Phys. 2010, 133, 244103
Hujo, W.; Grimme, S. J. Chem. Theory Comput. 2011, 7, 3866 
   

----- Orbital basis set information -----
Your calculation utilizes the basis: def2-TZVPPD
   F. Weigend and R. Ahlrichs, Phys. Chem. Chem. Phys. 7, 3297 (2005).
   D. Rappoport and F. Furche, J. Chem. Phys. 133 134105 (2010).

----- AuxJK basis set information -----
Your calculation utilizes the auxiliary basis: def2/JK
   H-Ba, Hf-Rn: F. Weigend, J. Comput. Chem. 29, 167 (2008).

cite the ECPs for Ag [Def2-ECP] as follows:
Ce-Yb(ecp-28): M. Dolg, H. Stoll, H.Preuss, J. Chem. Phys., 1989, 90, 1730-1734.
Y-Cd(ecp-28), Hf-Hg(ecp-46): D. Andrae,U. Haeussermann, M. Dolg, H. Stoll, H. Preuss, Theor. Chim. Acta, 1990, 77, 123-141.
In-Sb(ecp-28), Tl-Bi(ecp-46): B. Metz, H. Stoll, M. Dolg, J. Chem. Phys., 2000, 113, 2563-2569.
Te-Xe(ecp-28), Po-Rn(ecp-46): K. A. Peterson, D. Figgen, E. Goll, H. Stoll, M. Dolg, J. Chem. Phys., 2003, 119, 11113-11123.
Rb(ecp-28), Cs(ecp-46): T. Leininger, A. Nicklass, W. Kuechle, H. Stoll, M. Dolg, A. Bergner, Chem. Phys. Lett., 1996, 255, 274-280.
Sr(ecp-28), Ba(ecp-46): M. Kaupp, P. V. Schleyer, H. Stoll and H. Preuss, J. Chem. Phys., 1991, 94, 1360-1366.
La(ecp-46): M. Dolg, H. Stoll, A. Savin, H. Preuss, Theor. Chim. Acta, 1989, 75, 173-194.
Lu(ecp-28): X. Cao, M. Dolg, J. Chem. Phys., 2001, 115, 7348-7355.

ECP parameters for Ag [Def2-ECP] have been obtained from:
TURBOMOLE (7.0.2)

================================================================================
                                        WARNINGS
                       Please study these warnings very carefully!
================================================================================

INFO   : Found keyword 'NumGrad' for Energy calculation
  ===> : Setting RunTyp to EnGrad

WARNING: Numerical Gradient with sloppy Convergence Criteria    
         Your results may be not reliable!                      
         Please choose at least TightSCF!                       

INFO   : the flag for use of LIBINT has been found!

================================================================================
                                       INPUT FILE
================================================================================
NAME = AgH.in
|  1> #
|  2> # AgH wB97X-V/Def2-TZVPPD
|  3> #
|  4> ! wb97x-v def2-tzvppd def2/jk grid4 nofinalgrid numgrad
|  5> 
|  6> *xyz 0 1
|  7> Ag         0.00000        0.00000        0.00000
|  8> H          0.00000        0.00000        1.61800
|  9> *
| 10> 
| 11> %maxcore 5000
| 12> 
| 13> %pal
| 14> nprocs = 28
| 15> end
| 16> 
| 17> 
| 18>                          ****END OF INPUT****
================================================================================

                     *******************************
                     * Energy+Gradient Calculation *
                     *******************************

---------------------------------
CARTESIAN COORDINATES (ANGSTROEM)
---------------------------------
  Ag     0.000000    0.000000    0.000000
  H      0.000000    0.000000    1.618000

----------------------------
CARTESIAN COORDINATES (A.U.)
----------------------------
  NO LB      ZA    FRAG     MASS         X           Y           Z
   0 Ag   19.0000*   0   107.870    0.000000    0.000000    0.000000
   1 H     1.0000    0     1.008    0.000000    0.000000    3.057577
* core charge reduced due to ECP

--------------------------------
INTERNAL COORDINATES (ANGSTROEM)
--------------------------------
 Ag     0   0   0     0.000000000000     0.00000000     0.00000000
 H      1   0   0     1.618000000000     0.00000000     0.00000000

---------------------------
INTERNAL COORDINATES (A.U.)
---------------------------
 Ag     0   0   0     0.000000000000     0.00000000     0.00000000
 H      1   0   0     3.057576884685     0.00000000     0.00000000

---------------------
BASIS SET INFORMATION
---------------------
There are 2 groups of distinct atoms

 Group   1 Type Ag  : 7s7p6d2f1g contracted to 6s4p3d2f1g pattern {211111/4111/411/11/1}
 Group   2 Type H   : 5s3p1d contracted to 3s3p1d pattern {311/111/1}

Atom   0Ag   basis set group =>   1
Atom   1H    basis set group =>   2
----------------------------------
AUXILIARY/JK BASIS SET INFORMATION
----------------------------------
There are 2 groups of distinct atoms

 Group   1 Type Ag  : 13s12p10d9f6g3h2i contracted to 11s10p9d8f6g3h2i pattern {31111111111/3111111111/211111111/21111111/111111/111/11}
 Group   2 Type H   : 4s2p2d contracted to 2s2p2d pattern {31/11/11}

Atom   0Ag   basis set group =>   1
Atom   1H    basis set group =>   2
-------------------------
ECP PARAMETER INFORMATION
-------------------------

 Group 1, Type Ag ECP Def2-ECP (replacing 28 core electrons, lmax=3)

Atom   0Ag   ECP group =>   1



           ************************************************************
           *        Program running with 28 parallel MPI-processes    *
           *              working on a common directory               *
           ************************************************************
------------------------------------------------------------------------------
                           ORCA GTO INTEGRAL CALCULATION
------------------------------------------------------------------------------

                         BASIS SET STATISTICS AND STARTUP INFO

 # of primitive gaussian shells          ...   32
 # of primitive gaussian functions       ...  100
 # of contracted shells                  ...   23
 # of contracted basis functions         ...   73
 Highest angular momentum                ...    4
 Maximum contraction depth               ...    4
 Integral package used                   ... LIBINT
 Integral threshhold            Thresh   ...  1.000e-10
 Primitive cut-off              TCut     ...  1.000e-11


------------------------------ INTEGRAL EVALUATION ----------------------------


 * One electron integrals 

   ECP integrals                         ... done
 Pre-screening matrix                    ... done
 Shell pair data                         ... done (   0.000 sec)



           ************************************************************
           *        Program running with 28 parallel MPI-processes    *
           *              working on a common directory               *
           ************************************************************
-------------------------------------------------------------------------------
                                 ORCA SCF
-------------------------------------------------------------------------------

------------
SCF SETTINGS
------------
Hamiltonian:
 Density Functional     Method          .... DFT(GTOs)
 Exchange Functional    Exchange        .... WB97X-V
 Correlation Functional Correlation     .... WB97X-V
 Gradients option       PostSCFGGA      .... off
 Hybrid DFT is turned on
   Fraction HF Exchange ScalHFX         ....  0.167000
   Scaling of DF-GGA-X  ScalDFX         ....  0.000000
   Scaling of DF-GGA-C  ScalDFC         ....  1.000000
   Scaling of DF-LDA-C  ScalLDAC        ....  1.000000
   Perturbative correction              ....  0.000000
   Density functional embedding theory  .... OFF
 Long-range corrected/Screened/Range-Separated Hybrid DFT is turned on
   Amount of maximum screened exact exchange              ....  0.833000
   Range separation parameter mu (erf(mu*r12)/r12)        ....  0.300000
   NL short-range parameter             ....  6.000000
   NL long-range parameter              ....  0.010000


General Settings:
 Integral files         IntName         .... AgH
 Hartree-Fock type      HFTyp           .... RHF
 Total Charge           Charge          ....    0
 Multiplicity           Mult            ....    1
 Number of Electrons    NEL             ....   20
 Basis Dimension        Dim             ....   73
 Nuclear Repulsion      ENuc            ....      6.2140710493 Eh

Convergence Acceleration:
 DIIS                   CNVDIIS         .... on
   Start iteration      DIISMaxIt       ....    12
   Startup error        DIISStart       ....  0.200000
   # of expansion vecs  DIISMaxEq       ....     5
   Bias factor          DIISBfac        ....   1.050
   Max. coefficient     DIISMaxC        ....  10.000
 Newton-Raphson         CNVNR           .... off
 SOSCF                  CNVSOSCF        .... off
 Level Shifting         CNVShift        .... on
   Level shift para.    LevelShift      ....    0.2500
   Turn off err/grad.   ShiftErr        ....    0.0010
 Zerner damping         CNVZerner       .... off
 Static damping         CNVDamp         .... on
   Fraction old density DampFac         ....    0.7000
   Max. Damping (<1)    DampMax         ....    0.9800
   Min. Damping (>=0)   DampMin         ....    0.0000
   Turn off err/grad.   DampErr         ....    0.1000
 Fernandez-Rico         CNVRico         .... off

SCF Procedure:
 Maximum # iterations   MaxIter         ....   125
 SCF integral mode      SCFMode         .... Direct
   Integral package                     .... LIBINT
 Reset frequency        DirectResetFreq ....    20
 Integral Threshold     Thresh          ....  1.000e-10 Eh
 Primitive CutOff       TCut            ....  1.000e-11 Eh

Convergence Tolerance:
 Convergence Check Mode ConvCheckMode   .... Total+1el-Energy
 Convergence forced     ConvForced      .... 0
 Energy Change          TolE            ....  1.000e-06 Eh
 1-El. energy change                    ....  1.000e-03 Eh
 DIIS Error             TolErr          ....  1.000e-06


Diagonalization of the overlap matrix:
Smallest eigenvalue                        ... 3.417e-03
Time for diagonalization                   ...    0.001 sec
Threshold for overlap eigenvalues          ... 1.000e-08
Number of eigenvalues below threshold      ... 0
Time for construction of square roots      ...    0.021 sec
Total time needed                          ...    0.022 sec

-------------------
DFT GRID GENERATION
-------------------

General Integration Accuracy     IntAcc      ...  4.670
Radial Grid Type                 RadialGrid  ... Gauss-Chebyshev
Angular Grid (max. acc.)         AngularGrid ... Lebedev-302
Angular grid pruning method      GridPruning ... 3 (G Style)
Weight generation scheme         WeightScheme... Becke
Basis function cutoff            BFCut       ...    1.0000e-10
Integration weight cutoff        WCut        ...    1.0000e-14
Grids for H and He will be reduced by one unit

# of grid points (after initial pruning)     ...  14052 (   0.0 sec)
# of grid points (after weights+screening)   ...  13996 (   0.0 sec)
nearest neighbour list constructed           ...    0.0 sec
Grid point re-assignment to atoms done       ...    0.0 sec
Grid point division into batches done        ...    0.1 sec
Reduced shell lists constructed in    0.1 sec

Total number of grid points                  ...    13996
Total number of batches                      ...      220
Average number of points per batch           ...       63
Average number of grid points per atom       ...     6998
Average number of shells per batch           ...     1.78 ( 7.73%)
Average number of basis functions per batch  ...     3.56 ( 4.87%)
Average number of large shells per batch     ...     1.67 (93.75%)
Average number of large basis fcns per batch ...     3.44 (96.88%)
Maximum spatial batch extension              ...  40.43, 36.77, 24.61 au
Average spatial batch extension              ...   1.13,  0.98,  0.73 au

Time for grid setup =    0.135 sec

------------------------------
INITIAL GUESS: MODEL POTENTIAL
------------------------------
Loading Hartree-Fock densities                     ... done
  calling /mnt/storage/software/apps/orca-4.2.0/orca_4_2_0_linux_x86-64_openmpi314/orca AgH_atom47.inp > AgH_atom47.out in order to generate an atomic fitting density for atom 0 (Ag with ECP) on-the-fly... 
    atom 0 (Ag), assumed electronic state with S=2: 1s2 2s2 2p6 3s2 3p6 4s2 3d10 4p6 5s2 4d9           ... done
Calculating cut-offs                               ... done
Setting up the integral package                    ... done
Initializing the effective Hamiltonian             ... done
Starting the Coulomb interaction                   ... done (   0.0 sec)
Reading the grid                                   ... done
Mapping shells                                     ... done
Starting the XC term evaluation                    ... done (   0.0 sec)
  promolecular density results
     # of electrons  =     48.000708681
     EX              =   -112.644570612
     EC              =     -3.279016781
     EX+EC           =   -115.923587393
Transforming the Hamiltonian                       ... done (   0.0 sec)
Diagonalizing the Hamiltonian                      ... done (   0.0 sec)
Back transforming the eigenvectors                 ... done (   0.0 sec)
Now organizing SCF variables                       ... done
                      ------------------
                      INITIAL GUESS DONE (   1.8 sec)
                      ------------------
--------------
SCF ITERATIONS
--------------
ITER       Energy         Delta-E        Max-DP      RMS-DP      [F,P]     Damp
               ***  Starting incremental Fock matrix formation  ***
  0   -147.5407262011   0.000000000000 0.04723212  0.00201650  0.3668185 0.7000
  1   -147.5660011102  -0.025274909047 0.03502364  0.00146957  0.2727938 0.7000
                               ***Turning on DIIS***
  2   -147.5781205076  -0.012119397455 0.02686294  0.00100504  0.1997969 0.7000
  3   -147.5856190978  -0.007498590149 0.02044075  0.00085845  0.1434132 0.7000
  4   -147.5909195057  -0.005300407923 0.06050130  0.00236923  0.0990660 0.0000
  5   -147.6043005436  -0.013381037900 0.01209321  0.00039114  0.0067000 0.0000
  6   -147.6045348809  -0.000234337348 0.00996881  0.00028176  0.0045647 0.0000
  7   -147.6046549867  -0.000120105777 0.00916120  0.00026099  0.0031532 0.0000
  8   -147.6047441600  -0.000089173240 0.00488458  0.00013590  0.0018154 0.0000
  9   -147.6047717575  -0.000027597502 0.00215153  0.00006689  0.0010335 0.0000
 10   -147.6047799050  -0.000008147572 0.00197589  0.00006269  0.0005730 0.0000
 11   -147.6047827618  -0.000002856763 0.00022562  0.00000789  0.0000766 0.0000
                 **** Energy Check signals convergence ****

               *****************************************************
               *                     SUCCESS                       *
               *           SCF CONVERGED AFTER  12 CYCLES          *
               *****************************************************


Setting up the DFT-NL grid :

General Integration Accuracy     IntAcc      ...  4.340
Radial Grid Type                 RadialGrid  ... Gauss-Chebyshev
Angular Grid (max. acc.)         AngularGrid ... Lebedev-110
Angular grid pruning method      GridPruning ... 3 (G Style)
Weight generation scheme         WeightScheme... Becke
Basis function cutoff            BFCut       ...    1.0000e-10
Integration weight cutoff        WCut        ...    1.0000e-14
Grids for H and He will be reduced by one unit

# of grid points (after initial pruning)     ...   4052 (   0.0 sec)
# of grid points (after weights+screening)   ...   4023 (   0.0 sec)
nearest neighbour list constructed           ...    0.0 sec
Grid point re-assignment to atoms done       ...    0.0 sec
Grid point division into batches done        ...    0.0 sec
Reduced shell lists constructed in    0.0 sec

Total number of grid points                  ...     4023
Total number of batches                      ...       64
Average number of points per batch           ...       62
Average number of grid points per atom       ...     2012
Average number of shells per batch           ...     5.25 (22.83%)
Average number of basis functions per batch  ...    12.75 (17.47%)
Average number of large shells per batch     ...     5.25 (100.00%)
Average number of large basis fcns per batch ...    12.75 (100.00%)
Maximum spatial batch extension              ...  26.33, 48.08, 25.46 au
Average spatial batch extension              ...   1.14,  1.92,  1.15 au

Final grid set up in    0.1 sec

-------------------------------------------------------------------------------
                         DFT-NL dispersion correction                          
-------------------------------------------------------------------------------

SC Energy -147.604782814 
NL    Energy 0.078797996 
SC+NL Energy -147.525984817 
NL done in    0.0 sec
-------------------------------------------------------------------------------

----------------
TOTAL SCF ENERGY
----------------

Total Energy       :         -147.52598482 Eh           -4014.38613 eV

Components:
Nuclear Repulsion  :            6.21407105 Eh             169.09347 eV
Electronic Energy  :         -153.74005587 Eh           -4183.47960 eV
One Electron Energy:         -273.97035193 Eh           -7455.11229 eV
Two Electron Energy:          120.23029607 Eh            3271.63268 eV

Virial components:
Potential Energy   :         -204.35813919 Eh           -5560.86768 eV
Kinetic Energy     :           56.83215438 Eh            1546.48154 eV
Virial Ratio       :            3.59581898


DFT components:
N(Alpha)           :        9.999999030953 electrons
N(Beta)            :        9.999999030953 electrons
N(Total)           :       19.999998061907 electrons
E(X)               :       -8.728443380951 Eh       
E(C)               :       -0.920319517459 Eh       
NL Energy, E(C,NL) :        0.078797996378 Eh       
E(XC)              :       -9.569964902033 Eh       
DFET-embed. en.    :        0.000000000000 Eh       

---------------
SCF CONVERGENCE
---------------

  Last Energy change         ...   -5.2014e-08  Tolerance :   1.0000e-06
  Last MAX-Density change    ...    7.7751e-05  Tolerance :   1.0000e-05
  Last RMS-Density change    ...    2.8147e-06  Tolerance :   1.0000e-06
  Last DIIS Error            ...    4.4727e-05  Tolerance :   1.0000e-06

             **** THE GBW FILE WAS UPDATED (AgH.gbw) ****
             **** DENSITY FILE WAS UPDATED (AgH.scfp) ****
             **** ENERGY FILE WAS UPDATED (AgH.en.tmp) ****
             **** THE GBW FILE WAS UPDATED (AgH.gbw) ****
             **** DENSITY FILE WAS UPDATED (AgH.scfp) ****
----------------
ORBITAL ENERGIES
----------------

  NO   OCC          E(Eh)            E(eV) 
   0   2.0000      -3.851069      -104.7929 
   1   2.0000      -2.453314       -66.7581 
   2   2.0000      -2.446803       -66.5809 
   3   2.0000      -2.446803       -66.5809 
   4   2.0000      -0.490467       -13.3463 
   5   2.0000      -0.448176       -12.1955 
   6   2.0000      -0.448176       -12.1955 
   7   2.0000      -0.441349       -12.0097 
   8   2.0000      -0.441349       -12.0097 
   9   2.0000      -0.333093        -9.0639 
  10   0.0000      -0.011535        -0.3139 
  11   0.0000       0.051244         1.3944 
  12   0.0000       0.051244         1.3944 
  13   0.0000       0.124957         3.4003 
  14   0.0000       0.157001         4.2722 
  15   0.0000       0.239842         6.5264 
  16   0.0000       0.239842         6.5264 
  17   0.0000       0.247507         6.7350 
  18   0.0000       0.297460         8.0943 
  19   0.0000       0.297460         8.0943 
  20   0.0000       0.469996        12.7892 
  21   0.0000       0.505077        13.7438 
  22   0.0000       0.505077        13.7438 
  23   0.0000       0.531315        14.4578 
  24   0.0000       0.608084        16.5468 
  25   0.0000       0.608084        16.5468 
  26   0.0000       0.680880        18.5277 
  27   0.0000       0.967954        26.3394 
  28   0.0000       0.967954        26.3394 
  29   0.0000       1.171849        31.8876 
  30   0.0000       1.691158        46.0188 
  31   0.0000       1.691162        46.0189 
  32   0.0000       1.701158        46.2909 
  33   0.0000       1.701158        46.2909 
  34   0.0000       1.711334        46.5678 
  35   0.0000       1.711334        46.5678 
  36   0.0000       1.769051        48.1383 
  37   0.0000       1.769051        48.1383 
  38   0.0000       1.776043        48.3286 
  39   0.0000       1.962581        53.4045 
  40   0.0000       2.134978        58.0957 
  41   0.0000       2.152784        58.5802 
  42   0.0000       2.152790        58.5804 
  43   0.0000       2.214241        60.2526 
  44   0.0000       2.214241        60.2526 
  45   0.0000       2.343226        63.7624 
  46   0.0000       2.765792        75.2610 
  47   0.0000       3.353666        91.2579 
  48   0.0000       3.353727        91.2596 
  49   0.0000       3.569516        97.1315 
  50   0.0000       3.569516        97.1315 
  51   0.0000       3.994523       108.6965 
  52   0.0000       3.994523       108.6965 
  53   0.0000       4.035444       109.8100 
  54   0.0000       4.634047       126.0988 
  55   0.0000       4.933954       134.2597 
  56   0.0000       4.933954       134.2597 
  57   0.0000       4.945846       134.5833 
  58   0.0000       4.945850       134.5834 
  59   0.0000       5.117392       139.2513 
  60   0.0000       5.117392       139.2513 
  61   0.0000       5.320683       144.7831 
  62   0.0000       5.667832       154.2295 
  63   0.0000       5.667832       154.2295 
  64   0.0000       5.670115       154.2917 
  65   0.0000       5.670120       154.2918 
  66   0.0000       5.671257       154.3227 
  67   0.0000       5.671278       154.3233 
  68   0.0000       5.796353       157.7268 
  69   0.0000       5.796353       157.7268 
  70   0.0000       6.238933       169.7700 
  71   0.0000      33.666602       916.1148 
  72   0.0000     110.951497      3019.1437 

                    ********************************
                    * MULLIKEN POPULATION ANALYSIS *
                    ********************************

-----------------------
MULLIKEN ATOMIC CHARGES
-----------------------
   0 Ag:    0.051062
   1 H :   -0.051062
Sum of atomic charges:    0.0000000

--------------------------------
MULLIKEN REDUCED ORBITAL CHARGES
--------------------------------
  0 Ags       :     2.933595  s :     2.933595
      pz      :     2.128666  p :     6.129682
      px      :     2.000508
      py      :     2.000508
      dz2     :     1.898228  d :     9.883787
      dxz     :     1.992942
      dyz     :     1.992942
      dx2y2   :     1.999838
      dxy     :     1.999838
      f0      :     0.001358  f :     0.001834
      f+1     :     0.000112
      f-1     :     0.000112
      f+2     :     0.000127
      f-2     :     0.000127
      f+3     :     0.000000
      f-3     :     0.000000
      g0      :     0.000033  g :     0.000040
      g+1     :     0.000003
      g-1     :     0.000003
      g+2     :     0.000001
      g-2     :     0.000001
      g+3     :     0.000000
      g-3     :     0.000000
      g+4     :     0.000000
      g-4     :     0.000000
  1 H s       :     1.041529  s :     1.041529
      pz      :    -0.004390  p :     0.007290
      px      :     0.005840
      py      :     0.005840
      dz2     :     0.000982  d :     0.002243
      dxz     :     0.000596
      dyz     :     0.000596
      dx2y2   :     0.000035
      dxy     :     0.000035


                     *******************************
                     * LOEWDIN POPULATION ANALYSIS *
                     *******************************

----------------------
LOEWDIN ATOMIC CHARGES
----------------------
   0 Ag:    0.319969
   1 H :   -0.319969

-------------------------------
LOEWDIN REDUCED ORBITAL CHARGES
-------------------------------
  0 Ags       :     2.726091  s :     2.726091
      pz      :     2.113093  p :     6.111087
      px      :     1.998997
      py      :     1.998997
      dz2     :     1.897529  d :     9.839263
      dxz     :     1.971222
      dyz     :     1.971222
      dx2y2   :     1.999645
      dxy     :     1.999645
      f0      :     0.002721  f :     0.003544
      f+1     :     0.000282
      f-1     :     0.000282
      f+2     :     0.000129
      f-2     :     0.000129
      f+3     :     0.000000
      f-3     :     0.000000
      g0      :     0.000046  g :     0.000047
      g+1     :     0.000000
      g-1     :     0.000000
      g+2     :     0.000000
      g-2     :     0.000000
      g+3     :     0.000000
      g-3     :     0.000000
      g+4     :     0.000000
      g-4     :     0.000000
  1 H s       :     1.143326  s :     1.143326
      pz      :     0.107335  p :     0.157870
      px      :     0.025268
      py      :     0.025268
      dz2     :     0.009860  d :     0.018773
      dxz     :     0.004231
      dyz     :     0.004231
      dx2y2   :     0.000225
      dxy     :     0.000225


                      *****************************
                      * MAYER POPULATION ANALYSIS *
                      *****************************

  NA   - Mulliken gross atomic population
  ZA   - Total nuclear charge
  QA   - Mulliken gross atomic charge
  VA   - Mayer's total valence
  BVA  - Mayer's bonded valence
  FA   - Mayer's free valence

  ATOM       NA         ZA         QA         VA         BVA        FA
  0 Ag    18.9489    19.0000     0.0511     1.0577     1.0577     0.0000
  1 H      1.0511     1.0000    -0.0511     1.0577     1.0577     0.0000

  Mayer bond orders larger than 0.100000
B(  0-Ag,  1-H ) :   1.0577 

-------
TIMINGS
-------

Total SCF time: 0 days 0 hours 0 min 14 sec 

Total time                  ....      14.549 sec
Sum of individual times     ....      13.915 sec  ( 95.6%)

Fock matrix formation       ....      11.718 sec  ( 80.5%)
  XC integration            ....       8.564 sec  ( 73.1% of F)
    Basis function eval.    ....       0.011 sec  (  0.1% of XC)
    Density eval.           ....       0.008 sec  (  0.1% of XC)
    XC-Functional eval.     ....       0.019 sec  (  0.2% of XC)
    XC-Potential eval.      ....       0.009 sec  (  0.1% of XC)
Diagonalization             ....       0.156 sec  (  1.1%)
Density matrix formation    ....       0.006 sec  (  0.0%)
Population analysis         ....       0.041 sec  (  0.3%)
Initial guess               ....       1.650 sec  ( 11.3%)
Orbital Transformation      ....       0.000 sec  (  0.0%)
Orbital Orthonormalization  ....       0.000 sec  (  0.0%)
DIIS solution               ....       0.089 sec  (  0.6%)
Grid generation             ....       0.254 sec  (  1.7%)

-------------------------   --------------------
FINAL SINGLE POINT ENERGY      -147.525984817425
-------------------------   --------------------


----------------------------------------------------------------------------
                           ORCA NUMERICAL GRADIENT
                              (28-process run)
----------------------------------------------------------------------------

I state                        ... 1
J state                        ... 0
Number of atoms                ... 2
Derivative's order of accuracy ... 2
Central differences            ... used
Number of displacements        ... 12
Numerical increment            ... 5.000e-03 bohr
Translation invariance         ... used

The output will be reduced. Please look at the following files:
SCF program output             ... >AgH.lastscf
Integral program output        ... >AgH.lastint
Gradient program output        ... >AgH.lastgrad


     Note:   There are more processes than displacements to do
     ===>:   Reducing number of processes to   3

             <<<Displacing   2/coordinate 3 (+)>>>
             <<<Displacing   2/coordinate 2 (+)>>>
             <<<Displacing   2/coordinate 1 (+)>>>
             <<<Displacing   2/coordinate 3 (-)>>>
             <<<Displacing   2/coordinate 2 (-)>>>
             <<<Displacing   2/coordinate 1 (-)>>>

------------------------------
CARTESIAN GRADIENT (NUMERICAL)
-------------------------------
   1   Ag  :   -0.000000000    0.000000000    0.001906260
   2   H   :    0.000000000   -0.000000000   -0.001906260

Norm of the cartesian gradient     ...    0.002695858
RMS gradient                       ...    0.001100580
MAX gradient                       ...    0.001906260

-------
TIMINGS
-------

Total numerical gradient time      ...        8.436 sec


                            ***************************************
                            *     ORCA property calculations      *
                            ***************************************

                                    ---------------------
                                    Active property flags
                                    ---------------------
   (+) Dipole Moment


------------------------------------------------------------------------------
                       ORCA ELECTRIC PROPERTIES CALCULATION
------------------------------------------------------------------------------

Dipole Moment Calculation                       ... on
Quadrupole Moment Calculation                   ... off
Polarizability Calculation                      ... off
GBWName                                         ... AgH.gbw
Electron density file                           ... AgH.scfp
The origin for moment calculation is the CENTER OF MASS  = ( 0.000000,  0.000000  0.028307)

-------------
DIPOLE MOMENT
-------------
                                X             Y             Z
Electronic contribution:     -0.00000       0.00000      -3.81033
Nuclear contribution   :      0.00000       0.00000       2.49143
                        -----------------------------------------
Total Dipole Moment    :     -0.00000       0.00000      -1.31890
                        -----------------------------------------
Magnitude (a.u.)       :      1.31890
Magnitude (Debye)      :      3.35238



--------------------
Rotational spectrum 
--------------------
 
Rotational constants in cm-1:     0.000000     6.447907     6.447907 
Rotational constants in MHz :     0.000000 193303.400141 193303.400141 

 Dipole components along the rotational axes: 
x,y,z [a.u.] :    -1.318899     0.000000    -0.000000 
x,y,z [Debye]:    -3.352376     0.000000    -0.000000 

 

Timings for individual modules:

Sum of individual times         ...       25.091 sec (=   0.418 min)
GTO integral calculation        ...        1.518 sec (=   0.025 min)   6.0 %
SCF iterations                  ...       15.137 sec (=   0.252 min)  60.3 %
SCF Gradient evaluation         ...        8.436 sec (=   0.141 min)  33.6 %
                             ****ORCA TERMINATED NORMALLY****
TOTAL RUN TIME: 0 days 0 hours 0 minutes 25 seconds 847 msec
