
                                 *****************
                                 * O   R   C   A *
                                 *****************

           --- An Ab Initio, DFT and Semiempirical electronic structure package ---

                  #######################################################
                  #                        -***-                        #
                  #          Department of theory and spectroscopy      #
                  #               Directorship: Frank Neese             #
                  #        Max Planck Institute fuer Kohlenforschung    #
                  #                Kaiser Wilhelm Platz 1               #
                  #                 D-45470 Muelheim/Ruhr               #
                  #                      Germany                        #
                  #                                                     #
                  #                  All rights reserved                #
                  #                        -***-                        #
                  #######################################################


                         Program Version 4.2.0 -  RELEASE  -


 With contributions from (in alphabetic order):
   Daniel Aravena         : Magnetic Suceptibility
   Michael Atanasov       : Ab Initio Ligand Field Theory (pilot matlab implementation)
   Alexander A. Auer      : GIAO ZORA, VPT2
   Ute Becker             : Parallelization
   Giovanni Bistoni       : ED, misc. LED, open-shell LED, HFLED
   Martin Brehm           : Molecular dynamics
   Dmytro Bykov           : SCF Hessian
   Vijay G. Chilkuri      : MRCI spin determinant printing, contributions to CSF-ICE
   Dipayan Datta          : RHF DLPNO-CCSD density
   Achintya Kumar Dutta   : EOM-CC, STEOM-CC
   Dmitry Ganyushin       : Spin-Orbit,Spin-Spin,Magnetic field MRCI
   Miquel Garcia          : C-PCM Hessian, Gaussian charge scheme
   Yang Guo               : DLPNO-NEVPT2, CIM, IAO-localization
   Andreas Hansen         : Spin unrestricted coupled pair/coupled cluster methods
   Benjamin Helmich-Paris : CASSCF linear response (MC-RPA)
   Lee Huntington         : MR-EOM, pCC
   Robert Izsak           : Overlap fitted RIJCOSX, COSX-SCS-MP3, EOM
   Christian Kollmar      : KDIIS, OOCD, Brueckner-CCSD(T), CCSD density
   Simone Kossmann        : Meta GGA functionals, TD-DFT gradient, OOMP2, MP2 Hessian
   Martin Krupicka        : AUTO-CI
   Lucas Lang             : DCDCAS
   Dagmar Lenk            : GEPOL surface, SMD
   Dimitrios Liakos       : Extrapolation schemes; Compound Job, initial MDCI parallelization
   Dimitrios Manganas     : Further ROCIS development; embedding schemes
   Dimitrios Pantazis     : SARC Basis sets
   Taras Petrenko         : DFT Hessian,TD-DFT gradient, ASA, ECA, R-Raman, ABS, FL, XAS/XES, NRVS
   Peter Pinski           : DLPNO-MP2, DLPNO-MP2 Gradient
   Christoph Reimann      : Effective Core Potentials
   Marius Retegan         : Local ZFS, SOC
   Christoph Riplinger    : Optimizer, TS searches, QM/MM, DLPNO-CCSD(T), (RO)-DLPNO pert. Triples
   Tobias Risthaus        : Range-separated hybrids, TD-DFT gradient, RPA, STAB
   Michael Roemelt        : Original ROCIS implementation
   Masaaki Saitow         : Open-shell DLPNO-CCSD energy and density
   Barbara Sandhoefer     : DKH picture change effects
   Avijit Sen             : IP-ROCIS
   Kantharuban Sivalingam : CASSCF convergence, NEVPT2, FIC-MRCI
   Bernardo de Souza      : ESD, SOC TD-DFT
   Georgi Stoychev        : AutoAux, RI-MP2 NMR
   Willem Van den Heuvel  : Paramagnetic NMR
   Boris Wezisla          : Elementary symmetry handling
   Frank Wennmohs         : Technical directorship


 We gratefully acknowledge several colleagues who have allowed us to
 interface, adapt or use parts of their codes:
   Stefan Grimme, W. Hujo, H. Kruse,             : VdW corrections, initial TS optimization,
                  C. Bannwarth                     DFT functionals, gCP, sTDA/sTD-DF
   Ed Valeev, F. Pavosevic, A. Kumar             : LibInt (2-el integral package), F12 methods
   Garnet Chan, S. Sharma, J. Yang, R. Olivares  : DMRG
   Ulf Ekstrom                                   : XCFun DFT Library
   Mihaly Kallay                                 : mrcc  (arbitrary order and MRCC methods)
   Andreas Klamt, Michael Diedenhofen            : otool_cosmo (COSMO solvation model)
   Jiri Pittner, Ondrej Demel                    : Mk-CCSD
   Frank Weinhold                                : gennbo (NPA and NBO analysis)
   Christopher J. Cramer and Donald G. Truhlar   : smd solvation model
   Lars Goerigk                                  : TD-DFT with DH, B97 family of functionals
   V. Asgeirsson, H. Jonsson                     : NEB implementation
   FAccTs GmbH                                   : IRC, NEB, NEB-TS, Multilevel, MM, QM/MM, CI optimization
   S Lehtola, MJT Oliveira, MAL Marques          : LibXC Library


 Your calculation uses the libint2 library for the computation of 2-el integrals
 For citations please refer to: http://libint.valeyev.net

 Your ORCA version has been built with support for libXC version: 4.2.3
 For citations please refer to: https://tddft.org/programs/libxc/

 This ORCA versions uses:
   CBLAS   interface :  Fast vector & matrix operations
   LAPACKE interface :  Fast linear algebra routines
   SCALAPACK package :  Parallel linear algebra routines


Your calculation utilizes the DFT-NL dispersion correction.
Cite in your paper:
Vydrov, O. A.; Van Voorhis, T. J. Chem. Phys. 2010, 133, 244103
Hujo, W.; Grimme, S. J. Chem. Theory Comput. 2011, 7, 3866 
   

----- Orbital basis set information -----
Your calculation utilizes the basis: def2-TZVPPD
   F. Weigend and R. Ahlrichs, Phys. Chem. Chem. Phys. 7, 3297 (2005).
   D. Rappoport and F. Furche, J. Chem. Phys. 133 134105 (2010).

----- AuxJK basis set information -----
Your calculation utilizes the auxiliary basis: def2/JK
   H-Ba, Hf-Rn: F. Weigend, J. Comput. Chem. 29, 167 (2008).

================================================================================
                                        WARNINGS
                       Please study these warnings very carefully!
================================================================================

INFO   : Found keyword 'NumGrad' for Energy calculation
  ===> : Setting RunTyp to EnGrad

WARNING: Numerical Gradient with sloppy Convergence Criteria    
         Your results may be not reliable!                      
         Please choose at least TightSCF!                       

WARNING: your system is open-shell and RHF/RKS was chosen
  ===> : WILL SWITCH to UHF/UKS


INFO   : the flag for use of LIBINT has been found!

================================================================================
                                       INPUT FILE
================================================================================
NAME = al.in
|  1> #
|  2> # al wB97X-V/Def2-TZVPPD
|  3> #
|  4> ! wb97x-v def2-tzvppd def2/jk grid4 nofinalgrid numgrad
|  5> 
|  6> *xyz 0 2
|  7> Al         0.00000        0.00000        0.00000
|  8> *
|  9> 
| 10> %maxcore 5000
| 11> 
| 12> %pal
| 13> nprocs = 28
| 14> end
| 15> 
| 16> 
| 17>                          ****END OF INPUT****
================================================================================

                     *******************************
                     * Energy+Gradient Calculation *
                     *******************************

---------------------------------
CARTESIAN COORDINATES (ANGSTROEM)
---------------------------------
  Al     0.000000    0.000000    0.000000

----------------------------
CARTESIAN COORDINATES (A.U.)
----------------------------
  NO LB      ZA    FRAG     MASS         X           Y           Z
   0 Al   13.0000    0    26.982    0.000000    0.000000    0.000000

--------------------------------
INTERNAL COORDINATES (ANGSTROEM)
--------------------------------
 Al     0   0   0     0.000000000000     0.00000000     0.00000000

---------------------------
INTERNAL COORDINATES (A.U.)
---------------------------
 Al     0   0   0     0.000000000000     0.00000000     0.00000000

---------------------
BASIS SET INFORMATION
---------------------
There are 1 groups of distinct atoms

 Group   1 Type Al  : 15s9p4d1f contracted to 6s5p4d1f pattern {732111/51111/1111/1}

Atom   0Al   basis set group =>   1
----------------------------------
AUXILIARY/JK BASIS SET INFORMATION
----------------------------------
There are 1 groups of distinct atoms

 Group   1 Type Al  : 16s12p10d4f1g contracted to 13s11p9d4f1g pattern {4111111111111/21111111111/211111111/1111/1}

Atom   0Al   basis set group =>   1


           ************************************************************
           *        Program running with 28 parallel MPI-processes    *
           *              working on a common directory               *
           ************************************************************
------------------------------------------------------------------------------
                           ORCA GTO INTEGRAL CALCULATION
------------------------------------------------------------------------------

                         BASIS SET STATISTICS AND STARTUP INFO

 # of primitive gaussian shells          ...   29
 # of primitive gaussian functions       ...   69
 # of contracted shells                  ...   16
 # of contracted basis functions         ...   48
 Highest angular momentum                ...    3
 Maximum contraction depth               ...    7
 Integral package used                   ... LIBINT
 Integral threshhold            Thresh   ...  1.000e-10
 Primitive cut-off              TCut     ...  1.000e-11


------------------------------ INTEGRAL EVALUATION ----------------------------


 * One electron integrals 
 Pre-screening matrix                    ... done
 Shell pair data                         ... done (   0.000 sec)



           ************************************************************
           *        Program running with 28 parallel MPI-processes    *
           *              working on a common directory               *
           ************************************************************
-------------------------------------------------------------------------------
                                 ORCA SCF
-------------------------------------------------------------------------------

------------
SCF SETTINGS
------------
Hamiltonian:
 Density Functional     Method          .... DFT(GTOs)
 Exchange Functional    Exchange        .... WB97X-V
 Correlation Functional Correlation     .... WB97X-V
 Gradients option       PostSCFGGA      .... off
 Hybrid DFT is turned on
   Fraction HF Exchange ScalHFX         ....  0.167000
   Scaling of DF-GGA-X  ScalDFX         ....  0.000000
   Scaling of DF-GGA-C  ScalDFC         ....  1.000000
   Scaling of DF-LDA-C  ScalLDAC        ....  1.000000
   Perturbative correction              ....  0.000000
   Density functional embedding theory  .... OFF
 Long-range corrected/Screened/Range-Separated Hybrid DFT is turned on
   Amount of maximum screened exact exchange              ....  0.833000
   Range separation parameter mu (erf(mu*r12)/r12)        ....  0.300000
   NL short-range parameter             ....  6.000000
   NL long-range parameter              ....  0.010000


General Settings:
 Integral files         IntName         .... al
 Hartree-Fock type      HFTyp           .... UHF
 Total Charge           Charge          ....    0
 Multiplicity           Mult            ....    2
 Number of Electrons    NEL             ....   13
 Basis Dimension        Dim             ....   48
 Nuclear Repulsion      ENuc            ....      0.0000000000 Eh

Convergence Acceleration:
 DIIS                   CNVDIIS         .... on
   Start iteration      DIISMaxIt       ....    12
   Startup error        DIISStart       ....  0.200000
   # of expansion vecs  DIISMaxEq       ....     5
   Bias factor          DIISBfac        ....   1.050
   Max. coefficient     DIISMaxC        ....  10.000
 Newton-Raphson         CNVNR           .... off
 SOSCF                  CNVSOSCF        .... off
 Level Shifting         CNVShift        .... on
   Level shift para.    LevelShift      ....    0.2500
   Turn off err/grad.   ShiftErr        ....    0.0010
 Zerner damping         CNVZerner       .... off
 Static damping         CNVDamp         .... on
   Fraction old density DampFac         ....    0.7000
   Max. Damping (<1)    DampMax         ....    0.9800
   Min. Damping (>=0)   DampMin         ....    0.0000
   Turn off err/grad.   DampErr         ....    0.1000
 Fernandez-Rico         CNVRico         .... off

SCF Procedure:
 Maximum # iterations   MaxIter         ....   125
 SCF integral mode      SCFMode         .... Direct
   Integral package                     .... LIBINT
 Reset frequency        DirectResetFreq ....    20
 Integral Threshold     Thresh          ....  1.000e-10 Eh
 Primitive CutOff       TCut            ....  1.000e-11 Eh

Convergence Tolerance:
 Convergence Check Mode ConvCheckMode   .... Total+1el-Energy
 Convergence forced     ConvForced      .... 0
 Energy Change          TolE            ....  1.000e-06 Eh
 1-El. energy change                    ....  1.000e-03 Eh
 DIIS Error             TolErr          ....  1.000e-06


Diagonalization of the overlap matrix:
Smallest eigenvalue                        ... 2.409e-02
Time for diagonalization                   ...    0.006 sec
Threshold for overlap eigenvalues          ... 1.000e-08
Number of eigenvalues below threshold      ... 0
Time for construction of square roots      ...    0.027 sec
Total time needed                          ...    0.033 sec

-------------------
DFT GRID GENERATION
-------------------

General Integration Accuracy     IntAcc      ...  4.670
Radial Grid Type                 RadialGrid  ... Gauss-Chebyshev
Angular Grid (max. acc.)         AngularGrid ... Lebedev-302
Angular grid pruning method      GridPruning ... 3 (G Style)
Weight generation scheme         WeightScheme... Becke
Basis function cutoff            BFCut       ...    1.0000e-10
Integration weight cutoff        WCut        ...    1.0000e-14
Grids for H and He will be reduced by one unit

# of grid points (after initial pruning)     ...   6846 (   0.0 sec)
# of grid points (after weights+screening)   ...   6846 (   0.0 sec)
Grid point division into batches done        ...    0.0 sec
Reduced shell lists constructed in    0.0 sec

Total number of grid points                  ...     6846
Total number of batches                      ...      107
Average number of points per batch           ...       63
Average number of grid points per atom       ...     6846
Average number of shells per batch           ...     3.20 (20.00%)
Average number of basis functions per batch  ...     8.00 (16.67%)
Average number of large shells per batch     ...     2.40 (75.00%)
Average number of large basis fcns per batch ...     7.20 (90.00%)
Maximum spatial batch extension              ...  23.12, 23.12, 21.41 au
Average spatial batch extension              ...   0.72,  0.72,  0.80 au

Time for grid setup =    1.083 sec

------------------------------
INITIAL GUESS: MODEL POTENTIAL
------------------------------
Loading Hartree-Fock densities                     ... done
Calculating cut-offs                               ... done
Setting up the integral package                    ... done
Initializing the effective Hamiltonian             ... done
Starting the Coulomb interaction                   ... done (   0.0 sec)
Reading the grid                                   ... done
Mapping shells                                     ... done
Starting the XC term evaluation                    ... done (   0.0 sec)
  promolecular density results
     # of electrons  =     12.999996150
     EX              =    -13.228621317
     EC              =     -0.624100876
     EX+EC           =    -13.852722193
Transforming the Hamiltonian                       ... done (   0.1 sec)
Diagonalizing the Hamiltonian                      ... done (   0.0 sec)
Back transforming the eigenvectors                 ... done (   0.0 sec)
Now organizing SCF variables                       ... done
                      ------------------
                      INITIAL GUESS DONE (   1.4 sec)
                      ------------------
--------------
SCF ITERATIONS
--------------
ITER       Energy         Delta-E        Max-DP      RMS-DP      [F,P]     Damp
               ***  Starting incremental Fock matrix formation  ***
  0   -242.3096920740   0.000000000000 0.04903629  0.00149901  0.3512159 0.7000
  1   -242.3304941023  -0.020802028266 0.04737854  0.00138591  0.2008053 0.7000
                               ***Turning on DIIS***
  2   -242.3436810375  -0.013186935241 0.03511501  0.00106255  0.1087370 0.7000
  3   -242.3524533225  -0.008772284957 0.07723816  0.00266034  0.0578888 0.0000
  4   -242.3730249526  -0.020571630154 0.01186258  0.00047111  0.0124069 0.0000
  5   -242.3733255822  -0.000300629501 0.01001640  0.00037362  0.0022707 0.0000
  6   -242.3734442941  -0.000118711960 0.00617036  0.00021869  0.0010318 0.0000
  7   -242.3734766240  -0.000032329882 0.00410872  0.00015085  0.0004791 0.0000
  8   -242.3734844248  -0.000007800787 0.00065107  0.00001673  0.0000725 0.0000
                 **** Energy Check signals convergence ****

               *****************************************************
               *                     SUCCESS                       *
               *           SCF CONVERGED AFTER   9 CYCLES          *
               *****************************************************


Setting up the DFT-NL grid :

General Integration Accuracy     IntAcc      ...  4.340
Radial Grid Type                 RadialGrid  ... Gauss-Chebyshev
Angular Grid (max. acc.)         AngularGrid ... Lebedev-110
Angular grid pruning method      GridPruning ... 3 (G Style)
Weight generation scheme         WeightScheme... Becke
Basis function cutoff            BFCut       ...    1.0000e-10
Integration weight cutoff        WCut        ...    1.0000e-14
Grids for H and He will be reduced by one unit

# of grid points (after initial pruning)     ...   1866 (   0.0 sec)
# of grid points (after weights+screening)   ...   1866 (   0.0 sec)
Grid point division into batches done        ...    0.0 sec
Reduced shell lists constructed in    0.0 sec

Total number of grid points                  ...     1866
Total number of batches                      ...       30
Average number of points per batch           ...       62
Average number of grid points per atom       ...     1866
Average number of shells per batch           ...     6.00 (37.50%)
Average number of basis functions per batch  ...    20.67 (43.06%)
Average number of large shells per batch     ...     6.00 (100.00%)
Average number of large basis fcns per batch ...    20.67 (100.00%)
Maximum spatial batch extension              ...  21.07, 38.78, 38.78 au
Average spatial batch extension              ...   1.40,  2.59,  2.59 au

Final grid set up in    2.4 sec

-------------------------------------------------------------------------------
                         DFT-NL dispersion correction                          
-------------------------------------------------------------------------------

SC Energy -242.373484564 
NL    Energy 0.056383153 
SC+NL Energy -242.317101411 
NL done in    2.2 sec
-------------------------------------------------------------------------------

----------------
TOTAL SCF ENERGY
----------------

Total Energy       :         -242.31710141 Eh           -6593.78355 eV

Components:
Nuclear Repulsion  :            0.00000000 Eh               0.00000 eV
Electronic Energy  :         -242.31710141 Eh           -6593.78355 eV
One Electron Energy:         -336.70118216 Eh           -9162.10496 eV
Two Electron Energy:           94.38408075 Eh            2568.32141 eV

Virial components:
Potential Energy   :         -484.09936888 Eh          -13173.01353 eV
Kinetic Energy     :          241.78226746 Eh            6579.22998 eV
Virial Ratio       :            2.00221205


DFT components:
N(Alpha)           :        7.000000158389 electrons
N(Beta)            :        6.000000159546 electrons
N(Total)           :       13.000000317936 electrons
E(X)               :      -13.235032529132 Eh       
E(C)               :       -0.616119370480 Eh       
NL Energy, E(C,NL) :        0.056383152567 Eh       
E(XC)              :      -13.794768747046 Eh       
DFET-embed. en.    :        0.000000000000 Eh       

---------------
SCF CONVERGENCE
---------------

  Last Energy change         ...   -1.3916e-07  Tolerance :   1.0000e-06
  Last MAX-Density change    ...    2.1283e-04  Tolerance :   1.0000e-05
  Last RMS-Density change    ...    4.8163e-06  Tolerance :   1.0000e-06
  Last DIIS Error            ...    3.1336e-05  Tolerance :   1.0000e-06

             **** THE GBW FILE WAS UPDATED (al.gbw) ****
             **** DENSITY FILE WAS UPDATED (al.scfp) ****
             **** ENERGY FILE WAS UPDATED (al.en.tmp) ****
----------------------
UHF SPIN CONTAMINATION
----------------------

Warning: in a DFT calculation there is little theoretical justification to 
         calculate <S**2> as in Hartree-Fock theory. We will do it anyways
         but you should keep in mind that the values have only limited relevance

Expectation value of <S**2>     :     0.755848
Ideal value S*(S+1) for S=0.5   :     0.750000
Deviation                       :     0.005848

             **** THE GBW FILE WAS UPDATED (al.gbw) ****
             **** DENSITY FILE WAS UPDATED (al.scfp) ****
----------------
ORBITAL ENERGIES
----------------
                 SPIN UP ORBITALS
  NO   OCC          E(Eh)            E(eV) 
   0   1.0000     -56.083691     -1526.1148 
   1   1.0000      -4.264982      -116.0561 
   2   1.0000      -2.809992       -76.4638 
   3   1.0000      -2.809992       -76.4638 
   4   1.0000      -2.806293       -76.3631 
   5   1.0000      -0.418035       -11.3753 
   6   1.0000      -0.213466        -5.8087 
   7   0.0000      -0.001305        -0.0355 
   8   0.0000      -0.001305        -0.0355 
   9   0.0000       0.056630         1.5410 
  10   0.0000       0.110831         3.0159 
  11   0.0000       0.110832         3.0159 
  12   0.0000       0.110958         3.0193 
  13   0.0000       0.112269         3.0550 
  14   0.0000       0.112274         3.0551 
  15   0.0000       0.280621         7.6361 
  16   0.0000       0.290384         7.9017 
  17   0.0000       0.290384         7.9018 
  18   0.0000       0.309809         8.4303 
  19   0.0000       0.310385         8.4460 
  20   0.0000       0.310385         8.4460 
  21   0.0000       0.315406         8.5826 
  22   0.0000       0.315408         8.5827 
  23   0.0000       0.341199         9.2845 
  24   0.0000       0.831873        22.6364 
  25   0.0000       0.831873        22.6364 
  26   0.0000       0.833847        22.6901 
  27   0.0000       0.833847        22.6901 
  28   0.0000       0.835123        22.7249 
  29   0.0000       0.835123        22.7249 
  30   0.0000       0.836965        22.7750 
  31   0.0000       0.866736        23.5851 
  32   0.0000       0.866736        23.5851 
  33   0.0000       0.870375        23.6841 
  34   0.0000       0.870375        23.6841 
  35   0.0000       0.873273        23.7630 
  36   0.0000       1.949205        53.0406 
  37   0.0000       1.949206        53.0406 
  38   0.0000       1.956684        53.2441 
  39   0.0000       3.265550        88.8601 
  40   0.0000       3.265550        88.8601 
  41   0.0000       3.274491        89.1034 
  42   0.0000       3.274491        89.1034 
  43   0.0000       3.278105        89.2018 
  44   0.0000       6.552832       178.3116 
  45   0.0000       9.232865       251.2390 
  46   0.0000       9.232865       251.2390 
  47   0.0000       9.237262       251.3587 

                 SPIN DOWN ORBITALS
  NO   OCC          E(Eh)            E(eV) 
   0   1.0000     -56.081720     -1526.0612 
   1   1.0000      -4.262845      -115.9979 
   2   1.0000      -2.808702       -76.4287 
   3   1.0000      -2.808702       -76.4287 
   4   1.0000      -2.798644       -76.1550 
   5   1.0000      -0.382151       -10.3988 
   6   0.0000       0.002743         0.0746 
   7   0.0000       0.002743         0.0747 
   8   0.0000       0.021158         0.5757 
   9   0.0000       0.063483         1.7275 
  10   0.0000       0.114042         3.1032 
  11   0.0000       0.114044         3.1033 
  12   0.0000       0.121622         3.3095 
  13   0.0000       0.121622         3.3095 
  14   0.0000       0.125451         3.4137 
  15   0.0000       0.294254         8.0071 
  16   0.0000       0.294254         8.0071 
  17   0.0000       0.314329         8.5533 
  18   0.0000       0.317149         8.6301 
  19   0.0000       0.317150         8.6301 
  20   0.0000       0.328754         8.9459 
  21   0.0000       0.328754         8.9459 
  22   0.0000       0.333867         9.0850 
  23   0.0000       0.345799         9.4097 
  24   0.0000       0.833336        22.6762 
  25   0.0000       0.833336        22.6762 
  26   0.0000       0.845316        23.0022 
  27   0.0000       0.845316        23.0022 
  28   0.0000       0.853374        23.2215 
  29   0.0000       0.853374        23.2215 
  30   0.0000       0.856192        23.2982 
  31   0.0000       0.868640        23.6369 
  32   0.0000       0.868641        23.6369 
  33   0.0000       0.884170        24.0595 
  34   0.0000       0.884170        24.0595 
  35   0.0000       0.890560        24.2334 
  36   0.0000       1.951748        53.1098 
  37   0.0000       1.951748        53.1098 
  38   0.0000       1.972680        53.6794 
  39   0.0000       3.265828        88.8677 
  40   0.0000       3.265828        88.8677 
  41   0.0000       3.278745        89.2192 
  42   0.0000       3.278745        89.2192 
  43   0.0000       3.283035        89.3359 
  44   0.0000       6.556648       178.4154 
  45   0.0000       9.234944       251.2956 
  46   0.0000       9.234944       251.2956 
  47   0.0000       9.247383       251.6341 

                    ********************************
                    * MULLIKEN POPULATION ANALYSIS *
                    ********************************

--------------------------------------------
MULLIKEN ATOMIC CHARGES AND SPIN POPULATIONS
--------------------------------------------
   0 Al:   -0.000000    1.000000
Sum of atomic charges         :   -0.0000000
Sum of atomic spin populations:    1.0000000

-----------------------------------------------------
MULLIKEN REDUCED ORBITAL CHARGES AND SPIN POPULATIONS
-----------------------------------------------------
CHARGE
  0 Als       :     5.996921  s :     5.996921
      pz      :     2.496146  p :     6.999999
      px      :     2.000000
      py      :     2.503853
      dz2     :     0.000184  d :     0.003079
      dxz     :     0.000000
      dyz     :     0.002309
      dx2y2   :     0.000586
      dxy     :     0.000000
      f0      :     0.000000  f :     0.000001
      f+1     :     0.000000
      f-1     :     0.000000
      f+2     :     0.000000
      f-2     :     0.000000
      f+3     :     0.000000
      f-3     :     0.000000

SPIN
  0 Als       :    -0.000688  s :    -0.000688
      pz      :     0.496147  p :     1.000000
      px      :     0.000000
      py      :     0.503854
      dz2     :     0.000041  d :     0.000688
      dxz     :     0.000000
      dyz     :     0.000516
      dx2y2   :     0.000131
      dxy     :     0.000000
      f0      :    -0.000000  f :    -0.000000
      f+1     :    -0.000000
      f-1     :    -0.000000
      f+2     :    -0.000000
      f-2     :    -0.000000
      f+3     :    -0.000000
      f-3     :    -0.000000


                     *******************************
                     * LOEWDIN POPULATION ANALYSIS *
                     *******************************

-------------------------------------------
LOEWDIN ATOMIC CHARGES AND SPIN POPULATIONS
-------------------------------------------
   0 Al:    0.000000    1.000000

----------------------------------------------------
LOEWDIN REDUCED ORBITAL CHARGES AND SPIN POPULATIONS
----------------------------------------------------
CHARGE
  0 Als       :     5.996921  s :     5.996921
      pz      :     2.496146  p :     6.999999
      px      :     2.000000
      py      :     2.503853
      dz2     :     0.000184  d :     0.003079
      dxz     :     0.000000
      dyz     :     0.002309
      dx2y2   :     0.000586
      dxy     :     0.000000
      f0      :     0.000000  f :     0.000001
      f+1     :     0.000000
      f-1     :     0.000000
      f+2     :     0.000000
      f-2     :     0.000000
      f+3     :     0.000000
      f-3     :     0.000000

SPIN
  0 Als       :    -0.000688  s :    -0.000688
      pz      :     0.496147  p :     1.000000
      px      :     0.000000
      py      :     0.503854
      dz2     :     0.000041  d :     0.000688
      dxz     :     0.000000
      dyz     :     0.000516
      dx2y2   :     0.000131
      dxy     :     0.000000
      f0      :    -0.000000  f :    -0.000000
      f+1     :    -0.000000
      f-1     :    -0.000000
      f+2     :    -0.000000
      f-2     :    -0.000000
      f+3     :    -0.000000
      f-3     :    -0.000000


                      *****************************
                      * MAYER POPULATION ANALYSIS *
                      *****************************

  NA   - Mulliken gross atomic population
  ZA   - Total nuclear charge
  QA   - Mulliken gross atomic charge
  VA   - Mayer's total valence
  BVA  - Mayer's bonded valence
  FA   - Mayer's free valence

  ATOM       NA         ZA         QA         VA         BVA        FA
  0 Al    13.0000    13.0000    -0.0000     1.0117     0.0000     1.0117

  Mayer bond orders larger than 0.100000


-------
TIMINGS
-------

Total SCF time: 0 days 0 hours 1 min 44 sec 

Total time                  ....     104.723 sec
Sum of individual times     ....      99.822 sec  ( 95.3%)

Fock matrix formation       ....      94.387 sec  ( 90.1%)
  XC integration            ....      93.758 sec  ( 99.3% of F)
    Basis function eval.    ....       0.003 sec  (  0.0% of XC)
    Density eval.           ....       0.007 sec  (  0.0% of XC)
    XC-Functional eval.     ....       0.012 sec  (  0.0% of XC)
    XC-Potential eval.      ....       0.004 sec  (  0.0% of XC)
Diagonalization             ....       1.022 sec  (  1.0%)
Density matrix formation    ....       0.003 sec  (  0.0%)
Population analysis         ....       0.505 sec  (  0.5%)
Initial guess               ....       0.332 sec  (  0.3%)
Orbital Transformation      ....       0.000 sec  (  0.0%)
Orbital Orthonormalization  ....       0.000 sec  (  0.0%)
DIIS solution               ....       0.061 sec  (  0.1%)
Grid generation             ....       3.511 sec  (  3.4%)

-------------------------   --------------------
FINAL SINGLE POINT ENERGY      -242.317101411372
-------------------------   --------------------


----------------------------------------------------------------------------
                           ORCA NUMERICAL GRADIENT
                              (28-process run)
----------------------------------------------------------------------------

I state                        ... 1
J state                        ... 0
Number of atoms                ... 1
Derivative's order of accuracy ... 2
Central differences            ... used
Number of displacements        ... 6
Numerical increment            ... 5.000e-03 bohr
Translation invariance         ... used

The output will be reduced. Please look at the following files:
SCF program output             ... >al.lastscf
Integral program output        ... >al.lastint
Gradient program output        ... >al.lastgrad


     Note:   There are more processes than displacements to do
     ===>:   Reducing number of processes to   0


------------------------------
CARTESIAN GRADIENT (NUMERICAL)
-------------------------------
   1   Al  :    0.000000000    0.000000000    0.000000000

Norm of the cartesian gradient     ...    0.000000000
RMS gradient                       ...    0.000000000
MAX gradient                       ...    0.000000000
*** glibc detected *** /mnt/storage/software/apps/orca-4.2.0/orca_4_2_0_linux_x86-64_openmpi314/orca: free(): invalid next size (fast): 0x000000000ddc8fc0 ***
======= Backtrace: =========
[0xb0928aa]
[0xb09567c]
[0x76d903]
[0x76fb95]
[0x915b4f]
[0x918f24]
[0x487649]
[0xb05c99e]
[0x4870d9]
======= Memory map: ========
00400000-0bf42000 r-xp 00000000 00:2b 4876154                            /mnt/storage/software/apps/orca-4.2.0/orca_4_2_0_linux_x86-64_openmpi314/orca
0c141000-0c203000 rw-p 0bb41000 00:2b 4876154                            /mnt/storage/software/apps/orca-4.2.0/orca_4_2_0_linux_x86-64_openmpi314/orca
0c203000-0c77a000 rw-p 00000000 00:00 0 
0dc50000-0deba000 rw-p 00000000 00:00 0                                  [heap]
2b29133a9000-2b2913baa000 rw-p 00000000 00:00 0 
2b29143a9000-2b2916a6c000 rw-p 00000000 00:00 0 
2b2918000000-2b29180b3000 rw-p 00000000 00:00 0 
2b29180b3000-2b291c000000 ---p 00000000 00:00 0 
7ffc3e696000-7ffc3e798000 rw-p 00000000 00:00 0                          [stack]
7ffc3e798000-7ffc3e79a000 r-xp 00000000 00:00 0                          [vdso]
ffffffffff600000-ffffffffff601000 r-xp 00000000 00:00 0                  [vsyscall]
