
                                 *****************
                                 * O   R   C   A *
                                 *****************

           --- An Ab Initio, DFT and Semiempirical electronic structure package ---

                  #######################################################
                  #                        -***-                        #
                  #          Department of theory and spectroscopy      #
                  #               Directorship: Frank Neese             #
                  #        Max Planck Institute fuer Kohlenforschung    #
                  #                Kaiser Wilhelm Platz 1               #
                  #                 D-45470 Muelheim/Ruhr               #
                  #                      Germany                        #
                  #                                                     #
                  #                  All rights reserved                #
                  #                        -***-                        #
                  #######################################################


                         Program Version 4.2.0 -  RELEASE  -


 With contributions from (in alphabetic order):
   Daniel Aravena         : Magnetic Suceptibility
   Michael Atanasov       : Ab Initio Ligand Field Theory (pilot matlab implementation)
   Alexander A. Auer      : GIAO ZORA, VPT2
   Ute Becker             : Parallelization
   Giovanni Bistoni       : ED, misc. LED, open-shell LED, HFLED
   Martin Brehm           : Molecular dynamics
   Dmytro Bykov           : SCF Hessian
   Vijay G. Chilkuri      : MRCI spin determinant printing, contributions to CSF-ICE
   Dipayan Datta          : RHF DLPNO-CCSD density
   Achintya Kumar Dutta   : EOM-CC, STEOM-CC
   Dmitry Ganyushin       : Spin-Orbit,Spin-Spin,Magnetic field MRCI
   Miquel Garcia          : C-PCM Hessian, Gaussian charge scheme
   Yang Guo               : DLPNO-NEVPT2, CIM, IAO-localization
   Andreas Hansen         : Spin unrestricted coupled pair/coupled cluster methods
   Benjamin Helmich-Paris : CASSCF linear response (MC-RPA)
   Lee Huntington         : MR-EOM, pCC
   Robert Izsak           : Overlap fitted RIJCOSX, COSX-SCS-MP3, EOM
   Christian Kollmar      : KDIIS, OOCD, Brueckner-CCSD(T), CCSD density
   Simone Kossmann        : Meta GGA functionals, TD-DFT gradient, OOMP2, MP2 Hessian
   Martin Krupicka        : AUTO-CI
   Lucas Lang             : DCDCAS
   Dagmar Lenk            : GEPOL surface, SMD
   Dimitrios Liakos       : Extrapolation schemes; Compound Job, initial MDCI parallelization
   Dimitrios Manganas     : Further ROCIS development; embedding schemes
   Dimitrios Pantazis     : SARC Basis sets
   Taras Petrenko         : DFT Hessian,TD-DFT gradient, ASA, ECA, R-Raman, ABS, FL, XAS/XES, NRVS
   Peter Pinski           : DLPNO-MP2, DLPNO-MP2 Gradient
   Christoph Reimann      : Effective Core Potentials
   Marius Retegan         : Local ZFS, SOC
   Christoph Riplinger    : Optimizer, TS searches, QM/MM, DLPNO-CCSD(T), (RO)-DLPNO pert. Triples
   Tobias Risthaus        : Range-separated hybrids, TD-DFT gradient, RPA, STAB
   Michael Roemelt        : Original ROCIS implementation
   Masaaki Saitow         : Open-shell DLPNO-CCSD energy and density
   Barbara Sandhoefer     : DKH picture change effects
   Avijit Sen             : IP-ROCIS
   Kantharuban Sivalingam : CASSCF convergence, NEVPT2, FIC-MRCI
   Bernardo de Souza      : ESD, SOC TD-DFT
   Georgi Stoychev        : AutoAux, RI-MP2 NMR
   Willem Van den Heuvel  : Paramagnetic NMR
   Boris Wezisla          : Elementary symmetry handling
   Frank Wennmohs         : Technical directorship


 We gratefully acknowledge several colleagues who have allowed us to
 interface, adapt or use parts of their codes:
   Stefan Grimme, W. Hujo, H. Kruse,             : VdW corrections, initial TS optimization,
                  C. Bannwarth                     DFT functionals, gCP, sTDA/sTD-DF
   Ed Valeev, F. Pavosevic, A. Kumar             : LibInt (2-el integral package), F12 methods
   Garnet Chan, S. Sharma, J. Yang, R. Olivares  : DMRG
   Ulf Ekstrom                                   : XCFun DFT Library
   Mihaly Kallay                                 : mrcc  (arbitrary order and MRCC methods)
   Andreas Klamt, Michael Diedenhofen            : otool_cosmo (COSMO solvation model)
   Jiri Pittner, Ondrej Demel                    : Mk-CCSD
   Frank Weinhold                                : gennbo (NPA and NBO analysis)
   Christopher J. Cramer and Donald G. Truhlar   : smd solvation model
   Lars Goerigk                                  : TD-DFT with DH, B97 family of functionals
   V. Asgeirsson, H. Jonsson                     : NEB implementation
   FAccTs GmbH                                   : IRC, NEB, NEB-TS, Multilevel, MM, QM/MM, CI optimization
   S Lehtola, MJT Oliveira, MAL Marques          : LibXC Library


 Your calculation uses the libint2 library for the computation of 2-el integrals
 For citations please refer to: http://libint.valeyev.net

 Your ORCA version has been built with support for libXC version: 4.2.3
 For citations please refer to: https://tddft.org/programs/libxc/

 This ORCA versions uses:
   CBLAS   interface :  Fast vector & matrix operations
   LAPACKE interface :  Fast linear algebra routines
   SCALAPACK package :  Parallel linear algebra routines


Your calculation utilizes the DFT-NL dispersion correction.
Cite in your paper:
Vydrov, O. A.; Van Voorhis, T. J. Chem. Phys. 2010, 133, 244103
Hujo, W.; Grimme, S. J. Chem. Theory Comput. 2011, 7, 3866 
   

----- Orbital basis set information -----
Your calculation utilizes the basis: def2-TZVPPD
   F. Weigend and R. Ahlrichs, Phys. Chem. Chem. Phys. 7, 3297 (2005).
   D. Rappoport and F. Furche, J. Chem. Phys. 133 134105 (2010).

----- AuxJK basis set information -----
Your calculation utilizes the auxiliary basis: def2/JK
   H-Ba, Hf-Rn: F. Weigend, J. Comput. Chem. 29, 167 (2008).

================================================================================
                                        WARNINGS
                       Please study these warnings very carefully!
================================================================================

INFO   : Found keyword 'NumGrad' for Energy calculation
  ===> : Setting RunTyp to EnGrad

WARNING: Numerical Gradient with sloppy Convergence Criteria    
         Your results may be not reliable!                      
         Please choose at least TightSCF!                       

INFO   : the flag for use of LIBINT has been found!

================================================================================
                                       INPUT FILE
================================================================================
NAME = alcl.in
|  1> #
|  2> # alcl wB97X-V/Def2-TZVPPD
|  3> #
|  4> ! wb97x-v def2-tzvppd def2/jk grid4 nofinalgrid numgrad
|  5> 
|  6> *xyz 0 1
|  7> Cl         0.00000        0.00000       -1.07053
|  8> Al         0.00000        0.00000        1.07053
|  9> *
| 10> 
| 11> %maxcore 5000
| 12> 
| 13> %pal
| 14> nprocs = 28
| 15> end
| 16> 
| 17> 
| 18>                          ****END OF INPUT****
================================================================================

                     *******************************
                     * Energy+Gradient Calculation *
                     *******************************

---------------------------------
CARTESIAN COORDINATES (ANGSTROEM)
---------------------------------
  Cl     0.000000    0.000000   -1.070530
  Al     0.000000    0.000000    1.070530

----------------------------
CARTESIAN COORDINATES (A.U.)
----------------------------
  NO LB      ZA    FRAG     MASS         X           Y           Z
   0 Cl   17.0000    0    35.453    0.000000    0.000000   -2.023009
   1 Al   13.0000    0    26.982    0.000000    0.000000    2.023009

--------------------------------
INTERNAL COORDINATES (ANGSTROEM)
--------------------------------
 Cl     0   0   0     0.000000000000     0.00000000     0.00000000
 Al     1   0   0     2.141060000000     0.00000000     0.00000000

---------------------------
INTERNAL COORDINATES (A.U.)
---------------------------
 Cl     0   0   0     0.000000000000     0.00000000     0.00000000
 Al     1   0   0     4.046017036293     0.00000000     0.00000000

---------------------
BASIS SET INFORMATION
---------------------
There are 2 groups of distinct atoms

 Group   1 Type Cl  : 15s10p4d1f contracted to 6s6p4d1f pattern {732111/511111/1111/1}
 Group   2 Type Al  : 15s9p4d1f contracted to 6s5p4d1f pattern {732111/51111/1111/1}

Atom   0Cl   basis set group =>   1
Atom   1Al   basis set group =>   2
----------------------------------
AUXILIARY/JK BASIS SET INFORMATION
----------------------------------
There are 2 groups of distinct atoms

 Group   1 Type Cl  : 16s12p10d4f1g contracted to 13s11p9d4f1g pattern {4111111111111/21111111111/211111111/1111/1}
 Group   2 Type Al  : 16s12p10d4f1g contracted to 13s11p9d4f1g pattern {4111111111111/21111111111/211111111/1111/1}

Atom   0Cl   basis set group =>   1
Atom   1Al   basis set group =>   2


           ************************************************************
           *        Program running with 28 parallel MPI-processes    *
           *              working on a common directory               *
           ************************************************************
------------------------------------------------------------------------------
                           ORCA GTO INTEGRAL CALCULATION
------------------------------------------------------------------------------

                         BASIS SET STATISTICS AND STARTUP INFO

 # of primitive gaussian shells          ...   59
 # of primitive gaussian functions       ...  141
 # of contracted shells                  ...   33
 # of contracted basis functions         ...   99
 Highest angular momentum                ...    3
 Maximum contraction depth               ...    7
 Integral package used                   ... LIBINT
 Integral threshhold            Thresh   ...  1.000e-10
 Primitive cut-off              TCut     ...  1.000e-11


------------------------------ INTEGRAL EVALUATION ----------------------------


 * One electron integrals 
 Pre-screening matrix                    ... done
 Shell pair data                         ... done (   0.000 sec)



           ************************************************************
           *        Program running with 28 parallel MPI-processes    *
           *              working on a common directory               *
           ************************************************************
-------------------------------------------------------------------------------
                                 ORCA SCF
-------------------------------------------------------------------------------

------------
SCF SETTINGS
------------
Hamiltonian:
 Density Functional     Method          .... DFT(GTOs)
 Exchange Functional    Exchange        .... WB97X-V
 Correlation Functional Correlation     .... WB97X-V
 Gradients option       PostSCFGGA      .... off
 Hybrid DFT is turned on
   Fraction HF Exchange ScalHFX         ....  0.167000
   Scaling of DF-GGA-X  ScalDFX         ....  0.000000
   Scaling of DF-GGA-C  ScalDFC         ....  1.000000
   Scaling of DF-LDA-C  ScalLDAC        ....  1.000000
   Perturbative correction              ....  0.000000
   Density functional embedding theory  .... OFF
 Long-range corrected/Screened/Range-Separated Hybrid DFT is turned on
   Amount of maximum screened exact exchange              ....  0.833000
   Range separation parameter mu (erf(mu*r12)/r12)        ....  0.300000
   NL short-range parameter             ....  6.000000
   NL long-range parameter              ....  0.010000


General Settings:
 Integral files         IntName         .... alcl
 Hartree-Fock type      HFTyp           .... RHF
 Total Charge           Charge          ....    0
 Multiplicity           Mult            ....    1
 Number of Electrons    NEL             ....   30
 Basis Dimension        Dim             ....   99
 Nuclear Repulsion      ENuc            ....     54.6216187469 Eh

Convergence Acceleration:
 DIIS                   CNVDIIS         .... on
   Start iteration      DIISMaxIt       ....    12
   Startup error        DIISStart       ....  0.200000
   # of expansion vecs  DIISMaxEq       ....     5
   Bias factor          DIISBfac        ....   1.050
   Max. coefficient     DIISMaxC        ....  10.000
 Newton-Raphson         CNVNR           .... off
 SOSCF                  CNVSOSCF        .... on
   Start iteration      SOSCFMaxIt      ....   150
   Startup grad/error   SOSCFStart      ....  0.003300
 Level Shifting         CNVShift        .... on
   Level shift para.    LevelShift      ....    0.2500
   Turn off err/grad.   ShiftErr        ....    0.0010
 Zerner damping         CNVZerner       .... off
 Static damping         CNVDamp         .... on
   Fraction old density DampFac         ....    0.7000
   Max. Damping (<1)    DampMax         ....    0.9800
   Min. Damping (>=0)   DampMin         ....    0.0000
   Turn off err/grad.   DampErr         ....    0.1000
 Fernandez-Rico         CNVRico         .... off

SCF Procedure:
 Maximum # iterations   MaxIter         ....   125
 SCF integral mode      SCFMode         .... Direct
   Integral package                     .... LIBINT
 Reset frequency        DirectResetFreq ....    20
 Integral Threshold     Thresh          ....  1.000e-10 Eh
 Primitive CutOff       TCut            ....  1.000e-11 Eh

Convergence Tolerance:
 Convergence Check Mode ConvCheckMode   .... Total+1el-Energy
 Convergence forced     ConvForced      .... 0
 Energy Change          TolE            ....  1.000e-06 Eh
 1-El. energy change                    ....  1.000e-03 Eh
 Orbital Gradient       TolG            ....  5.000e-05
 Orbital Rotation angle TolX            ....  5.000e-05
 DIIS Error             TolErr          ....  1.000e-06


Diagonalization of the overlap matrix:
Smallest eigenvalue                        ... 1.514e-03
Time for diagonalization                   ...    0.002 sec
Threshold for overlap eigenvalues          ... 1.000e-08
Number of eigenvalues below threshold      ... 0
Time for construction of square roots      ...    0.008 sec
Total time needed                          ...    0.011 sec

-------------------
DFT GRID GENERATION
-------------------

General Integration Accuracy     IntAcc      ...  4.670
Radial Grid Type                 RadialGrid  ... Gauss-Chebyshev
Angular Grid (max. acc.)         AngularGrid ... Lebedev-302
Angular grid pruning method      GridPruning ... 3 (G Style)
Weight generation scheme         WeightScheme... Becke
Basis function cutoff            BFCut       ...    1.0000e-10
Integration weight cutoff        WCut        ...    1.0000e-14
Grids for H and He will be reduced by one unit

# of grid points (after initial pruning)     ...  13584 (   0.0 sec)
# of grid points (after weights+screening)   ...  13557 (   0.0 sec)
nearest neighbour list constructed           ...    0.0 sec
Grid point re-assignment to atoms done       ...    0.0 sec
Grid point division into batches done        ...    0.1 sec
Reduced shell lists constructed in    0.1 sec

Total number of grid points                  ...    13557
Total number of batches                      ...      213
Average number of points per batch           ...       63
Average number of grid points per atom       ...     6778
Average number of shells per batch           ...     7.33 (22.22%)
Average number of basis functions per batch  ...    21.33 (21.55%)
Average number of large shells per batch     ...     5.56 (75.76%)
Average number of large basis fcns per batch ...    15.56 (72.92%)
Maximum spatial batch extension              ...  19.71, 19.71, 14.28 au
Average spatial batch extension              ...   0.68,  0.67,  0.43 au

Time for grid setup =    0.129 sec

------------------------------
INITIAL GUESS: MODEL POTENTIAL
------------------------------
Loading Hartree-Fock densities                     ... done
Calculating cut-offs                               ... done
Setting up the integral package                    ... done
Initializing the effective Hamiltonian             ... done
Starting the Coulomb interaction                   ... done (   0.0 sec)
Reading the grid                                   ... done
Mapping shells                                     ... done
Starting the XC term evaluation                    ... done (   0.0 sec)
  promolecular density results
     # of electrons  =     29.999999515
     EX              =    -33.715001872
     EC              =     -1.525021242
     EX+EC           =    -35.240023114
Transforming the Hamiltonian                       ... done (   0.0 sec)
Diagonalizing the Hamiltonian                      ... done (   0.0 sec)
Back transforming the eigenvectors                 ... done (   0.0 sec)
Now organizing SCF variables                       ... done
                      ------------------
                      INITIAL GUESS DONE (   0.2 sec)
                      ------------------
--------------
SCF ITERATIONS
--------------
ITER       Energy         Delta-E        Max-DP      RMS-DP      [F,P]     Damp
               ***  Starting incremental Fock matrix formation  ***
  0   -702.6029733803   0.000000000000 0.08849411  0.00180549  0.3455767 0.7000
  1   -702.6429219900  -0.039948609647 0.08770129  0.00153934  0.1992547 0.7000
                               ***Turning on DIIS***
  2   -702.6667007958  -0.023778805827 0.06771722  0.00115223  0.1093410 0.7000
  3   -702.6818177736  -0.015116977836 0.16286166  0.00299089  0.0608117 0.0000
  4   -702.7162806584  -0.034462884732 0.03079133  0.00065718  0.0108734 0.0000
  5   -702.7167341661  -0.000453507769 0.02302283  0.00046528  0.0043439 0.0000
                      *** Initiating the SOSCF procedure ***
                           *** Shutting down DIIS ***
                      *** Re-Reading the Fockian *** 
                      *** Removing any level shift *** 
ITER      Energy       Delta-E        Grad      Rot      Max-DP    RMS-DP
  6   -702.71688411  -0.0001499461  0.002802  0.002802  0.014367  0.000293
               *** Restarting incremental Fock matrix formation ***
  7   -702.71692784  -0.0000437281  0.001019  0.002606  0.008793  0.000182
  8   -702.71693804  -0.0000101989  0.000336  0.001389  0.004655  0.000097
  9   -702.71693947  -0.0000014332  0.000060  0.000078  0.000250  0.000006
 10   -702.71693952  -0.0000000492  0.000030  0.000038  0.000180  0.000004
                 **** Energy Check signals convergence ****
              ***Rediagonalizing the Fockian in SOSCF/NRSCF***

               *****************************************************
               *                     SUCCESS                       *
               *           SCF CONVERGED AFTER  11 CYCLES          *
               *****************************************************


Setting up the DFT-NL grid :

General Integration Accuracy     IntAcc      ...  4.340
Radial Grid Type                 RadialGrid  ... Gauss-Chebyshev
Angular Grid (max. acc.)         AngularGrid ... Lebedev-110
Angular grid pruning method      GridPruning ... 3 (G Style)
Weight generation scheme         WeightScheme... Becke
Basis function cutoff            BFCut       ...    1.0000e-10
Integration weight cutoff        WCut        ...    1.0000e-14
Grids for H and He will be reduced by one unit

# of grid points (after initial pruning)     ...   3710 (   0.0 sec)
# of grid points (after weights+screening)   ...   3686 (   0.0 sec)
nearest neighbour list constructed           ...    0.0 sec
Grid point re-assignment to atoms done       ...    0.0 sec
Grid point division into batches done        ...    0.0 sec
Reduced shell lists constructed in    0.0 sec

Total number of grid points                  ...     3686
Total number of batches                      ...       59
Average number of points per batch           ...       62
Average number of grid points per atom       ...     1843
Average number of shells per batch           ...    13.50 (40.91%)
Average number of basis functions per batch  ...    45.00 (45.45%)
Average number of large shells per batch     ...    12.00 (88.89%)
Average number of large basis fcns per batch ...    39.00 (86.67%)
Maximum spatial batch extension              ...  19.24, 22.78, 17.26 au
Average spatial batch extension              ...   0.94,  1.10,  0.88 au

Final grid set up in    0.0 sec

-------------------------------------------------------------------------------
                         DFT-NL dispersion correction                          
-------------------------------------------------------------------------------

SC Energy -702.716939534 
NL    Energy 0.126760312 
SC+NL Energy -702.590179222 
NL done in    0.1 sec
-------------------------------------------------------------------------------

----------------
TOTAL SCF ENERGY
----------------

Total Energy       :         -702.59017922 Eh          -19118.45074 eV

Components:
Nuclear Repulsion  :           54.62161875 Eh            1486.32981 eV
Electronic Energy  :         -757.21179797 Eh          -20604.78055 eV
One Electron Energy:        -1081.70401380 Eh          -29434.66264 eV
Two Electron Energy:          324.49221583 Eh            8829.88210 eV

Virial components:
Potential Energy   :        -1403.96189586 Eh          -38203.74543 eV
Kinetic Energy     :          701.37171664 Eh           19085.29469 eV
Virial Ratio       :            2.00173726


DFT components:
N(Alpha)           :       15.000001876494 electrons
N(Beta)            :       15.000001876494 electrons
N(Total)           :       30.000003752988 electrons
E(X)               :      -33.754491918119 Eh       
E(C)               :       -1.529865711585 Eh       
NL Energy, E(C,NL) :        0.126760311757 Eh       
E(XC)              :      -35.157597317948 Eh       
DFET-embed. en.    :        0.000000000000 Eh       

---------------
SCF CONVERGENCE
---------------

  Last Energy change         ...   -1.2452e-08  Tolerance :   1.0000e-06
  Last MAX-Density change    ...    2.5207e-05  Tolerance :   1.0000e-05
  Last RMS-Density change    ...    5.6645e-07  Tolerance :   1.0000e-06
  Last Orbital Gradient      ...    3.7787e-06  Tolerance :   5.0000e-05
  Last Orbital Rotation      ...    4.8260e-06  Tolerance :   5.0000e-05

             **** THE GBW FILE WAS UPDATED (alcl.gbw) ****
             **** DENSITY FILE WAS UPDATED (alcl.scfp) ****
             **** ENERGY FILE WAS UPDATED (alcl.en.tmp) ****
             **** THE GBW FILE WAS UPDATED (alcl.gbw) ****
             **** DENSITY FILE WAS UPDATED (alcl.scfp) ****
----------------
ORBITAL ENERGIES
----------------

  NO   OCC          E(Eh)            E(eV) 
   0   2.0000    -101.496602     -2761.8630 
   1   2.0000     -56.098949     -1526.5300 
   2   2.0000      -9.538321      -259.5509 
   3   2.0000      -7.288048      -198.3179 
   4   2.0000      -7.286572      -198.2777 
   5   2.0000      -7.286572      -198.2777 
   6   2.0000      -4.279865      -116.4611 
   7   2.0000      -2.824581       -76.8607 
   8   2.0000      -2.824581       -76.8607 
   9   2.0000      -2.820150       -76.7402 
  10   2.0000      -0.931084       -25.3361 
  11   2.0000      -0.514126       -13.9901 
  12   2.0000      -0.433835       -11.8052 
  13   2.0000      -0.433835       -11.8052 
  14   2.0000      -0.338600        -9.2138 
  15   0.0000       0.004924         0.1340 
  16   0.0000       0.004924         0.1340 
  17   0.0000       0.052331         1.4240 
  18   0.0000       0.065540         1.7834 
  19   0.0000       0.092238         2.5099 
  20   0.0000       0.097052         2.6409 
  21   0.0000       0.097052         2.6409 
  22   0.0000       0.107703         2.9308 
  23   0.0000       0.107703         2.9308 
  24   0.0000       0.135444         3.6856 
  25   0.0000       0.135444         3.6856 
  26   0.0000       0.171733         4.6731 
  27   0.0000       0.229187         6.2365 
  28   0.0000       0.269183         7.3248 
  29   0.0000       0.269183         7.3248 
  30   0.0000       0.272768         7.4224 
  31   0.0000       0.285725         7.7750 
  32   0.0000       0.285725         7.7750 
  33   0.0000       0.318063         8.6549 
  34   0.0000       0.318063         8.6549 
  35   0.0000       0.323863         8.8128 
  36   0.0000       0.323863         8.8128 
  37   0.0000       0.330234         8.9861 
  38   0.0000       0.416842        11.3429 
  39   0.0000       0.416842        11.3429 
  40   0.0000       0.443876        12.0785 
  41   0.0000       0.495185        13.4747 
  42   0.0000       0.621717        16.9178 
  43   0.0000       0.621717        16.9178 
  44   0.0000       0.649444        17.6723 
  45   0.0000       0.685821        18.6621 
  46   0.0000       0.685821        18.6621 
  47   0.0000       0.697306        18.9747 
  48   0.0000       0.697307        18.9747 
  49   0.0000       0.823519        22.4091 
  50   0.0000       0.823519        22.4091 
  51   0.0000       0.849432        23.1142 
  52   0.0000       0.852315        23.1927 
  53   0.0000       0.852317        23.1927 
  54   0.0000       0.881731        23.9931 
  55   0.0000       0.881737        23.9933 
  56   0.0000       0.895781        24.3754 
  57   0.0000       0.895781        24.3754 
  58   0.0000       0.940536        25.5933 
  59   0.0000       1.089999        29.6604 
  60   0.0000       1.089999        29.6604 
  61   0.0000       1.157541        31.4983 
  62   0.0000       1.209839        32.9214 
  63   0.0000       1.983426        53.9718 
  64   0.0000       1.983426        53.9718 
  65   0.0000       2.026587        55.1462 
  66   0.0000       2.026624        55.1472 
  67   0.0000       2.083504        56.6950 
  68   0.0000       2.083504        56.6950 
  69   0.0000       2.094345        56.9900 
  70   0.0000       2.205273        60.0085 
  71   0.0000       2.205273        60.0085 
  72   0.0000       2.249439        61.2103 
  73   0.0000       2.249441        61.2104 
  74   0.0000       2.320977        63.1570 
  75   0.0000       2.437578        66.3299 
  76   0.0000       2.437578        66.3299 
  77   0.0000       2.457985        66.8852 
  78   0.0000       2.457985        66.8852 
  79   0.0000       2.535359        68.9906 
  80   0.0000       2.828710        76.9731 
  81   0.0000       3.254326        88.5547 
  82   0.0000       3.254352        88.5554 
  83   0.0000       3.343671        90.9859 
  84   0.0000       3.343671        90.9859 
  85   0.0000       3.579803        97.4114 
  86   0.0000       7.189467       195.6354 
  87   0.0000       8.251589       224.5372 
  88   0.0000       8.251688       224.5398 
  89   0.0000       8.308124       226.0755 
  90   0.0000       8.308124       226.0755 
  91   0.0000       8.400067       228.5774 
  92   0.0000       9.275836       252.4083 
  93   0.0000       9.275836       252.4083 
  94   0.0000       9.569231       260.3920 
  95   0.0000      10.906322       296.7761 
  96   0.0000      10.906322       296.7761 
  97   0.0000      11.272038       306.7278 
  98   0.0000      24.984377       679.8595 

                    ********************************
                    * MULLIKEN POPULATION ANALYSIS *
                    ********************************

-----------------------
MULLIKEN ATOMIC CHARGES
-----------------------
   0 Cl:   -0.250468
   1 Al:    0.250468
Sum of atomic charges:   -0.0000000

--------------------------------
MULLIKEN REDUCED ORBITAL CHARGES
--------------------------------
  0 Cls       :     5.916865  s :     5.916865
      pz      :     3.581613  p :    11.317012
      px      :     3.867700
      py      :     3.867700
      dz2     :     0.005165  d :     0.015689
      dxz     :     0.005262
      dyz     :     0.005262
      dx2y2   :     0.000000
      dxy     :     0.000000
      f0      :     0.000471  f :     0.000902
      f+1     :     0.000216
      f-1     :     0.000216
      f+2     :     0.000000
      f-2     :     0.000000
      f+3     :     0.000000
      f-3     :     0.000000
  1 Als       :     5.924557  s :     5.924557
      pz      :     2.499244  p :     6.649770
      px      :     2.075263
      py      :     2.075263
      dz2     :     0.062791  d :     0.144605
      dxz     :     0.040907
      dyz     :     0.040907
      dx2y2   :     0.000000
      dxy     :     0.000000
      f0      :     0.009294  f :     0.030600
      f+1     :     0.010653
      f-1     :     0.010653
      f+2     :     0.000000
      f-2     :     0.000000
      f+3     :     0.000000
      f-3     :     0.000000


                     *******************************
                     * LOEWDIN POPULATION ANALYSIS *
                     *******************************

----------------------
LOEWDIN ATOMIC CHARGES
----------------------
   0 Cl:   -0.078533
   1 Al:    0.078533

-------------------------------
LOEWDIN REDUCED ORBITAL CHARGES
-------------------------------
  0 Cls       :     5.664304  s :     5.664304
      pz      :     3.790894  p :    11.276853
      px      :     3.742980
      py      :     3.742980
      dz2     :     0.129725  d :     0.136070
      dxz     :     0.003173
      dyz     :     0.003173
      dx2y2   :     0.000000
      dxy     :     0.000000
      f0      :     0.001228  f :     0.001306
      f+1     :     0.000039
      f-1     :     0.000039
      f+2     :     0.000000
      f-2     :     0.000000
      f+3     :     0.000000
      f-3     :     0.000000
  1 Als       :     5.475993  s :     5.475993
      pz      :     2.654530  p :     6.845559
      px      :     2.095515
      py      :     2.095515
      dz2     :     0.225881  d :     0.453994
      dxz     :     0.114056
      dyz     :     0.114056
      dx2y2   :     0.000000
      dxy     :     0.000000
      f0      :     0.057446  f :     0.145922
      f+1     :     0.044238
      f-1     :     0.044238
      f+2     :     0.000000
      f-2     :     0.000000
      f+3     :     0.000000
      f-3     :     0.000000


                      *****************************
                      * MAYER POPULATION ANALYSIS *
                      *****************************

  NA   - Mulliken gross atomic population
  ZA   - Total nuclear charge
  QA   - Mulliken gross atomic charge
  VA   - Mayer's total valence
  BVA  - Mayer's bonded valence
  FA   - Mayer's free valence

  ATOM       NA         ZA         QA         VA         BVA        FA
  0 Cl    17.2505    17.0000    -0.2505     1.0647     1.0647    -0.0000
  1 Al    12.7495    13.0000     0.2505     1.0647     1.0647    -0.0000

  Mayer bond orders larger than 0.100000
B(  0-Cl,  1-Al) :   1.0647 

-------
TIMINGS
-------

Total SCF time: 0 days 0 hours 0 min 11 sec 

Total time                  ....      11.205 sec
Sum of individual times     ....      10.636 sec  ( 94.9%)

Fock matrix formation       ....      10.149 sec  ( 90.6%)
  XC integration            ....       7.421 sec  ( 73.1% of F)
    Basis function eval.    ....       0.015 sec  (  0.2% of XC)
    Density eval.           ....       0.011 sec  (  0.1% of XC)
    XC-Functional eval.     ....       0.019 sec  (  0.3% of XC)
    XC-Potential eval.      ....       0.014 sec  (  0.2% of XC)
Diagonalization             ....       0.081 sec  (  0.7%)
Density matrix formation    ....       0.004 sec  (  0.0%)
Population analysis         ....       0.047 sec  (  0.4%)
Initial guess               ....       0.120 sec  (  1.1%)
Orbital Transformation      ....       0.000 sec  (  0.0%)
Orbital Orthonormalization  ....       0.000 sec  (  0.0%)
DIIS solution               ....       0.043 sec  (  0.4%)
SOSCF solution              ....       0.021 sec  (  0.2%)
Grid generation             ....       0.171 sec  (  1.5%)

-------------------------   --------------------
FINAL SINGLE POINT ENERGY      -702.590179222366
-------------------------   --------------------


----------------------------------------------------------------------------
                           ORCA NUMERICAL GRADIENT
                              (28-process run)
----------------------------------------------------------------------------

I state                        ... 1
J state                        ... 0
Number of atoms                ... 2
Derivative's order of accuracy ... 2
Central differences            ... used
Number of displacements        ... 12
Numerical increment            ... 5.000e-03 bohr
Translation invariance         ... used

The output will be reduced. Please look at the following files:
SCF program output             ... >alcl.lastscf
Integral program output        ... >alcl.lastint
Gradient program output        ... >alcl.lastgrad


     Note:   There are more processes than displacements to do
     ===>:   Reducing number of processes to   3

             <<<Displacing   2/coordinate 2 (+)>>>
             <<<Displacing   2/coordinate 1 (+)>>>
             <<<Displacing   2/coordinate 3 (+)>>>
             <<<Displacing   2/coordinate 1 (-)>>>
             <<<Displacing   2/coordinate 2 (-)>>>
             <<<Displacing   2/coordinate 3 (-)>>>

------------------------------
CARTESIAN GRADIENT (NUMERICAL)
-------------------------------
   1   Cl  :   -0.000000000    0.000000000    0.000797377
   2   Al  :    0.000000000   -0.000000000   -0.000797377

Norm of the cartesian gradient     ...    0.001127662
RMS gradient                       ...    0.000460366
MAX gradient                       ...    0.000797377

-------
TIMINGS
-------

Total numerical gradient time      ...       15.270 sec


                            ***************************************
                            *     ORCA property calculations      *
                            ***************************************

                                    ---------------------
                                    Active property flags
                                    ---------------------
   (+) Dipole Moment


------------------------------------------------------------------------------
                       ORCA ELECTRIC PROPERTIES CALCULATION
------------------------------------------------------------------------------

Dipole Moment Calculation                       ... on
Quadrupole Moment Calculation                   ... off
Polarizability Calculation                      ... off
GBWName                                         ... alcl.gbw
Electron density file                           ... alcl.scfp
The origin for moment calculation is the CENTER OF MASS  = ( 0.000000,  0.000000 -0.274476)

-------------
DIPOLE MOMENT
-------------
                                X             Y             Z
Electronic contribution:     -0.00000       0.00000       0.46638
Nuclear contribution   :      0.00000       0.00000       0.14224
                        -----------------------------------------
Total Dipole Moment    :     -0.00000       0.00000       0.60863
                        -----------------------------------------
Magnitude (a.u.)       :      0.60863
Magnitude (Debye)      :      1.54701



--------------------
Rotational spectrum 
--------------------
 
Rotational constants in cm-1:     0.000000     0.240016     0.240016 
Rotational constants in MHz :     0.000000  7195.498973  7195.498973 

 Dipole components along the rotational axes: 
x,y,z [a.u.] :     0.608627     0.000000    -0.000000 
x,y,z [Debye]:     1.547006     0.000000    -0.000000 

 

Timings for individual modules:

Sum of individual times         ...       28.555 sec (=   0.476 min)
GTO integral calculation        ...        1.455 sec (=   0.024 min)   5.1 %
SCF iterations                  ...       11.830 sec (=   0.197 min)  41.4 %
SCF Gradient evaluation         ...       15.270 sec (=   0.254 min)  53.5 %
                             ****ORCA TERMINATED NORMALLY****
TOTAL RUN TIME: 0 days 0 hours 0 minutes 29 seconds 286 msec
