
                                 *****************
                                 * O   R   C   A *
                                 *****************

           --- An Ab Initio, DFT and Semiempirical electronic structure package ---

                  #######################################################
                  #                        -***-                        #
                  #          Department of theory and spectroscopy      #
                  #               Directorship: Frank Neese             #
                  #        Max Planck Institute fuer Kohlenforschung    #
                  #                Kaiser Wilhelm Platz 1               #
                  #                 D-45470 Muelheim/Ruhr               #
                  #                      Germany                        #
                  #                                                     #
                  #                  All rights reserved                #
                  #                        -***-                        #
                  #######################################################


                         Program Version 4.2.0 -  RELEASE  -


 With contributions from (in alphabetic order):
   Daniel Aravena         : Magnetic Suceptibility
   Michael Atanasov       : Ab Initio Ligand Field Theory (pilot matlab implementation)
   Alexander A. Auer      : GIAO ZORA, VPT2
   Ute Becker             : Parallelization
   Giovanni Bistoni       : ED, misc. LED, open-shell LED, HFLED
   Martin Brehm           : Molecular dynamics
   Dmytro Bykov           : SCF Hessian
   Vijay G. Chilkuri      : MRCI spin determinant printing, contributions to CSF-ICE
   Dipayan Datta          : RHF DLPNO-CCSD density
   Achintya Kumar Dutta   : EOM-CC, STEOM-CC
   Dmitry Ganyushin       : Spin-Orbit,Spin-Spin,Magnetic field MRCI
   Miquel Garcia          : C-PCM Hessian, Gaussian charge scheme
   Yang Guo               : DLPNO-NEVPT2, CIM, IAO-localization
   Andreas Hansen         : Spin unrestricted coupled pair/coupled cluster methods
   Benjamin Helmich-Paris : CASSCF linear response (MC-RPA)
   Lee Huntington         : MR-EOM, pCC
   Robert Izsak           : Overlap fitted RIJCOSX, COSX-SCS-MP3, EOM
   Christian Kollmar      : KDIIS, OOCD, Brueckner-CCSD(T), CCSD density
   Simone Kossmann        : Meta GGA functionals, TD-DFT gradient, OOMP2, MP2 Hessian
   Martin Krupicka        : AUTO-CI
   Lucas Lang             : DCDCAS
   Dagmar Lenk            : GEPOL surface, SMD
   Dimitrios Liakos       : Extrapolation schemes; Compound Job, initial MDCI parallelization
   Dimitrios Manganas     : Further ROCIS development; embedding schemes
   Dimitrios Pantazis     : SARC Basis sets
   Taras Petrenko         : DFT Hessian,TD-DFT gradient, ASA, ECA, R-Raman, ABS, FL, XAS/XES, NRVS
   Peter Pinski           : DLPNO-MP2, DLPNO-MP2 Gradient
   Christoph Reimann      : Effective Core Potentials
   Marius Retegan         : Local ZFS, SOC
   Christoph Riplinger    : Optimizer, TS searches, QM/MM, DLPNO-CCSD(T), (RO)-DLPNO pert. Triples
   Tobias Risthaus        : Range-separated hybrids, TD-DFT gradient, RPA, STAB
   Michael Roemelt        : Original ROCIS implementation
   Masaaki Saitow         : Open-shell DLPNO-CCSD energy and density
   Barbara Sandhoefer     : DKH picture change effects
   Avijit Sen             : IP-ROCIS
   Kantharuban Sivalingam : CASSCF convergence, NEVPT2, FIC-MRCI
   Bernardo de Souza      : ESD, SOC TD-DFT
   Georgi Stoychev        : AutoAux, RI-MP2 NMR
   Willem Van den Heuvel  : Paramagnetic NMR
   Boris Wezisla          : Elementary symmetry handling
   Frank Wennmohs         : Technical directorship


 We gratefully acknowledge several colleagues who have allowed us to
 interface, adapt or use parts of their codes:
   Stefan Grimme, W. Hujo, H. Kruse,             : VdW corrections, initial TS optimization,
                  C. Bannwarth                     DFT functionals, gCP, sTDA/sTD-DF
   Ed Valeev, F. Pavosevic, A. Kumar             : LibInt (2-el integral package), F12 methods
   Garnet Chan, S. Sharma, J. Yang, R. Olivares  : DMRG
   Ulf Ekstrom                                   : XCFun DFT Library
   Mihaly Kallay                                 : mrcc  (arbitrary order and MRCC methods)
   Andreas Klamt, Michael Diedenhofen            : otool_cosmo (COSMO solvation model)
   Jiri Pittner, Ondrej Demel                    : Mk-CCSD
   Frank Weinhold                                : gennbo (NPA and NBO analysis)
   Christopher J. Cramer and Donald G. Truhlar   : smd solvation model
   Lars Goerigk                                  : TD-DFT with DH, B97 family of functionals
   V. Asgeirsson, H. Jonsson                     : NEB implementation
   FAccTs GmbH                                   : IRC, NEB, NEB-TS, Multilevel, MM, QM/MM, CI optimization
   S Lehtola, MJT Oliveira, MAL Marques          : LibXC Library


 Your calculation uses the libint2 library for the computation of 2-el integrals
 For citations please refer to: http://libint.valeyev.net

 Your ORCA version has been built with support for libXC version: 4.2.3
 For citations please refer to: https://tddft.org/programs/libxc/

 This ORCA versions uses:
   CBLAS   interface :  Fast vector & matrix operations
   LAPACKE interface :  Fast linear algebra routines
   SCALAPACK package :  Parallel linear algebra routines


Your calculation utilizes the DFT-NL dispersion correction.
Cite in your paper:
Vydrov, O. A.; Van Voorhis, T. J. Chem. Phys. 2010, 133, 244103
Hujo, W.; Grimme, S. J. Chem. Theory Comput. 2011, 7, 3866 
   

----- Orbital basis set information -----
Your calculation utilizes the basis: def2-TZVPPD
   F. Weigend and R. Ahlrichs, Phys. Chem. Chem. Phys. 7, 3297 (2005).
   D. Rappoport and F. Furche, J. Chem. Phys. 133 134105 (2010).

----- AuxJK basis set information -----
Your calculation utilizes the auxiliary basis: def2/JK
   H-Ba, Hf-Rn: F. Weigend, J. Comput. Chem. 29, 167 (2008).

================================================================================
                                        WARNINGS
                       Please study these warnings very carefully!
================================================================================

INFO   : Found keyword 'NumGrad' for Energy calculation
  ===> : Setting RunTyp to EnGrad

WARNING: Numerical Gradient with sloppy Convergence Criteria    
         Your results may be not reliable!                      
         Please choose at least TightSCF!                       

WARNING: your system is open-shell and RHF/RKS was chosen
  ===> : WILL SWITCH to UHF/UKS


INFO   : the flag for use of LIBINT has been found!

================================================================================
                                       INPUT FILE
================================================================================
NAME = CH3.in
|  1> #
|  2> # CH3 wB97X-V/Def2-TZVPPD
|  3> #
|  4> ! wb97x-v def2-tzvppd def2/jk grid4 nofinalgrid numgrad
|  5> 
|  6> *xyz 0 2
|  7> C          0.00000        0.00000        0.00000
|  8> H          0.00000        0.00000        1.07732
|  9> H          0.93298        0.00000       -0.53866
| 10> H         -0.93298        0.00000       -0.53866
| 11> *
| 12> 
| 13> %maxcore 5000
| 14> 
| 15> %pal
| 16> nprocs = 28
| 17> end
| 18> 
| 19> 
| 20>                          ****END OF INPUT****
================================================================================

                     *******************************
                     * Energy+Gradient Calculation *
                     *******************************

---------------------------------
CARTESIAN COORDINATES (ANGSTROEM)
---------------------------------
  C      0.000000    0.000000    0.000000
  H      0.000000    0.000000    1.077320
  H      0.932980    0.000000   -0.538660
  H     -0.932980    0.000000   -0.538660

----------------------------
CARTESIAN COORDINATES (A.U.)
----------------------------
  NO LB      ZA    FRAG     MASS         X           Y           Z
   0 C     6.0000    0    12.011    0.000000    0.000000    0.000000
   1 H     1.0000    0     1.008    0.000000    0.000000    2.035840
   2 H     1.0000    0     1.008    1.763077    0.000000   -1.017920
   3 H     1.0000    0     1.008   -1.763077    0.000000   -1.017920

--------------------------------
INTERNAL COORDINATES (ANGSTROEM)
--------------------------------
 C      0   0   0     0.000000000000     0.00000000     0.00000000
 H      1   0   0     1.077320000000     0.00000000     0.00000000
 H      1   2   0     1.077314381228   120.00017253     0.00000000
 H      1   2   3     1.077314381228   120.00017253   180.00000121

---------------------------
INTERNAL COORDINATES (A.U.)
---------------------------
 C      0   0   0     0.000000000000     0.00000000     0.00000000
 H      1   0   0     2.035839758596     0.00000000     0.00000000
 H      1   2   0     2.035829140655   120.00017253     0.00000000
 H      1   2   3     2.035829140655   120.00017253   180.00000121

---------------------
BASIS SET INFORMATION
---------------------
There are 2 groups of distinct atoms

 Group   1 Type C   : 12s6p3d1f contracted to 6s3p3d1f pattern {621111/411/111/1}
 Group   2 Type H   : 5s3p1d contracted to 3s3p1d pattern {311/111/1}

Atom   0C    basis set group =>   1
Atom   1H    basis set group =>   2
Atom   2H    basis set group =>   2
Atom   3H    basis set group =>   2
----------------------------------
AUXILIARY/JK BASIS SET INFORMATION
----------------------------------
There are 2 groups of distinct atoms

 Group   1 Type C   : 14s10p6d2f1g contracted to 10s8p5d1f1g pattern {5111111111/31111111/21111/2/1}
 Group   2 Type H   : 4s2p2d contracted to 2s2p2d pattern {31/11/11}

Atom   0C    basis set group =>   1
Atom   1H    basis set group =>   2
Atom   2H    basis set group =>   2
Atom   3H    basis set group =>   2


           ************************************************************
           *        Program running with 28 parallel MPI-processes    *
           *              working on a common directory               *
           ************************************************************
------------------------------------------------------------------------------
                           ORCA GTO INTEGRAL CALCULATION
------------------------------------------------------------------------------

                         BASIS SET STATISTICS AND STARTUP INFO

 # of primitive gaussian shells          ...   49
 # of primitive gaussian functions       ...  109
 # of contracted shells                  ...   34
 # of contracted basis functions         ...   88
 Highest angular momentum                ...    3
 Maximum contraction depth               ...    6
 Integral package used                   ... LIBINT
 Integral threshhold            Thresh   ...  1.000e-10
 Primitive cut-off              TCut     ...  1.000e-11


------------------------------ INTEGRAL EVALUATION ----------------------------


 * One electron integrals 
 Pre-screening matrix                    ... done
 Shell pair data                         ... done (   0.000 sec)



           ************************************************************
           *        Program running with 28 parallel MPI-processes    *
           *              working on a common directory               *
           ************************************************************
-------------------------------------------------------------------------------
                                 ORCA SCF
-------------------------------------------------------------------------------

------------
SCF SETTINGS
------------
Hamiltonian:
 Density Functional     Method          .... DFT(GTOs)
 Exchange Functional    Exchange        .... WB97X-V
 Correlation Functional Correlation     .... WB97X-V
 Gradients option       PostSCFGGA      .... off
 Hybrid DFT is turned on
   Fraction HF Exchange ScalHFX         ....  0.167000
   Scaling of DF-GGA-X  ScalDFX         ....  0.000000
   Scaling of DF-GGA-C  ScalDFC         ....  1.000000
   Scaling of DF-LDA-C  ScalLDAC        ....  1.000000
   Perturbative correction              ....  0.000000
   Density functional embedding theory  .... OFF
 Long-range corrected/Screened/Range-Separated Hybrid DFT is turned on
   Amount of maximum screened exact exchange              ....  0.833000
   Range separation parameter mu (erf(mu*r12)/r12)        ....  0.300000
   NL short-range parameter             ....  6.000000
   NL long-range parameter              ....  0.010000


General Settings:
 Integral files         IntName         .... CH3
 Hartree-Fock type      HFTyp           .... UHF
 Total Charge           Charge          ....    0
 Multiplicity           Mult            ....    2
 Number of Electrons    NEL             ....    9
 Basis Dimension        Dim             ....   88
 Nuclear Repulsion      ENuc            ....      9.6923735442 Eh

Convergence Acceleration:
 DIIS                   CNVDIIS         .... on
   Start iteration      DIISMaxIt       ....    12
   Startup error        DIISStart       ....  0.200000
   # of expansion vecs  DIISMaxEq       ....     5
   Bias factor          DIISBfac        ....   1.050
   Max. coefficient     DIISMaxC        ....  10.000
 Newton-Raphson         CNVNR           .... off
 SOSCF                  CNVSOSCF        .... off
 Level Shifting         CNVShift        .... on
   Level shift para.    LevelShift      ....    0.2500
   Turn off err/grad.   ShiftErr        ....    0.0010
 Zerner damping         CNVZerner       .... off
 Static damping         CNVDamp         .... on
   Fraction old density DampFac         ....    0.7000
   Max. Damping (<1)    DampMax         ....    0.9800
   Min. Damping (>=0)   DampMin         ....    0.0000
   Turn off err/grad.   DampErr         ....    0.1000
 Fernandez-Rico         CNVRico         .... off

SCF Procedure:
 Maximum # iterations   MaxIter         ....   125
 SCF integral mode      SCFMode         .... Direct
   Integral package                     .... LIBINT
 Reset frequency        DirectResetFreq ....    20
 Integral Threshold     Thresh          ....  1.000e-10 Eh
 Primitive CutOff       TCut            ....  1.000e-11 Eh

Convergence Tolerance:
 Convergence Check Mode ConvCheckMode   .... Total+1el-Energy
 Convergence forced     ConvForced      .... 0
 Energy Change          TolE            ....  1.000e-06 Eh
 1-El. energy change                    ....  1.000e-03 Eh
 DIIS Error             TolErr          ....  1.000e-06


Diagonalization of the overlap matrix:
Smallest eigenvalue                        ... 6.935e-05
Time for diagonalization                   ...    0.002 sec
Threshold for overlap eigenvalues          ... 1.000e-08
Number of eigenvalues below threshold      ... 0
Time for construction of square roots      ...    0.010 sec
Total time needed                          ...    0.012 sec

-------------------
DFT GRID GENERATION
-------------------

General Integration Accuracy     IntAcc      ...  4.670
Radial Grid Type                 RadialGrid  ... Gauss-Chebyshev
Angular Grid (max. acc.)         AngularGrid ... Lebedev-302
Angular grid pruning method      GridPruning ... 3 (G Style)
Weight generation scheme         WeightScheme... Becke
Basis function cutoff            BFCut       ...    1.0000e-10
Integration weight cutoff        WCut        ...    1.0000e-14
Grids for H and He will be reduced by one unit

# of grid points (after initial pruning)     ...  16394 (   0.0 sec)
# of grid points (after weights+screening)   ...  16149 (   0.0 sec)
nearest neighbour list constructed           ...    0.0 sec
Grid point re-assignment to atoms done       ...    0.0 sec
Grid point division into batches done        ...    0.1 sec
Reduced shell lists constructed in    0.1 sec

Total number of grid points                  ...    16149
Total number of batches                      ...      253
Average number of points per batch           ...       63
Average number of grid points per atom       ...     4037
Average number of shells per batch           ...    30.00 (88.24%)
Average number of basis functions per batch  ...    79.09 (89.88%)
Average number of large shells per batch     ...    28.18 (93.94%)
Average number of large basis fcns per batch ...    74.73 (94.48%)
Maximum spatial batch extension              ...   2.57, 19.60,  2.88 au
Average spatial batch extension              ...   0.08,  0.20,  0.07 au

Time for grid setup =    0.080 sec

------------------------------
INITIAL GUESS: MODEL POTENTIAL
------------------------------
Loading Hartree-Fock densities                     ... done
Calculating cut-offs                               ... done
Setting up the integral package                    ... done
Initializing the effective Hamiltonian             ... done
Starting the Coulomb interaction                   ... done (   0.0 sec)
Reading the grid                                   ... done
Mapping shells                                     ... done
Starting the XC term evaluation                    ... done (   0.0 sec)
  promolecular density results
     # of electrons  =      8.998546177
     EX              =     -3.819642289
     EC              =     -0.323186394
     EX+EC           =     -4.142828683
Transforming the Hamiltonian                       ... done (   0.0 sec)
Diagonalizing the Hamiltonian                      ... done (   0.0 sec)
Back transforming the eigenvectors                 ... done (   0.0 sec)
Now organizing SCF variables                       ... done
                      ------------------
                      INITIAL GUESS DONE (   0.2 sec)
                      ------------------
--------------
SCF ITERATIONS
--------------
ITER       Energy         Delta-E        Max-DP      RMS-DP      [F,P]     Damp
               ***  Starting incremental Fock matrix formation  ***
  0    -39.8663538812   0.000000000000 0.01439626  0.00026352  0.2626601 0.7000
  1    -39.8683132528  -0.001959371597 0.01073116  0.00023154  0.1810050 0.7000
                               ***Turning on DIIS***
  2    -39.8698439503  -0.001530697564 0.00754502  0.00018833  0.1241287 0.7000
  3    -39.8710131854  -0.001169235074 0.01775444  0.00055343  0.0850761 0.0000
  4    -39.8743048857  -0.003291700300 0.00297628  0.00012009  0.0058750 0.0000
  5    -39.8744444385  -0.000139552774 0.00216483  0.00008232  0.0033012 0.0000
  6    -39.8744975896  -0.000053151170 0.00090654  0.00003028  0.0012828 0.0000
  7    -39.8745059719  -0.000008382243 0.00073987  0.00001700  0.0004340 0.0000
  8    -39.8745073435  -0.000001371633 0.00012496  0.00000382  0.0000289 0.0000
                 **** Energy Check signals convergence ****

               *****************************************************
               *                     SUCCESS                       *
               *           SCF CONVERGED AFTER   9 CYCLES          *
               *****************************************************


Setting up the DFT-NL grid :

General Integration Accuracy     IntAcc      ...  4.340
Radial Grid Type                 RadialGrid  ... Gauss-Chebyshev
Angular Grid (max. acc.)         AngularGrid ... Lebedev-110
Angular grid pruning method      GridPruning ... 3 (G Style)
Weight generation scheme         WeightScheme... Becke
Basis function cutoff            BFCut       ...    1.0000e-10
Integration weight cutoff        WCut        ...    1.0000e-14
Grids for H and He will be reduced by one unit

# of grid points (after initial pruning)     ...   4038 (   0.0 sec)
# of grid points (after weights+screening)   ...   3969 (   0.0 sec)
nearest neighbour list constructed           ...    0.0 sec
Grid point re-assignment to atoms done       ...    0.0 sec
Grid point division into batches done        ...    0.0 sec
Reduced shell lists constructed in    0.0 sec

Total number of grid points                  ...     3969
Total number of batches                      ...       63
Average number of points per batch           ...       63
Average number of grid points per atom       ...      992
Average number of shells per batch           ...    25.00 (73.53%)
Average number of basis functions per batch  ...    65.50 (74.43%)
Average number of large shells per batch     ...    25.00 (100.00%)
Average number of large basis fcns per batch ...    65.50 (100.00%)
Maximum spatial batch extension              ...   2.26, 20.53,  2.78 au
Average spatial batch extension              ...   0.09,  0.69,  0.11 au

Final grid set up in    0.2 sec

-------------------------------------------------------------------------------
                         DFT-NL dispersion correction                          
-------------------------------------------------------------------------------

SC Energy -39.874507358 
NL    Energy 0.037685449 
SC+NL Energy -39.836821910 
NL done in    0.5 sec
-------------------------------------------------------------------------------

----------------
TOTAL SCF ENERGY
----------------

Total Energy       :          -39.83682191 Eh           -1084.01503 eV

Components:
Nuclear Repulsion  :            9.69237354 Eh             263.74289 eV
Electronic Energy  :          -49.52919545 Eh           -1347.75793 eV
One Electron Energy:          -71.67311533 Eh           -1950.32462 eV
Two Electron Energy:           22.14391987 Eh             602.56669 eV

Virial components:
Potential Energy   :          -79.49732915 Eh           -2163.23230 eV
Kinetic Energy     :           39.66050724 Eh            1079.21727 eV
Virial Ratio       :            2.00444560


DFT components:
N(Alpha)           :        4.999997676805 electrons
N(Beta)            :        3.999998958112 electrons
N(Total)           :        8.999996634918 electrons
E(X)               :       -4.000979685447 Eh       
E(C)               :       -0.320083088715 Eh       
NL Energy, E(C,NL) :        0.037685448895 Eh       
E(XC)              :       -4.283377325268 Eh       
DFET-embed. en.    :        0.000000000000 Eh       

---------------
SCF CONVERGENCE
---------------

  Last Energy change         ...   -1.4914e-08  Tolerance :   1.0000e-06
  Last MAX-Density change    ...    2.1212e-05  Tolerance :   1.0000e-05
  Last RMS-Density change    ...    7.5187e-07  Tolerance :   1.0000e-06
  Last DIIS Error            ...    2.3506e-06  Tolerance :   1.0000e-06

             **** THE GBW FILE WAS UPDATED (CH3.gbw) ****
             **** DENSITY FILE WAS UPDATED (CH3.scfp) ****
             **** ENERGY FILE WAS UPDATED (CH3.en.tmp) ****
----------------------
UHF SPIN CONTAMINATION
----------------------

Warning: in a DFT calculation there is little theoretical justification to 
         calculate <S**2> as in Hartree-Fock theory. We will do it anyways
         but you should keep in mind that the values have only limited relevance

Expectation value of <S**2>     :     0.753095
Ideal value S*(S+1) for S=0.5   :     0.750000
Deviation                       :     0.003095

             **** THE GBW FILE WAS UPDATED (CH3.gbw) ****
             **** DENSITY FILE WAS UPDATED (CH3.scfp) ****
----------------
ORBITAL ENERGIES
----------------
                 SPIN UP ORBITALS
  NO   OCC          E(Eh)            E(eV) 
   0   1.0000     -10.281287      -279.7680 
   1   1.0000      -0.819427       -22.2977 
   2   1.0000      -0.534242       -14.5375 
   3   1.0000      -0.534242       -14.5375 
   4   1.0000      -0.337511        -9.1842 
   5   0.0000       0.068530         1.8648 
   6   0.0000       0.151794         4.1305 
   7   0.0000       0.151795         4.1306 
   8   0.0000       0.190316         5.1788 
   9   0.0000       0.197201         5.3661 
  10   0.0000       0.197204         5.3662 
  11   0.0000       0.227099         6.1797 
  12   0.0000       0.249940         6.8012 
  13   0.0000       0.249950         6.8015 
  14   0.0000       0.304066         8.2740 
  15   0.0000       0.353797         9.6273 
  16   0.0000       0.360896         9.8205 
  17   0.0000       0.374407        10.1881 
  18   0.0000       0.374413        10.1883 
  19   0.0000       0.383366        10.4319 
  20   0.0000       0.383367        10.4319 
  21   0.0000       0.472924        12.8689 
  22   0.0000       0.472931        12.8691 
  23   0.0000       0.490518        13.3477 
  24   0.0000       0.507607        13.8127 
  25   0.0000       0.518597        14.1117 
  26   0.0000       0.518612        14.1122 
  27   0.0000       0.772012        21.0075 
  28   0.0000       0.796700        21.6793 
  29   0.0000       0.796718        21.6798 
  30   0.0000       0.833971        22.6935 
  31   0.0000       0.833987        22.6939 
  32   0.0000       0.986487        26.8437 
  33   0.0000       0.986512        26.8444 
  34   0.0000       1.082096        29.4453 
  35   0.0000       1.086410        29.5627 
  36   0.0000       1.098164        29.8826 
  37   0.0000       1.314417        35.7671 
  38   0.0000       1.314421        35.7672 
  39   0.0000       1.500742        40.8373 
  40   0.0000       1.521769        41.4094 
  41   0.0000       1.521788        41.4099 
  42   0.0000       1.552361        42.2419 
  43   0.0000       1.552392        42.2427 
  44   0.0000       1.722876        46.8819 
  45   0.0000       1.818859        49.4937 
  46   0.0000       1.883701        51.2581 
  47   0.0000       1.883717        51.2585 
  48   0.0000       2.706474        73.6469 
  49   0.0000       2.706513        73.6480 
  50   0.0000       2.795204        76.0614 
  51   0.0000       2.795223        76.0619 
  52   0.0000       2.801041        76.2202 
  53   0.0000       2.999603        81.6233 
  54   0.0000       3.031581        82.4935 
  55   0.0000       3.031583        82.4936 
  56   0.0000       3.055821        83.1531 
  57   0.0000       3.114356        84.7459 
  58   0.0000       3.139344        85.4259 
  59   0.0000       3.139374        85.4267 
  60   0.0000       3.310133        90.0733 
  61   0.0000       3.588205        97.6400 
  62   0.0000       3.588287        97.6423 
  63   0.0000       3.664104        99.7053 
  64   0.0000       3.787975       103.0760 
  65   0.0000       3.787985       103.0763 
  66   0.0000       3.810848       103.6984 
  67   0.0000       3.810878       103.6993 
  68   0.0000       4.035503       109.8116 
  69   0.0000       4.047596       110.1407 
  70   0.0000       4.052823       110.2829 
  71   0.0000       4.085777       111.1796 
  72   0.0000       4.085790       111.1800 
  73   0.0000       4.251158       115.6799 
  74   0.0000       4.251159       115.6799 
  75   0.0000       4.674088       127.1884 
  76   0.0000       4.768958       129.7699 
  77   0.0000       4.769012       129.7714 
  78   0.0000       5.029807       136.8680 
  79   0.0000       5.029826       136.8685 
  80   0.0000       5.078632       138.1966 
  81   0.0000       5.078659       138.1973 
  82   0.0000       5.549843       151.0189 
  83   0.0000       5.567538       151.5004 
  84   0.0000       5.567540       151.5005 
  85   0.0000       5.720457       155.6615 
  86   0.0000       6.316995       171.8942 
  87   0.0000      23.578156       641.5943 

                 SPIN DOWN ORBITALS
  NO   OCC          E(Eh)            E(eV) 
   0   1.0000     -10.270355      -279.4706 
   1   1.0000      -0.777270       -21.1506 
   2   1.0000      -0.523473       -14.2444 
   3   1.0000      -0.523472       -14.2444 
   4   0.0000       0.012867         0.3501 
   5   0.0000       0.073917         2.0114 
   6   0.0000       0.153988         4.1902 
   7   0.0000       0.153988         4.1902 
   8   0.0000       0.197232         5.3669 
   9   0.0000       0.197238         5.3671 
  10   0.0000       0.202867         5.5203 
  11   0.0000       0.255739         6.9590 
  12   0.0000       0.256517         6.9802 
  13   0.0000       0.256530         6.9805 
  14   0.0000       0.312032         8.4908 
  15   0.0000       0.353833         9.6283 
  16   0.0000       0.369359        10.0508 
  17   0.0000       0.379164        10.3176 
  18   0.0000       0.379170        10.3177 
  19   0.0000       0.385825        10.4988 
  20   0.0000       0.385846        10.4994 
  21   0.0000       0.474159        12.9025 
  22   0.0000       0.474170        12.9028 
  23   0.0000       0.514800        14.0084 
  24   0.0000       0.516998        14.0682 
  25   0.0000       0.520433        14.1617 
  26   0.0000       0.520476        14.1629 
  27   0.0000       0.782686        21.2980 
  28   0.0000       0.800739        21.7892 
  29   0.0000       0.800755        21.7897 
  30   0.0000       0.859352        23.3842 
  31   0.0000       0.859377        23.3848 
  32   0.0000       0.990046        26.9405 
  33   0.0000       0.990085        26.9416 
  34   0.0000       1.085989        29.5513 
  35   0.0000       1.098926        29.9033 
  36   0.0000       1.125356        30.6225 
  37   0.0000       1.328447        36.1489 
  38   0.0000       1.328473        36.1496 
  39   0.0000       1.505166        40.9576 
  40   0.0000       1.527113        41.5549 
  41   0.0000       1.527138        41.5556 
  42   0.0000       1.556003        42.3410 
  43   0.0000       1.556026        42.3416 
  44   0.0000       1.778323        48.3906 
  45   0.0000       1.839452        50.0540 
  46   0.0000       1.901140        51.7327 
  47   0.0000       1.901188        51.7339 
  48   0.0000       2.712453        73.8096 
  49   0.0000       2.712484        73.8104 
  50   0.0000       2.802479        76.2593 
  51   0.0000       2.822893        76.8148 
  52   0.0000       2.822916        76.8155 
  53   0.0000       3.038856        82.6915 
  54   0.0000       3.039339        82.7046 
  55   0.0000       3.039354        82.7050 
  56   0.0000       3.059577        83.2553 
  57   0.0000       3.174024        86.3696 
  58   0.0000       3.175373        86.4063 
  59   0.0000       3.175443        86.4082 
  60   0.0000       3.313240        90.1578 
  61   0.0000       3.599494        97.9472 
  62   0.0000       3.599531        97.9482 
  63   0.0000       3.670053        99.8672 
  64   0.0000       3.795633       103.2844 
  65   0.0000       3.795646       103.2848 
  66   0.0000       3.829199       104.1978 
  67   0.0000       3.829237       104.1988 
  68   0.0000       4.038644       109.8971 
  69   0.0000       4.044273       110.0503 
  70   0.0000       4.054223       110.3210 
  71   0.0000       4.086619       111.2026 
  72   0.0000       4.086631       111.2029 
  73   0.0000       4.257363       115.8487 
  74   0.0000       4.257366       115.8488 
  75   0.0000       4.688690       127.5858 
  76   0.0000       4.772690       129.8715 
  77   0.0000       4.772721       129.8723 
  78   0.0000       5.033725       136.9746 
  79   0.0000       5.033740       136.9750 
  80   0.0000       5.105336       138.9233 
  81   0.0000       5.105370       138.9242 
  82   0.0000       5.564018       151.4046 
  83   0.0000       5.575113       151.7065 
  84   0.0000       5.575118       151.7067 
  85   0.0000       5.725880       155.8091 
  86   0.0000       6.323504       172.0713 
  87   0.0000      23.591735       641.9638 

                    ********************************
                    * MULLIKEN POPULATION ANALYSIS *
                    ********************************

--------------------------------------------
MULLIKEN ATOMIC CHARGES AND SPIN POPULATIONS
--------------------------------------------
   0 C :   -0.250556    1.000034
   1 H :    0.083424   -0.000021
   2 H :    0.083566   -0.000007
   3 H :    0.083566   -0.000006
Sum of atomic charges         :   -0.0000000
Sum of atomic spin populations:    1.0000000

-----------------------------------------------------
MULLIKEN REDUCED ORBITAL CHARGES AND SPIN POPULATIONS
-----------------------------------------------------
CHARGE
  0 C s       :     3.217373  s :     3.217373
      pz      :     1.043592  p :     3.007636
      px      :     1.043632
      py      :     0.920412
      dz2     :     0.008731  d :     0.024077
      dxz     :     0.010882
      dyz     :     0.000000
      dx2y2   :     0.004465
      dxy     :    -0.000000
      f0      :     0.000456  f :     0.001470
      f+1     :     0.000034
      f-1     :    -0.000011
      f+2     :     0.000494
      f-2     :     0.000000
      f+3     :     0.000516
      f-3     :    -0.000019
  1 H s       :     0.871813  s :     0.871813
      pz      :     0.013532  p :     0.042999
      px      :     0.003724
      py      :     0.025743
      dz2     :     0.000245  d :     0.001763
      dxz     :     0.000714
      dyz     :     0.000800
      dx2y2   :     0.000005
      dxy     :    -0.000000
  2 H s       :     0.871681  s :     0.871681
      pz      :     0.006185  p :     0.042991
      px      :     0.011068
      py      :     0.025737
      dz2     :     0.000406  d :     0.001763
      dxz     :     0.000312
      dyz     :     0.000200
      dx2y2   :     0.000245
      dxy     :     0.000600
  3 H s       :     0.871680  s :     0.871680
      pz      :     0.006185  p :     0.042991
      px      :     0.011068
      py      :     0.025737
      dz2     :     0.000406  d :     0.001763
      dxz     :     0.000312
      dyz     :     0.000200
      dx2y2   :     0.000245
      dxy     :     0.000600

SPIN
  0 C s       :    -0.003217  s :    -0.003217
      pz      :     0.041261  p :     1.002947
      px      :     0.041273
      py      :     0.920412
      dz2     :     0.001122  d :     0.001452
      dxz     :     0.003037
      dyz     :     0.000000
      dx2y2   :    -0.002706
      dxy     :     0.000000
      f0      :    -0.000238  f :    -0.001147
      f+1     :    -0.000033
      f-1     :    -0.000011
      f+2     :    -0.000353
      f-2     :     0.000000
      f+3     :    -0.000493
      f-3     :    -0.000019
  1 H s       :    -0.032269  s :    -0.032269
      pz      :     0.003116  p :     0.031345
      px      :     0.002485
      py      :     0.025743
      dz2     :     0.000047  d :     0.000903
      dxz     :     0.000056
      dyz     :     0.000800
      dx2y2   :    -0.000001
      dxy     :    -0.000000
  2 H s       :    -0.032245  s :    -0.032245
      pz      :     0.002647  p :     0.031335
      px      :     0.002950
      py      :     0.025737
      dz2     :     0.000039  d :     0.000903
      dxz     :     0.000067
      dyz     :     0.000200
      dx2y2   :    -0.000002
      dxy     :     0.000600
  3 H s       :    -0.032245  s :    -0.032245
      pz      :     0.002647  p :     0.031335
      px      :     0.002951
      py      :     0.025737
      dz2     :     0.000039  d :     0.000903
      dxz     :     0.000067
      dyz     :     0.000200
      dx2y2   :    -0.000002
      dxy     :     0.000600


                     *******************************
                     * LOEWDIN POPULATION ANALYSIS *
                     *******************************

-------------------------------------------
LOEWDIN ATOMIC CHARGES AND SPIN POPULATIONS
-------------------------------------------
   0 C :    0.362807    0.724323
   1 H :   -0.120936    0.091891
   2 H :   -0.120936    0.091893
   3 H :   -0.120936    0.091893

----------------------------------------------------
LOEWDIN REDUCED ORBITAL CHARGES AND SPIN POPULATIONS
----------------------------------------------------
CHARGE
  0 C s       :     2.782979  s :     2.782979
      pz      :     1.000166  p :     2.699251
      px      :     1.000170
      py      :     0.698915
      dz2     :     0.052606  d :     0.145146
      dxz     :     0.065282
      dyz     :     0.000000
      dx2y2   :     0.027257
      dxy     :    -0.000000
      f0      :     0.003726  f :     0.009817
      f+1     :     0.000122
      f-1     :     0.000422
      f+2     :     0.003016
      f-2     :    -0.000000
      f+3     :     0.001828
      f-3     :     0.000703
  1 H s       :     0.764831  s :     0.764831
      pz      :     0.150213  p :     0.325653
      px      :     0.085482
      py      :     0.089959
      dz2     :     0.011001  d :     0.030452
      dxz     :     0.009418
      dyz     :     0.010028
      dx2y2   :     0.000005
      dxy     :     0.000000
  2 H s       :     0.764827  s :     0.764827
      pz      :     0.101666  p :     0.325656
      px      :     0.134031
      py      :     0.089959
      dz2     :     0.005481  d :     0.030452
      dxz     :     0.008580
      dyz     :     0.002507
      dx2y2   :     0.006364
      dxy     :     0.007521
  3 H s       :     0.764827  s :     0.764827
      pz      :     0.101666  p :     0.325656
      px      :     0.134031
      py      :     0.089959
      dz2     :     0.005481  d :     0.030452
      dxz     :     0.008580
      dyz     :     0.002507
      dx2y2   :     0.006364
      dxy     :     0.007521

SPIN
  0 C s       :     0.012248  s :     0.012248
      pz      :     0.011228  p :     0.721373
      px      :     0.011230
      py      :     0.698915
      dz2     :    -0.002728  d :    -0.009003
      dxz     :    -0.001909
      dyz     :     0.000000
      dx2y2   :    -0.004366
      dxy     :    -0.000000
      f0      :    -0.000448  f :    -0.000296
      f+1     :    -0.000031
      f-1     :     0.000422
      f+2     :    -0.000470
      f-2     :    -0.000000
      f+3     :    -0.000471
      f-3     :     0.000703
  1 H s       :    -0.013466  s :    -0.013466
      pz      :     0.004615  p :     0.094568
      px      :    -0.000006
      py      :     0.089959
      dz2     :     0.000482  d :     0.010789
      dxz     :     0.000278
      dyz     :     0.010028
      dx2y2   :     0.000002
      dxy     :    -0.000000
  2 H s       :    -0.013466  s :    -0.013466
      pz      :     0.001150  p :     0.094569
      px      :     0.003460
      py      :     0.089959
      dz2     :     0.000194  d :     0.010790
      dxz     :     0.000459
      dyz     :     0.002507
      dx2y2   :     0.000109
      dxy     :     0.007521
  3 H s       :    -0.013466  s :    -0.013466
      pz      :     0.001150  p :     0.094569
      px      :     0.003460
      py      :     0.089959
      dz2     :     0.000194  d :     0.010790
      dxz     :     0.000459
      dyz     :     0.002507
      dx2y2   :     0.000109
      dxy     :     0.007521


                      *****************************
                      * MAYER POPULATION ANALYSIS *
                      *****************************

  NA   - Mulliken gross atomic population
  ZA   - Total nuclear charge
  QA   - Mulliken gross atomic charge
  VA   - Mayer's total valence
  BVA  - Mayer's bonded valence
  FA   - Mayer's free valence

  ATOM       NA         ZA         QA         VA         BVA        FA
  0 C      6.2506     6.0000    -0.2506     3.9284     3.0758     0.8526
  1 H      0.9166     1.0000     0.0834     1.0174     1.0152     0.0022
  2 H      0.9164     1.0000     0.0836     1.0173     1.0151     0.0022
  3 H      0.9164     1.0000     0.0836     1.0173     1.0151     0.0022

  Mayer bond orders larger than 0.100000
B(  0-C ,  1-H ) :   1.0253 B(  0-C ,  2-H ) :   1.0252 B(  0-C ,  3-H ) :   1.0252 


-------
TIMINGS
-------

Total SCF time: 0 days 0 hours 0 min 5 sec 

Total time                  ....       5.185 sec
Sum of individual times     ....       4.237 sec  ( 81.7%)

Fock matrix formation       ....       3.638 sec  ( 70.2%)
  XC integration            ....       1.842 sec  ( 50.6% of F)
    Basis function eval.    ....       0.018 sec  (  1.0% of XC)
    Density eval.           ....       0.019 sec  (  1.1% of XC)
    XC-Functional eval.     ....       0.017 sec  (  0.9% of XC)
    XC-Potential eval.      ....       0.029 sec  (  1.6% of XC)
Diagonalization             ....       0.060 sec  (  1.2%)
Density matrix formation    ....       0.005 sec  (  0.1%)
Population analysis         ....       0.068 sec  (  1.3%)
Initial guess               ....       0.096 sec  (  1.9%)
Orbital Transformation      ....       0.000 sec  (  0.0%)
Orbital Orthonormalization  ....       0.000 sec  (  0.0%)
DIIS solution               ....       0.068 sec  (  1.3%)
Grid generation             ....       0.302 sec  (  5.8%)

-------------------------   --------------------
FINAL SINGLE POINT ENERGY       -39.836821909531
-------------------------   --------------------


----------------------------------------------------------------------------
                           ORCA NUMERICAL GRADIENT
                              (28-process run)
----------------------------------------------------------------------------

I state                        ... 1
J state                        ... 0
Number of atoms                ... 4
Derivative's order of accuracy ... 2
Central differences            ... used
Number of displacements        ... 24
Numerical increment            ... 5.000e-03 bohr
Translation invariance         ... used

The output will be reduced. Please look at the following files:
SCF program output             ... >CH3.lastscf
Integral program output        ... >CH3.lastint
Gradient program output        ... >CH3.lastgrad


     Note:   There are more processes than displacements to do
     ===>:   Reducing number of processes to   9

             <<<Displacing   3/coordinate 2 (+)>>>
             <<<Displacing   4/coordinate 1 (+)>>>
             <<<Displacing   2/coordinate 3 (+)>>>
             <<<Displacing   4/coordinate 3 (+)>>>
             <<<Displacing   3/coordinate 3 (+)>>>
             <<<Displacing   2/coordinate 2 (+)>>>
             <<<Displacing   2/coordinate 1 (+)>>>
             <<<Displacing   3/coordinate 1 (+)>>>
             <<<Displacing   4/coordinate 2 (+)>>>
             <<<Displacing   3/coordinate 2 (-)>>>
             <<<Displacing   4/coordinate 1 (-)>>>
             <<<Displacing   2/coordinate 3 (-)>>>
             <<<Displacing   4/coordinate 3 (-)>>>
             <<<Displacing   2/coordinate 1 (-)>>>
             <<<Displacing   3/coordinate 3 (-)>>>
             <<<Displacing   2/coordinate 2 (-)>>>
             <<<Displacing   4/coordinate 2 (-)>>>
             <<<Displacing   3/coordinate 1 (-)>>>

------------------------------
CARTESIAN GRADIENT (NUMERICAL)
-------------------------------
   1   C   :    0.000000000    0.000000000    0.000046409
   2   H   :    0.000000000    0.000000000   -0.002399398
   3   H   :   -0.002054060   -0.000000000    0.001176495
   4   H   :    0.002054060   -0.000000000    0.001176494

Norm of the cartesian gradient     ...    0.004118964
RMS gradient                       ...    0.001189043
MAX gradient                       ...    0.002399398

-------
TIMINGS
-------

Total numerical gradient time      ...        8.169 sec


                            ***************************************
                            *     ORCA property calculations      *
                            ***************************************

                                    ---------------------
                                    Active property flags
                                    ---------------------
   (+) Dipole Moment


------------------------------------------------------------------------------
                       ORCA ELECTRIC PROPERTIES CALCULATION
------------------------------------------------------------------------------

Dipole Moment Calculation                       ... on
Quadrupole Moment Calculation                   ... off
Polarizability Calculation                      ... off
GBWName                                         ... CH3.gbw
Electron density file                           ... CH3.scfp
The origin for moment calculation is the CENTER OF MASS  = ( 0.000000,  0.000000  0.000000)

-------------
DIPOLE MOMENT
-------------
                                X             Y             Z
Electronic contribution:     -0.00000      -0.00000       0.00001
Nuclear contribution   :      0.00000       0.00000       0.00000
                        -----------------------------------------
Total Dipole Moment    :     -0.00000      -0.00000       0.00001
                        -----------------------------------------
Magnitude (a.u.)       :      0.00001
Magnitude (Debye)      :      0.00002



--------------------
Rotational spectrum 
--------------------
 
Rotational constants in cm-1:     9.606423     9.606289     4.803178 
Rotational constants in MHz : 287993.315842 287989.310434 143995.656562 

 Dipole components along the rotational axes: 
x,y,z [a.u.] :     0.000007    -0.000000    -0.000000 
x,y,z [Debye]:     0.000017    -0.000000    -0.000000 

 

Timings for individual modules:

Sum of individual times         ...       14.832 sec (=   0.247 min)
GTO integral calculation        ...        0.907 sec (=   0.015 min)   6.1 %
SCF iterations                  ...        5.756 sec (=   0.096 min)  38.8 %
SCF Gradient evaluation         ...        8.169 sec (=   0.136 min)  55.1 %
                             ****ORCA TERMINATED NORMALLY****
TOTAL RUN TIME: 0 days 0 hours 0 minutes 15 seconds 555 msec
