
                                 *****************
                                 * O   R   C   A *
                                 *****************

           --- An Ab Initio, DFT and Semiempirical electronic structure package ---

                  #######################################################
                  #                        -***-                        #
                  #          Department of theory and spectroscopy      #
                  #               Directorship: Frank Neese             #
                  #        Max Planck Institute fuer Kohlenforschung    #
                  #                Kaiser Wilhelm Platz 1               #
                  #                 D-45470 Muelheim/Ruhr               #
                  #                      Germany                        #
                  #                                                     #
                  #                  All rights reserved                #
                  #                        -***-                        #
                  #######################################################


                         Program Version 4.2.0 -  RELEASE  -


 With contributions from (in alphabetic order):
   Daniel Aravena         : Magnetic Suceptibility
   Michael Atanasov       : Ab Initio Ligand Field Theory (pilot matlab implementation)
   Alexander A. Auer      : GIAO ZORA, VPT2
   Ute Becker             : Parallelization
   Giovanni Bistoni       : ED, misc. LED, open-shell LED, HFLED
   Martin Brehm           : Molecular dynamics
   Dmytro Bykov           : SCF Hessian
   Vijay G. Chilkuri      : MRCI spin determinant printing, contributions to CSF-ICE
   Dipayan Datta          : RHF DLPNO-CCSD density
   Achintya Kumar Dutta   : EOM-CC, STEOM-CC
   Dmitry Ganyushin       : Spin-Orbit,Spin-Spin,Magnetic field MRCI
   Miquel Garcia          : C-PCM Hessian, Gaussian charge scheme
   Yang Guo               : DLPNO-NEVPT2, CIM, IAO-localization
   Andreas Hansen         : Spin unrestricted coupled pair/coupled cluster methods
   Benjamin Helmich-Paris : CASSCF linear response (MC-RPA)
   Lee Huntington         : MR-EOM, pCC
   Robert Izsak           : Overlap fitted RIJCOSX, COSX-SCS-MP3, EOM
   Christian Kollmar      : KDIIS, OOCD, Brueckner-CCSD(T), CCSD density
   Simone Kossmann        : Meta GGA functionals, TD-DFT gradient, OOMP2, MP2 Hessian
   Martin Krupicka        : AUTO-CI
   Lucas Lang             : DCDCAS
   Dagmar Lenk            : GEPOL surface, SMD
   Dimitrios Liakos       : Extrapolation schemes; Compound Job, initial MDCI parallelization
   Dimitrios Manganas     : Further ROCIS development; embedding schemes
   Dimitrios Pantazis     : SARC Basis sets
   Taras Petrenko         : DFT Hessian,TD-DFT gradient, ASA, ECA, R-Raman, ABS, FL, XAS/XES, NRVS
   Peter Pinski           : DLPNO-MP2, DLPNO-MP2 Gradient
   Christoph Reimann      : Effective Core Potentials
   Marius Retegan         : Local ZFS, SOC
   Christoph Riplinger    : Optimizer, TS searches, QM/MM, DLPNO-CCSD(T), (RO)-DLPNO pert. Triples
   Tobias Risthaus        : Range-separated hybrids, TD-DFT gradient, RPA, STAB
   Michael Roemelt        : Original ROCIS implementation
   Masaaki Saitow         : Open-shell DLPNO-CCSD energy and density
   Barbara Sandhoefer     : DKH picture change effects
   Avijit Sen             : IP-ROCIS
   Kantharuban Sivalingam : CASSCF convergence, NEVPT2, FIC-MRCI
   Bernardo de Souza      : ESD, SOC TD-DFT
   Georgi Stoychev        : AutoAux, RI-MP2 NMR
   Willem Van den Heuvel  : Paramagnetic NMR
   Boris Wezisla          : Elementary symmetry handling
   Frank Wennmohs         : Technical directorship


 We gratefully acknowledge several colleagues who have allowed us to
 interface, adapt or use parts of their codes:
   Stefan Grimme, W. Hujo, H. Kruse,             : VdW corrections, initial TS optimization,
                  C. Bannwarth                     DFT functionals, gCP, sTDA/sTD-DF
   Ed Valeev, F. Pavosevic, A. Kumar             : LibInt (2-el integral package), F12 methods
   Garnet Chan, S. Sharma, J. Yang, R. Olivares  : DMRG
   Ulf Ekstrom                                   : XCFun DFT Library
   Mihaly Kallay                                 : mrcc  (arbitrary order and MRCC methods)
   Andreas Klamt, Michael Diedenhofen            : otool_cosmo (COSMO solvation model)
   Jiri Pittner, Ondrej Demel                    : Mk-CCSD
   Frank Weinhold                                : gennbo (NPA and NBO analysis)
   Christopher J. Cramer and Donald G. Truhlar   : smd solvation model
   Lars Goerigk                                  : TD-DFT with DH, B97 family of functionals
   V. Asgeirsson, H. Jonsson                     : NEB implementation
   FAccTs GmbH                                   : IRC, NEB, NEB-TS, Multilevel, MM, QM/MM, CI optimization
   S Lehtola, MJT Oliveira, MAL Marques          : LibXC Library


 Your calculation uses the libint2 library for the computation of 2-el integrals
 For citations please refer to: http://libint.valeyev.net

 Your ORCA version has been built with support for libXC version: 4.2.3
 For citations please refer to: https://tddft.org/programs/libxc/

 This ORCA versions uses:
   CBLAS   interface :  Fast vector & matrix operations
   LAPACKE interface :  Fast linear algebra routines
   SCALAPACK package :  Parallel linear algebra routines


Your calculation utilizes the DFT-NL dispersion correction.
Cite in your paper:
Vydrov, O. A.; Van Voorhis, T. J. Chem. Phys. 2010, 133, 244103
Hujo, W.; Grimme, S. J. Chem. Theory Comput. 2011, 7, 3866 
   

----- Orbital basis set information -----
Your calculation utilizes the basis: def2-TZVPPD
   F. Weigend and R. Ahlrichs, Phys. Chem. Chem. Phys. 7, 3297 (2005).
   D. Rappoport and F. Furche, J. Chem. Phys. 133 134105 (2010).

----- AuxJK basis set information -----
Your calculation utilizes the auxiliary basis: def2/JK
   H-Ba, Hf-Rn: F. Weigend, J. Comput. Chem. 29, 167 (2008).

================================================================================
                                        WARNINGS
                       Please study these warnings very carefully!
================================================================================

INFO   : Found keyword 'NumGrad' for Energy calculation
  ===> : Setting RunTyp to EnGrad

WARNING: Numerical Gradient with sloppy Convergence Criteria    
         Your results may be not reliable!                      
         Please choose at least TightSCF!                       

WARNING: your system is open-shell and RHF/RKS was chosen
  ===> : WILL SWITCH to UHF/UKS


INFO   : the flag for use of LIBINT has been found!

================================================================================
                                       INPUT FILE
================================================================================
NAME = Co_atm.in
|  1> #
|  2> # Co_atm wB97X-V/Def2-TZVPPD
|  3> #
|  4> ! wb97x-v def2-tzvppd def2/jk grid4 nofinalgrid numgrad
|  5> 
|  6> *xyz 0 4
|  7> Co         0.00000        0.00000        0.00000
|  8> *
|  9> 
| 10> %maxcore 5000
| 11> 
| 12> %pal
| 13> nprocs = 28
| 14> end
| 15> 
| 16> 
| 17>                          ****END OF INPUT****
================================================================================

                     *******************************
                     * Energy+Gradient Calculation *
                     *******************************

---------------------------------
CARTESIAN COORDINATES (ANGSTROEM)
---------------------------------
  Co     0.000000    0.000000    0.000000

----------------------------
CARTESIAN COORDINATES (A.U.)
----------------------------
  NO LB      ZA    FRAG     MASS         X           Y           Z
   0 Co   27.0000    0    58.930    0.000000    0.000000    0.000000

--------------------------------
INTERNAL COORDINATES (ANGSTROEM)
--------------------------------
 Co     0   0   0     0.000000000000     0.00000000     0.00000000

---------------------------
INTERNAL COORDINATES (A.U.)
---------------------------
 Co     0   0   0     0.000000000000     0.00000000     0.00000000

---------------------
BASIS SET INFORMATION
---------------------
There are 1 groups of distinct atoms

 Group   1 Type Co  : 17s13p7d2f1g contracted to 6s6p4d2f1g pattern {842111/631111/4111/11/1}

Atom   0Co   basis set group =>   1
----------------------------------
AUXILIARY/JK BASIS SET INFORMATION
----------------------------------
There are 1 groups of distinct atoms

 Group   1 Type Co  : 19s14p12d10f7g3h1i contracted to 16s13p11d9f5g3h1i pattern {4111111111111111/2111111111111/21111111111/211111111/31111/111/1}

Atom   0Co   basis set group =>   1


           ************************************************************
           *        Program running with 28 parallel MPI-processes    *
           *              working on a common directory               *
           ************************************************************
------------------------------------------------------------------------------
                           ORCA GTO INTEGRAL CALCULATION
------------------------------------------------------------------------------

                         BASIS SET STATISTICS AND STARTUP INFO

 # of primitive gaussian shells          ...   40
 # of primitive gaussian functions       ...  114
 # of contracted shells                  ...   19
 # of contracted basis functions         ...   67
 Highest angular momentum                ...    4
 Maximum contraction depth               ...    8
 Integral package used                   ... LIBINT
 Integral threshhold            Thresh   ...  1.000e-10
 Primitive cut-off              TCut     ...  1.000e-11


------------------------------ INTEGRAL EVALUATION ----------------------------


 * One electron integrals 
 Pre-screening matrix                    ... done
 Shell pair data                         ... done (   0.000 sec)



           ************************************************************
           *        Program running with 28 parallel MPI-processes    *
           *              working on a common directory               *
           ************************************************************
-------------------------------------------------------------------------------
                                 ORCA SCF
-------------------------------------------------------------------------------

------------
SCF SETTINGS
------------
Hamiltonian:
 Density Functional     Method          .... DFT(GTOs)
 Exchange Functional    Exchange        .... WB97X-V
 Correlation Functional Correlation     .... WB97X-V
 Gradients option       PostSCFGGA      .... off
 Hybrid DFT is turned on
   Fraction HF Exchange ScalHFX         ....  0.167000
   Scaling of DF-GGA-X  ScalDFX         ....  0.000000
   Scaling of DF-GGA-C  ScalDFC         ....  1.000000
   Scaling of DF-LDA-C  ScalLDAC        ....  1.000000
   Perturbative correction              ....  0.000000
   Density functional embedding theory  .... OFF
 Long-range corrected/Screened/Range-Separated Hybrid DFT is turned on
   Amount of maximum screened exact exchange              ....  0.833000
   Range separation parameter mu (erf(mu*r12)/r12)        ....  0.300000
   NL short-range parameter             ....  6.000000
   NL long-range parameter              ....  0.010000


General Settings:
 Integral files         IntName         .... Co_atm
 Hartree-Fock type      HFTyp           .... UHF
 Total Charge           Charge          ....    0
 Multiplicity           Mult            ....    4
 Number of Electrons    NEL             ....   27
 Basis Dimension        Dim             ....   67
 Nuclear Repulsion      ENuc            ....      0.0000000000 Eh

Convergence Acceleration:
 DIIS                   CNVDIIS         .... on
   Start iteration      DIISMaxIt       ....    12
   Startup error        DIISStart       ....  0.200000
   # of expansion vecs  DIISMaxEq       ....     5
   Bias factor          DIISBfac        ....   1.050
   Max. coefficient     DIISMaxC        ....  10.000
 Newton-Raphson         CNVNR           .... off
 SOSCF                  CNVSOSCF        .... off
 Level Shifting         CNVShift        .... on
   Level shift para.    LevelShift      ....    0.2500
   Turn off err/grad.   ShiftErr        ....    0.0010
 Zerner damping         CNVZerner       .... off
 Static damping         CNVDamp         .... on
   Fraction old density DampFac         ....    0.7000
   Max. Damping (<1)    DampMax         ....    0.9800
   Min. Damping (>=0)   DampMin         ....    0.0000
   Turn off err/grad.   DampErr         ....    0.1000
 Fernandez-Rico         CNVRico         .... off

SCF Procedure:
 Maximum # iterations   MaxIter         ....   125
 SCF integral mode      SCFMode         .... Direct
   Integral package                     .... LIBINT
 Reset frequency        DirectResetFreq ....    20
 Integral Threshold     Thresh          ....  1.000e-10 Eh
 Primitive CutOff       TCut            ....  1.000e-11 Eh

Convergence Tolerance:
 Convergence Check Mode ConvCheckMode   .... Total+1el-Energy
 Convergence forced     ConvForced      .... 0
 Energy Change          TolE            ....  1.000e-06 Eh
 1-El. energy change                    ....  1.000e-03 Eh
 DIIS Error             TolErr          ....  1.000e-06


Diagonalization of the overlap matrix:
Smallest eigenvalue                        ... 4.316e-02
Time for diagonalization                   ...    0.002 sec
Threshold for overlap eigenvalues          ... 1.000e-08
Number of eigenvalues below threshold      ... 0
Time for construction of square roots      ...    0.037 sec
Total time needed                          ...    0.039 sec

-------------------
DFT GRID GENERATION
-------------------

General Integration Accuracy     IntAcc      ...  4.670
Radial Grid Type                 RadialGrid  ... Gauss-Chebyshev
Angular Grid (max. acc.)         AngularGrid ... Lebedev-302
Angular grid pruning method      GridPruning ... 3 (G Style)
Weight generation scheme         WeightScheme... Becke
Basis function cutoff            BFCut       ...    1.0000e-10
Integration weight cutoff        WCut        ...    1.0000e-14
Grids for H and He will be reduced by one unit

# of grid points (after initial pruning)     ...   9640 (   0.0 sec)
# of grid points (after weights+screening)   ...   9640 (   0.0 sec)
Grid point division into batches done        ...    0.1 sec
Reduced shell lists constructed in    0.1 sec

Total number of grid points                  ...     9640
Total number of batches                      ...      151
Average number of points per batch           ...       63
Average number of grid points per atom       ...     9640
Average number of shells per batch           ...     3.43 (18.05%)
Average number of basis functions per batch  ...    10.29 (15.35%)
Average number of large shells per batch     ...     1.71 (50.00%)
Average number of large basis fcns per batch ...     3.43 (33.33%)
Maximum spatial batch extension              ...  22.27, 22.27, 22.27 au
Average spatial batch extension              ...   0.78,  0.77,  0.74 au

Time for grid setup =    1.320 sec

------------------------------
INITIAL GUESS: MODEL POTENTIAL
------------------------------
Loading Hartree-Fock densities                     ... done
Calculating cut-offs                               ... done
Setting up the integral package                    ... done
Initializing the effective Hamiltonian             ... done
Starting the Coulomb interaction                   ... done (   0.0 sec)
Reading the grid                                   ... done
Mapping shells                                     ... done
Starting the XC term evaluation                    ... done (   0.0 sec)
  promolecular density results
     # of electrons  =     27.000029305
     EX              =    -44.219656799
     EC              =     -1.611062006
     EX+EC           =    -45.830718805
Transforming the Hamiltonian                       ... done (   0.1 sec)
Diagonalizing the Hamiltonian                      ... done (   0.0 sec)
Back transforming the eigenvectors                 ... done (   0.0 sec)
Now organizing SCF variables                       ... done
                      ------------------
                      INITIAL GUESS DONE (   2.1 sec)
                      ------------------
--------------
SCF ITERATIONS
--------------
ITER       Energy         Delta-E        Max-DP      RMS-DP      [F,P]     Damp
               ***  Starting incremental Fock matrix formation  ***
  0  -1381.7863172418   0.000000000000 0.15886123  0.00464774  1.0602005 0.7000
  1  -1382.2286029989  -0.442285757152 0.11120488  0.00264779  0.2731858 0.7000
                               ***Turning on DIIS***
  2  -1382.3513730332  -0.122770034264 0.07783753  0.00156735  0.1524032 0.7000
  3  -1382.4323313359  -0.080958302709 0.05448505  0.00103533  0.1584560 0.7000
  4  -1382.4935964734  -0.061265137493 0.03813826  0.00070280  0.1456571 0.7000
  5  -1382.5409451522  -0.047348678831 0.02669410  0.00050870  0.1374916 0.7000
  6  -1382.5782655541  -0.037320401862 0.01868335  0.00043545  0.1133520 0.7000
  7  -1382.6063315905  -0.028066036418 0.07441433  0.00141563  0.0846897 0.0000
  8  -1382.6744546094  -0.068123018911 0.00424807  0.00020067  0.0292796 0.0000
  9  -1382.6750774227  -0.000622813271 0.01140733  0.00017506  0.0088125 0.0000
 10  -1382.6751998867  -0.000122463970 0.00575044  0.00009035  0.0018580 0.0000
 11  -1382.6752492347  -0.000049347994 0.00546095  0.00009627  0.0017070 0.0000
 12  -1382.6753108113  -0.000061576638 0.00357914  0.00008239  0.0015151 0.0000
 13  -1382.6753696035  -0.000058792163 0.00274109  0.00007302  0.0012868 0.0000
 14  -1382.6754212376  -0.000051634164 0.00295661  0.00007459  0.0010380 0.0000
 15  -1382.6754634155  -0.000042177885 0.00323182  0.00008440  0.0007728 0.0000
 16  -1382.6754945579  -0.000031142363 0.00339892  0.00008607  0.0004250 0.0000
 17  -1382.6755085971  -0.000014039219 0.00055857  0.00001494  0.0005519 0.0000
 18  -1382.6755094606  -0.000000863486 0.00045327  0.00001166  0.0000886 0.0000
                 **** Energy Check signals convergence ****

               *****************************************************
               *                     SUCCESS                       *
               *           SCF CONVERGED AFTER  19 CYCLES          *
               *****************************************************


Setting up the DFT-NL grid :

General Integration Accuracy     IntAcc      ...  4.340
Radial Grid Type                 RadialGrid  ... Gauss-Chebyshev
Angular Grid (max. acc.)         AngularGrid ... Lebedev-110
Angular grid pruning method      GridPruning ... 3 (G Style)
Weight generation scheme         WeightScheme... Becke
Basis function cutoff            BFCut       ...    1.0000e-10
Integration weight cutoff        WCut        ...    1.0000e-14
Grids for H and He will be reduced by one unit

# of grid points (after initial pruning)     ...   2912 (   0.0 sec)
# of grid points (after weights+screening)   ...   2912 (   0.0 sec)
Grid point division into batches done        ...    0.0 sec
Reduced shell lists constructed in    0.0 sec

Total number of grid points                  ...     2912
Total number of batches                      ...       46
Average number of points per batch           ...       63
Average number of grid points per atom       ...     2912
Average number of shells per batch           ...     4.67 (24.56%)
Average number of basis functions per batch  ...    14.00 (20.90%)
Average number of large shells per batch     ...     3.33 (71.43%)
Average number of large basis fcns per batch ...     8.67 (61.90%)
Maximum spatial batch extension              ...  18.98, 28.73, 28.73 au
Average spatial batch extension              ...   0.83,  1.25,  1.25 au

Final grid set up in    1.0 sec

-------------------------------------------------------------------------------
                         DFT-NL dispersion correction                          
-------------------------------------------------------------------------------

SC Energy -1382.675509641 
NL    Energy 0.115198665 
SC+NL Energy -1382.560310976 
NL done in    0.7 sec
-------------------------------------------------------------------------------

----------------
TOTAL SCF ENERGY
----------------

Total Energy       :        -1382.56031098 Eh          -37621.37870 eV

Components:
Nuclear Repulsion  :            0.00000000 Eh               0.00000 eV
Electronic Energy  :        -1382.56031098 Eh          -37621.37870 eV
One Electron Energy:        -1918.00165623 Eh          -52191.47843 eV
Two Electron Energy:          535.44134525 Eh           14570.09973 eV

Virial components:
Potential Energy   :        -2763.10050730 Eh          -75187.78728 eV
Kinetic Energy     :         1380.54019632 Eh           37566.40858 eV
Virial Ratio       :            2.00146328


DFT components:
N(Alpha)           :       14.999999999559 electrons
N(Beta)            :       12.000000001638 electrons
N(Total)           :       27.000000001197 electrons
E(X)               :      -44.420396624759 Eh       
E(C)               :       -1.596274573829 Eh       
NL Energy, E(C,NL) :        0.115198664835 Eh       
E(XC)              :      -45.901472533753 Eh       
DFET-embed. en.    :        0.000000000000 Eh       

---------------
SCF CONVERGENCE
---------------

  Last Energy change         ...   -1.8028e-07  Tolerance :   1.0000e-06
  Last MAX-Density change    ...    9.6657e-05  Tolerance :   1.0000e-05
  Last RMS-Density change    ...    1.9777e-06  Tolerance :   1.0000e-06
  Last DIIS Error            ...    2.8110e-05  Tolerance :   1.0000e-06

             **** THE GBW FILE WAS UPDATED (Co_atm.gbw) ****
             **** DENSITY FILE WAS UPDATED (Co_atm.scfp) ****
             **** ENERGY FILE WAS UPDATED (Co_atm.en.tmp) ****
----------------------
UHF SPIN CONTAMINATION
----------------------

Warning: in a DFT calculation there is little theoretical justification to 
         calculate <S**2> as in Hartree-Fock theory. We will do it anyways
         but you should keep in mind that the values have only limited relevance

Expectation value of <S**2>     :     3.752015
Ideal value S*(S+1) for S=1.5   :     3.750000
Deviation                       :     0.002015

             **** THE GBW FILE WAS UPDATED (Co_atm.gbw) ****
             **** DENSITY FILE WAS UPDATED (Co_atm.scfp) ****
----------------
ORBITAL ENERGIES
----------------
                 SPIN UP ORBITALS
  NO   OCC          E(Eh)            E(eV) 
   0   1.0000    -277.337383     -7546.7339 
   1   1.0000     -32.816360      -892.9786 
   2   1.0000     -28.451330      -774.2001 
   3   1.0000     -28.451299      -774.1992 
   4   1.0000     -28.451263      -774.1982 
   5   1.0000      -3.799257      -103.3830 
   6   1.0000      -2.486275       -67.6550 
   7   1.0000      -2.486219       -67.6535 
   8   1.0000      -2.486173       -67.6522 
   9   1.0000      -0.369828       -10.0635 
  10   1.0000      -0.369827       -10.0635 
  11   1.0000      -0.335909        -9.1405 
  12   1.0000      -0.335896        -9.1402 
  13   1.0000      -0.335872        -9.1395 
  14   1.0000      -0.255920        -6.9639 
  15   0.0000       0.035427         0.9640 
  16   0.0000       0.035510         0.9663 
  17   0.0000       0.035515         0.9664 
  18   0.0000       0.184726         5.0267 
  19   0.0000       0.184825         5.0293 
  20   0.0000       0.184829         5.0294 
  21   0.0000       0.199517         5.4291 
  22   0.0000       0.282394         7.6843 
  23   0.0000       0.282395         7.6843 
  24   0.0000       0.285123         7.7586 
  25   0.0000       0.285180         7.7601 
  26   0.0000       0.285181         7.7602 
  27   0.0000       0.711965        19.3735 
  28   0.0000       0.712120        19.3778 
  29   0.0000       0.712122        19.3778 
  30   0.0000       1.093632        29.7592 
  31   0.0000       1.093633        29.7593 
  32   0.0000       1.103026        30.0149 
  33   0.0000       1.103119        30.0174 
  34   0.0000       1.103122        30.0175 
  35   0.0000       2.793713        76.0208 
  36   0.0000       2.793782        76.0227 
  37   0.0000       2.793804        76.0233 
  38   0.0000       2.828906        76.9784 
  39   0.0000       2.828914        76.9787 
  40   0.0000       2.828923        76.9789 
  41   0.0000       2.837245        77.2054 
  42   0.0000       2.837258        77.2057 
  43   0.0000       2.837449        77.2109 
  44   0.0000       2.849913        77.5501 
  45   0.0000       2.918162        79.4072 
  46   0.0000       3.931320       106.9767 
  47   0.0000       3.931320       106.9767 
  48   0.0000       3.955532       107.6355 
  49   0.0000       3.955586       107.6370 
  50   0.0000       3.955601       107.6374 
  51   0.0000      10.109389       275.0904 
  52   0.0000      10.118888       275.3489 
  53   0.0000      10.118888       275.3489 
  54   0.0000      10.118911       275.3496 
  55   0.0000      10.125893       275.5396 
  56   0.0000      10.125893       275.5396 
  57   0.0000      10.146925       276.1119 
  58   0.0000      10.146951       276.1126 
  59   0.0000      10.146973       276.1132 
  60   0.0000      10.633207       289.3443 
  61   0.0000      10.633229       289.3449 
  62   0.0000      10.633255       289.3456 
  63   0.0000      10.655082       289.9395 
  64   0.0000      10.655159       289.9416 
  65   0.0000      10.655225       289.9434 
  66   0.0000      10.682969       290.6984 

                 SPIN DOWN ORBITALS
  NO   OCC          E(Eh)            E(eV) 
   0   1.0000    -277.335797     -7546.6907 
   1   1.0000     -32.777140      -891.9113 
   2   1.0000     -28.419956      -773.3463 
   3   1.0000     -28.419935      -773.3458 
   4   1.0000     -28.419887      -773.3444 
   5   1.0000      -3.706758      -100.8660 
   6   1.0000      -2.386777       -64.9475 
   7   1.0000      -2.386716       -64.9459 
   8   1.0000      -2.386711       -64.9457 
   9   1.0000      -0.290750        -7.9117 
  10   1.0000      -0.290738        -7.9114 
  11   1.0000      -0.290716        -7.9108 
  12   0.0000      -0.018429        -0.5015 
  13   0.0000       0.062679         1.7056 
  14   0.0000       0.062698         1.7061 
  15   0.0000       0.062936         1.7126 
  16   0.0000       0.116613         3.1732 
  17   0.0000       0.116622         3.1734 
  18   0.0000       0.210070         5.7163 
  19   0.0000       0.210089         5.7168 
  20   0.0000       0.210216         5.7203 
  21   0.0000       0.235916         6.4196 
  22   0.0000       0.292641         7.9632 
  23   0.0000       0.292651         7.9634 
  24   0.0000       0.292723         7.9654 
  25   0.0000       0.321475         8.7478 
  26   0.0000       0.321491         8.7482 
  27   0.0000       0.737378        20.0651 
  28   0.0000       0.737397        20.0656 
  29   0.0000       0.737514        20.0688 
  30   0.0000       1.127948        30.6930 
  31   0.0000       1.127953        30.6932 
  32   0.0000       1.127965        30.6935 
  33   0.0000       1.153528        31.3891 
  34   0.0000       1.153552        31.3897 
  35   0.0000       2.842174        77.3395 
  36   0.0000       2.842200        77.3402 
  37   0.0000       2.842219        77.3407 
  38   0.0000       2.863372        77.9163 
  39   0.0000       2.885619        78.5217 
  40   0.0000       2.885623        78.5218 
  41   0.0000       2.885635        78.5221 
  42   0.0000       2.907788        79.1249 
  43   0.0000       2.907801        79.1253 
  44   0.0000       2.907828        79.1260 
  45   0.0000       2.977119        81.0115 
  46   0.0000       3.990914       108.5983 
  47   0.0000       3.990929       108.5987 
  48   0.0000       3.990949       108.5992 
  49   0.0000       4.038107       109.8825 
  50   0.0000       4.038111       109.8826 
  51   0.0000      10.178208       276.9631 
  52   0.0000      10.178241       276.9640 
  53   0.0000      10.178248       276.9642 
  54   0.0000      10.195135       277.4237 
  55   0.0000      10.195136       277.4238 
  56   0.0000      10.198097       277.5043 
  57   0.0000      10.198111       277.5047 
  58   0.0000      10.198117       277.5049 
  59   0.0000      10.214429       277.9487 
  60   0.0000      10.707013       291.3526 
  61   0.0000      10.730356       291.9878 
  62   0.0000      10.730362       291.9880 
  63   0.0000      10.730401       291.9891 
  64   0.0000      10.754766       292.6521 
  65   0.0000      10.754782       292.6525 
  66   0.0000      10.754806       292.6532 

                    ********************************
                    * MULLIKEN POPULATION ANALYSIS *
                    ********************************

--------------------------------------------
MULLIKEN ATOMIC CHARGES AND SPIN POPULATIONS
--------------------------------------------
   0 Co:   -0.000000    3.000000
Sum of atomic charges         :   -0.0000000
Sum of atomic spin populations:    3.0000000

-----------------------------------------------------
MULLIKEN REDUCED ORBITAL CHARGES AND SPIN POPULATIONS
-----------------------------------------------------
CHARGE
  0 Cos       :     7.000027  s :     7.000027
      pz      :     3.999954  p :    11.999863
      px      :     3.999954
      py      :     3.999954
      dz2     :     1.026146  d :     7.999951
      dxz     :     1.991195
      dyz     :     1.973891
      dx2y2   :     1.999920
      dxy     :     1.008799
      f0      :     0.000044  f :     0.000137
      f+1     :     0.000016
      f-1     :     0.000019
      f+2     :     0.000000
      f-2     :     0.000001
      f+3     :     0.000028
      f-3     :     0.000029
      g0      :     0.000007  g :     0.000023
      g+1     :     0.000000
      g-1     :     0.000001
      g+2     :     0.000002
      g-2     :     0.000003
      g+3     :     0.000001
      g-3     :     0.000001
      g+4     :     0.000007
      g-4     :     0.000000

SPIN
  0 Cos       :     0.999963  s :     0.999963
      pz      :     0.000027  p :     0.000081
      px      :     0.000027
      py      :     0.000027
      dz2     :     0.973847  d :     2.000030
      dxz     :     0.008803
      dyz     :     0.026107
      dx2y2   :     0.000078
      dxy     :     0.991194
      f0      :    -0.000026  f :    -0.000081
      f+1     :    -0.000010
      f-1     :    -0.000011
      f+2     :    -0.000000
      f-2     :    -0.000001
      f+3     :    -0.000016
      f-3     :    -0.000017
      g0      :     0.000001  g :     0.000008
      g+1     :     0.000000
      g-1     :     0.000000
      g+2     :     0.000000
      g-2     :     0.000003
      g+3     :     0.000000
      g-3     :     0.000000
      g+4     :     0.000002
      g-4     :     0.000000


                     *******************************
                     * LOEWDIN POPULATION ANALYSIS *
                     *******************************

-------------------------------------------
LOEWDIN ATOMIC CHARGES AND SPIN POPULATIONS
-------------------------------------------
   0 Co:   -0.000000    3.000000

----------------------------------------------------
LOEWDIN REDUCED ORBITAL CHARGES AND SPIN POPULATIONS
----------------------------------------------------
CHARGE
  0 Cos       :     7.000027  s :     7.000027
      pz      :     3.999954  p :    11.999863
      px      :     3.999954
      py      :     3.999954
      dz2     :     1.026146  d :     7.999951
      dxz     :     1.991195
      dyz     :     1.973891
      dx2y2   :     1.999920
      dxy     :     1.008799
      f0      :     0.000044  f :     0.000137
      f+1     :     0.000016
      f-1     :     0.000019
      f+2     :     0.000000
      f-2     :     0.000001
      f+3     :     0.000028
      f-3     :     0.000029
      g0      :     0.000007  g :     0.000023
      g+1     :     0.000000
      g-1     :     0.000001
      g+2     :     0.000002
      g-2     :     0.000003
      g+3     :     0.000001
      g-3     :     0.000001
      g+4     :     0.000007
      g-4     :     0.000000

SPIN
  0 Cos       :     0.999963  s :     0.999963
      pz      :     0.000027  p :     0.000081
      px      :     0.000027
      py      :     0.000027
      dz2     :     0.973847  d :     2.000030
      dxz     :     0.008803
      dyz     :     0.026107
      dx2y2   :     0.000078
      dxy     :     0.991194
      f0      :    -0.000026  f :    -0.000081
      f+1     :    -0.000010
      f-1     :    -0.000011
      f+2     :    -0.000000
      f-2     :    -0.000001
      f+3     :    -0.000016
      f-3     :    -0.000017
      g0      :     0.000001  g :     0.000008
      g+1     :     0.000000
      g-1     :     0.000000
      g+2     :     0.000000
      g-2     :     0.000003
      g+3     :     0.000000
      g-3     :     0.000000
      g+4     :     0.000002
      g-4     :     0.000000


                      *****************************
                      * MAYER POPULATION ANALYSIS *
                      *****************************

  NA   - Mulliken gross atomic population
  ZA   - Total nuclear charge
  QA   - Mulliken gross atomic charge
  VA   - Mayer's total valence
  BVA  - Mayer's bonded valence
  FA   - Mayer's free valence

  ATOM       NA         ZA         QA         VA         BVA        FA
  0 Co    27.0000    27.0000    -0.0000     3.0040     0.0000     3.0040

  Mayer bond orders larger than 0.100000


-------
TIMINGS
-------

Total SCF time: 0 days 0 hours 2 min 47 sec 

Total time                  ....     167.875 sec
Sum of individual times     ....     165.459 sec  ( 98.6%)

Fock matrix formation       ....     159.855 sec  ( 95.2%)
  XC integration            ....     153.807 sec  ( 96.2% of F)
    Basis function eval.    ....       0.014 sec  (  0.0% of XC)
    Density eval.           ....       0.020 sec  (  0.0% of XC)
    XC-Functional eval.     ....       0.028 sec  (  0.0% of XC)
    XC-Potential eval.      ....       0.021 sec  (  0.0% of XC)
Diagonalization             ....       1.917 sec  (  1.1%)
Density matrix formation    ....       0.008 sec  (  0.0%)
Population analysis         ....       0.277 sec  (  0.2%)
Initial guess               ....       0.827 sec  (  0.5%)
Orbital Transformation      ....       0.000 sec  (  0.0%)
Orbital Orthonormalization  ....       0.000 sec  (  0.0%)
DIIS solution               ....       0.211 sec  (  0.1%)
Grid generation             ....       2.365 sec  (  1.4%)

-------------------------   --------------------
FINAL SINGLE POINT ENERGY     -1382.560310976030
-------------------------   --------------------


----------------------------------------------------------------------------
                           ORCA NUMERICAL GRADIENT
                              (28-process run)
----------------------------------------------------------------------------

I state                        ... 1
J state                        ... 0
Number of atoms                ... 1
Derivative's order of accuracy ... 2
Central differences            ... used
Number of displacements        ... 6
Numerical increment            ... 5.000e-03 bohr
Translation invariance         ... used

The output will be reduced. Please look at the following files:
SCF program output             ... >Co_atm.lastscf
Integral program output        ... >Co_atm.lastint
Gradient program output        ... >Co_atm.lastgrad


     Note:   There are more processes than displacements to do
     ===>:   Reducing number of processes to   0


------------------------------
CARTESIAN GRADIENT (NUMERICAL)
-------------------------------
   1   Co  :    0.000000000    0.000000000    0.000000000

Norm of the cartesian gradient     ...    0.000000000
RMS gradient                       ...    0.000000000
MAX gradient                       ...    0.000000000
*** glibc detected *** /mnt/storage/software/apps/orca-4.2.0/orca_4_2_0_linux_x86-64_openmpi314/orca: free(): invalid next size (fast): 0x000000000ce7ce60 ***
======= Backtrace: =========
[0xb0928aa]
[0xb09567c]
[0x76d903]
[0x76fb95]
[0x915b4f]
[0x918f24]
[0x487649]
[0xb05c99e]
[0x4870d9]
======= Memory map: ========
00400000-0bf42000 r-xp 00000000 00:2c 4876154                            /mnt/storage/software/apps/orca-4.2.0/orca_4_2_0_linux_x86-64_openmpi314/orca
0c141000-0c203000 rw-p 0bb41000 00:2c 4876154                            /mnt/storage/software/apps/orca-4.2.0/orca_4_2_0_linux_x86-64_openmpi314/orca
0c203000-0c77a000 rw-p 00000000 00:00 0 
0cc39000-0cea8000 rw-p 00000000 00:00 0                                  [heap]
2b0dbefd1000-2b0dbf7d2000 rw-p 00000000 00:00 0 
2b0dbffd1000-2b0dc2694000 rw-p 00000000 00:00 0 
2b0dc4000000-2b0dc40b3000 rw-p 00000000 00:00 0 
2b0dc40b3000-2b0dc8000000 ---p 00000000 00:00 0 
7ffec233a000-7ffec243c000 rw-p 00000000 00:00 0                          [stack]
7ffec24f1000-7ffec24f3000 r-xp 00000000 00:00 0                          [vdso]
ffffffffff600000-ffffffffff601000 r-xp 00000000 00:00 0                  [vsyscall]
