
                                 *****************
                                 * O   R   C   A *
                                 *****************

           --- An Ab Initio, DFT and Semiempirical electronic structure package ---

                  #######################################################
                  #                        -***-                        #
                  #          Department of theory and spectroscopy      #
                  #               Directorship: Frank Neese             #
                  #        Max Planck Institute fuer Kohlenforschung    #
                  #                Kaiser Wilhelm Platz 1               #
                  #                 D-45470 Muelheim/Ruhr               #
                  #                      Germany                        #
                  #                                                     #
                  #                  All rights reserved                #
                  #                        -***-                        #
                  #######################################################


                         Program Version 4.2.0 -  RELEASE  -


 With contributions from (in alphabetic order):
   Daniel Aravena         : Magnetic Suceptibility
   Michael Atanasov       : Ab Initio Ligand Field Theory (pilot matlab implementation)
   Alexander A. Auer      : GIAO ZORA, VPT2
   Ute Becker             : Parallelization
   Giovanni Bistoni       : ED, misc. LED, open-shell LED, HFLED
   Martin Brehm           : Molecular dynamics
   Dmytro Bykov           : SCF Hessian
   Vijay G. Chilkuri      : MRCI spin determinant printing, contributions to CSF-ICE
   Dipayan Datta          : RHF DLPNO-CCSD density
   Achintya Kumar Dutta   : EOM-CC, STEOM-CC
   Dmitry Ganyushin       : Spin-Orbit,Spin-Spin,Magnetic field MRCI
   Miquel Garcia          : C-PCM Hessian, Gaussian charge scheme
   Yang Guo               : DLPNO-NEVPT2, CIM, IAO-localization
   Andreas Hansen         : Spin unrestricted coupled pair/coupled cluster methods
   Benjamin Helmich-Paris : CASSCF linear response (MC-RPA)
   Lee Huntington         : MR-EOM, pCC
   Robert Izsak           : Overlap fitted RIJCOSX, COSX-SCS-MP3, EOM
   Christian Kollmar      : KDIIS, OOCD, Brueckner-CCSD(T), CCSD density
   Simone Kossmann        : Meta GGA functionals, TD-DFT gradient, OOMP2, MP2 Hessian
   Martin Krupicka        : AUTO-CI
   Lucas Lang             : DCDCAS
   Dagmar Lenk            : GEPOL surface, SMD
   Dimitrios Liakos       : Extrapolation schemes; Compound Job, initial MDCI parallelization
   Dimitrios Manganas     : Further ROCIS development; embedding schemes
   Dimitrios Pantazis     : SARC Basis sets
   Taras Petrenko         : DFT Hessian,TD-DFT gradient, ASA, ECA, R-Raman, ABS, FL, XAS/XES, NRVS
   Peter Pinski           : DLPNO-MP2, DLPNO-MP2 Gradient
   Christoph Reimann      : Effective Core Potentials
   Marius Retegan         : Local ZFS, SOC
   Christoph Riplinger    : Optimizer, TS searches, QM/MM, DLPNO-CCSD(T), (RO)-DLPNO pert. Triples
   Tobias Risthaus        : Range-separated hybrids, TD-DFT gradient, RPA, STAB
   Michael Roemelt        : Original ROCIS implementation
   Masaaki Saitow         : Open-shell DLPNO-CCSD energy and density
   Barbara Sandhoefer     : DKH picture change effects
   Avijit Sen             : IP-ROCIS
   Kantharuban Sivalingam : CASSCF convergence, NEVPT2, FIC-MRCI
   Bernardo de Souza      : ESD, SOC TD-DFT
   Georgi Stoychev        : AutoAux, RI-MP2 NMR
   Willem Van den Heuvel  : Paramagnetic NMR
   Boris Wezisla          : Elementary symmetry handling
   Frank Wennmohs         : Technical directorship


 We gratefully acknowledge several colleagues who have allowed us to
 interface, adapt or use parts of their codes:
   Stefan Grimme, W. Hujo, H. Kruse,             : VdW corrections, initial TS optimization,
                  C. Bannwarth                     DFT functionals, gCP, sTDA/sTD-DF
   Ed Valeev, F. Pavosevic, A. Kumar             : LibInt (2-el integral package), F12 methods
   Garnet Chan, S. Sharma, J. Yang, R. Olivares  : DMRG
   Ulf Ekstrom                                   : XCFun DFT Library
   Mihaly Kallay                                 : mrcc  (arbitrary order and MRCC methods)
   Andreas Klamt, Michael Diedenhofen            : otool_cosmo (COSMO solvation model)
   Jiri Pittner, Ondrej Demel                    : Mk-CCSD
   Frank Weinhold                                : gennbo (NPA and NBO analysis)
   Christopher J. Cramer and Donald G. Truhlar   : smd solvation model
   Lars Goerigk                                  : TD-DFT with DH, B97 family of functionals
   V. Asgeirsson, H. Jonsson                     : NEB implementation
   FAccTs GmbH                                   : IRC, NEB, NEB-TS, Multilevel, MM, QM/MM, CI optimization
   S Lehtola, MJT Oliveira, MAL Marques          : LibXC Library


 Your calculation uses the libint2 library for the computation of 2-el integrals
 For citations please refer to: http://libint.valeyev.net

 Your ORCA version has been built with support for libXC version: 4.2.3
 For citations please refer to: https://tddft.org/programs/libxc/

 This ORCA versions uses:
   CBLAS   interface :  Fast vector & matrix operations
   LAPACKE interface :  Fast linear algebra routines
   SCALAPACK package :  Parallel linear algebra routines


Your calculation utilizes the DFT-NL dispersion correction.
Cite in your paper:
Vydrov, O. A.; Van Voorhis, T. J. Chem. Phys. 2010, 133, 244103
Hujo, W.; Grimme, S. J. Chem. Theory Comput. 2011, 7, 3866 
   

----- Orbital basis set information -----
Your calculation utilizes the basis: def2-TZVPPD
   F. Weigend and R. Ahlrichs, Phys. Chem. Chem. Phys. 7, 3297 (2005).
   D. Rappoport and F. Furche, J. Chem. Phys. 133 134105 (2010).

----- AuxJK basis set information -----
Your calculation utilizes the auxiliary basis: def2/JK
   H-Ba, Hf-Rn: F. Weigend, J. Comput. Chem. 29, 167 (2008).

================================================================================
                                        WARNINGS
                       Please study these warnings very carefully!
================================================================================

INFO   : Found keyword 'NumGrad' for Energy calculation
  ===> : Setting RunTyp to EnGrad

WARNING: Numerical Gradient with sloppy Convergence Criteria    
         Your results may be not reliable!                      
         Please choose at least TightSCF!                       

WARNING: your system is open-shell and RHF/RKS was chosen
  ===> : WILL SWITCH to UHF/UKS


INFO   : the flag for use of LIBINT has been found!

================================================================================
                                       INPUT FILE
================================================================================
NAME = CoH.in
|  1> #
|  2> # CoH wB97X-V/Def2-TZVPPD
|  3> #
|  4> ! wb97x-v def2-tzvppd def2/jk grid4 nofinalgrid numgrad
|  5> 
|  6> *xyz 0 3
|  7> Co         0.00000        0.00000        0.00000
|  8> H          0.00000        0.00000        1.53100
|  9> *
| 10> 
| 11> %maxcore 5000
| 12> 
| 13> %pal
| 14> nprocs = 28
| 15> end
| 16> 
| 17> 
| 18>                          ****END OF INPUT****
================================================================================

                     *******************************
                     * Energy+Gradient Calculation *
                     *******************************

---------------------------------
CARTESIAN COORDINATES (ANGSTROEM)
---------------------------------
  Co     0.000000    0.000000    0.000000
  H      0.000000    0.000000    1.531000

----------------------------
CARTESIAN COORDINATES (A.U.)
----------------------------
  NO LB      ZA    FRAG     MASS         X           Y           Z
   0 Co   27.0000    0    58.930    0.000000    0.000000    0.000000
   1 H     1.0000    0     1.008    0.000000    0.000000    2.893171

--------------------------------
INTERNAL COORDINATES (ANGSTROEM)
--------------------------------
 Co     0   0   0     0.000000000000     0.00000000     0.00000000
 H      1   0   0     1.531000000000     0.00000000     0.00000000

---------------------------
INTERNAL COORDINATES (A.U.)
---------------------------
 Co     0   0   0     0.000000000000     0.00000000     0.00000000
 H      1   0   0     2.893170711033     0.00000000     0.00000000

---------------------
BASIS SET INFORMATION
---------------------
There are 2 groups of distinct atoms

 Group   1 Type Co  : 17s13p7d2f1g contracted to 6s6p4d2f1g pattern {842111/631111/4111/11/1}
 Group   2 Type H   : 5s3p1d contracted to 3s3p1d pattern {311/111/1}

Atom   0Co   basis set group =>   1
Atom   1H    basis set group =>   2
----------------------------------
AUXILIARY/JK BASIS SET INFORMATION
----------------------------------
There are 2 groups of distinct atoms

 Group   1 Type Co  : 19s14p12d10f7g3h1i contracted to 16s13p11d9f5g3h1i pattern {4111111111111111/2111111111111/21111111111/211111111/31111/111/1}
 Group   2 Type H   : 4s2p2d contracted to 2s2p2d pattern {31/11/11}

Atom   0Co   basis set group =>   1
Atom   1H    basis set group =>   2


           ************************************************************
           *        Program running with 28 parallel MPI-processes    *
           *              working on a common directory               *
           ************************************************************
------------------------------------------------------------------------------
                           ORCA GTO INTEGRAL CALCULATION
------------------------------------------------------------------------------

                         BASIS SET STATISTICS AND STARTUP INFO

 # of primitive gaussian shells          ...   49
 # of primitive gaussian functions       ...  133
 # of contracted shells                  ...   26
 # of contracted basis functions         ...   84
 Highest angular momentum                ...    4
 Maximum contraction depth               ...    8
 Integral package used                   ... LIBINT
 Integral threshhold            Thresh   ...  1.000e-10
 Primitive cut-off              TCut     ...  1.000e-11


------------------------------ INTEGRAL EVALUATION ----------------------------


 * One electron integrals 
 Pre-screening matrix                    ... done
 Shell pair data                         ... done (   0.000 sec)



           ************************************************************
           *        Program running with 28 parallel MPI-processes    *
           *              working on a common directory               *
           ************************************************************
-------------------------------------------------------------------------------
                                 ORCA SCF
-------------------------------------------------------------------------------

------------
SCF SETTINGS
------------
Hamiltonian:
 Density Functional     Method          .... DFT(GTOs)
 Exchange Functional    Exchange        .... WB97X-V
 Correlation Functional Correlation     .... WB97X-V
 Gradients option       PostSCFGGA      .... off
 Hybrid DFT is turned on
   Fraction HF Exchange ScalHFX         ....  0.167000
   Scaling of DF-GGA-X  ScalDFX         ....  0.000000
   Scaling of DF-GGA-C  ScalDFC         ....  1.000000
   Scaling of DF-LDA-C  ScalLDAC        ....  1.000000
   Perturbative correction              ....  0.000000
   Density functional embedding theory  .... OFF
 Long-range corrected/Screened/Range-Separated Hybrid DFT is turned on
   Amount of maximum screened exact exchange              ....  0.833000
   Range separation parameter mu (erf(mu*r12)/r12)        ....  0.300000
   NL short-range parameter             ....  6.000000
   NL long-range parameter              ....  0.010000


General Settings:
 Integral files         IntName         .... CoH
 Hartree-Fock type      HFTyp           .... UHF
 Total Charge           Charge          ....    0
 Multiplicity           Mult            ....    3
 Number of Electrons    NEL             ....   28
 Basis Dimension        Dim             ....   84
 Nuclear Repulsion      ENuc            ....      9.3323217662 Eh

Convergence Acceleration:
 DIIS                   CNVDIIS         .... on
   Start iteration      DIISMaxIt       ....    12
   Startup error        DIISStart       ....  0.200000
   # of expansion vecs  DIISMaxEq       ....     5
   Bias factor          DIISBfac        ....   1.050
   Max. coefficient     DIISMaxC        ....  10.000
 Newton-Raphson         CNVNR           .... off
 SOSCF                  CNVSOSCF        .... off
 Level Shifting         CNVShift        .... on
   Level shift para.    LevelShift      ....    0.2500
   Turn off err/grad.   ShiftErr        ....    0.0010
 Zerner damping         CNVZerner       .... off
 Static damping         CNVDamp         .... on
   Fraction old density DampFac         ....    0.7000
   Max. Damping (<1)    DampMax         ....    0.9800
   Min. Damping (>=0)   DampMin         ....    0.0000
   Turn off err/grad.   DampErr         ....    0.1000
 Fernandez-Rico         CNVRico         .... off

SCF Procedure:
 Maximum # iterations   MaxIter         ....   125
 SCF integral mode      SCFMode         .... Direct
   Integral package                     .... LIBINT
 Reset frequency        DirectResetFreq ....    20
 Integral Threshold     Thresh          ....  1.000e-10 Eh
 Primitive CutOff       TCut            ....  1.000e-11 Eh

Convergence Tolerance:
 Convergence Check Mode ConvCheckMode   .... Total+1el-Energy
 Convergence forced     ConvForced      .... 0
 Energy Change          TolE            ....  1.000e-06 Eh
 1-El. energy change                    ....  1.000e-03 Eh
 DIIS Error             TolErr          ....  1.000e-06


Diagonalization of the overlap matrix:
Smallest eigenvalue                        ... 3.034e-03
Time for diagonalization                   ...    0.002 sec
Threshold for overlap eigenvalues          ... 1.000e-08
Number of eigenvalues below threshold      ... 0
Time for construction of square roots      ...    0.082 sec
Total time needed                          ...    0.084 sec

-------------------
DFT GRID GENERATION
-------------------

General Integration Accuracy     IntAcc      ...  4.670
Radial Grid Type                 RadialGrid  ... Gauss-Chebyshev
Angular Grid (max. acc.)         AngularGrid ... Lebedev-302
Angular grid pruning method      GridPruning ... 3 (G Style)
Weight generation scheme         WeightScheme... Becke
Basis function cutoff            BFCut       ...    1.0000e-10
Integration weight cutoff        WCut        ...    1.0000e-14
Grids for H and He will be reduced by one unit

# of grid points (after initial pruning)     ...  13034 (   0.0 sec)
# of grid points (after weights+screening)   ...  12998 (   0.0 sec)
nearest neighbour list constructed           ...    0.0 sec
Grid point re-assignment to atoms done       ...    0.0 sec
Grid point division into batches done        ...    0.1 sec
Reduced shell lists constructed in    0.1 sec

Total number of grid points                  ...    12998
Total number of batches                      ...      204
Average number of points per batch           ...       63
Average number of grid points per atom       ...     6499
Average number of shells per batch           ...     5.22 (20.09%)
Average number of basis functions per batch  ...    13.89 (16.53%)
Average number of large shells per batch     ...     2.44 (46.81%)
Average number of large basis fcns per batch ...     6.22 (44.80%)
Maximum spatial batch extension              ...  31.41, 28.57, 18.66 au
Average spatial batch extension              ...   0.94,  0.82,  0.62 au

Time for grid setup =    2.279 sec

------------------------------
INITIAL GUESS: MODEL POTENTIAL
------------------------------
Loading Hartree-Fock densities                     ... done
Calculating cut-offs                               ... done
Setting up the integral package                    ... done
Initializing the effective Hamiltonian             ... done
Starting the Coulomb interaction                   ... done (   0.0 sec)
Reading the grid                                   ... done
Mapping shells                                     ... done
Starting the XC term evaluation                    ... done (   0.0 sec)
  promolecular density results
     # of electrons  =     27.999537490
     EX              =    -44.353551552
     EC              =     -1.642236223
     EX+EC           =    -45.995787775
Transforming the Hamiltonian                       ... done (   0.1 sec)
Diagonalizing the Hamiltonian                      ... done (   0.0 sec)
Back transforming the eigenvectors                 ... done (   0.0 sec)
Now organizing SCF variables                       ... done
                      ------------------
                      INITIAL GUESS DONE (   2.4 sec)
                      ------------------
--------------
SCF ITERATIONS
--------------
ITER       Energy         Delta-E        Max-DP      RMS-DP      [F,P]     Damp
               ***  Starting incremental Fock matrix formation  ***
  0  -1381.7357824831   0.000000000000 0.24671041  0.00584464  1.2987959 0.7000
  1  -1382.5206161762  -0.784833693095 0.16702142  0.00315880  0.2371249 0.7000
  2  -1382.6589720395  -0.138355863347 0.11760051  0.00235032  0.2618887 0.7000
  3  -1382.8003720648  -0.141400025320 0.08356667  0.00184156  0.2005340 0.7000
                               ***Turning on DIIS***
  4  -1382.9185933896  -0.118221324728 0.05909064  0.00132918  0.1075564 0.7000
  5  -1383.0067255877  -0.088132198177 0.13822039  0.00330249  0.0593095 0.0000
  6  -1383.2430341993  -0.236308611532 0.03381298  0.00072399  0.0394435 0.0000
  7  -1383.2536418017  -0.010607602417 0.01311792  0.00037681  0.0321683 0.0000
  8  -1383.2600862913  -0.006444489663 0.02220527  0.00062595  0.0270008 0.0000
  9  -1383.2687074673  -0.008621175984 0.01255368  0.00036686  0.0198297 0.0000
 10  -1383.2722530178  -0.003545550467 0.01206720  0.00031973  0.0138557 0.0000
 11  -1383.2742411989  -0.001988181054 0.00637152  0.00019465  0.0083892 0.0000
 12  -1383.2749974292  -0.000756230364 0.00493398  0.00014691  0.0053259 0.0000
 13  -1383.2753710293  -0.000373600074 0.00558486  0.00013513  0.0033585 0.0000
 14  -1383.2755943415  -0.000223312237 0.00372161  0.00008421  0.0019797 0.0000
 15  -1383.2756872062  -0.000092864682 0.00363730  0.00007822  0.0012635 0.0000
 16  -1383.2757411494  -0.000053943230 0.00331238  0.00007807  0.0009551 0.0000
 17  -1383.2757702588  -0.000029109332 0.00117993  0.00002510  0.0002438 0.0000
 18  -1383.2757739374  -0.000003678662 0.00047752  0.00000957  0.0001002 0.0000
 19  -1383.2757747214  -0.000000783979 0.00014403  0.00000360  0.0000414 0.0000
               *** Restarting incremental Fock matrix formation ***
                                   *** Resetting DIIS ***
 20  -1383.2757748839  -0.000000162490 0.00006523  0.00000127  0.0000301 0.0000
 21  -1383.2757749066  -0.000000022667 0.00001156  0.00000036  0.0000567 0.0000
                 **** Energy Check signals convergence ****

               *****************************************************
               *                     SUCCESS                       *
               *           SCF CONVERGED AFTER  22 CYCLES          *
               *****************************************************


Setting up the DFT-NL grid :

General Integration Accuracy     IntAcc      ...  4.340
Radial Grid Type                 RadialGrid  ... Gauss-Chebyshev
Angular Grid (max. acc.)         AngularGrid ... Lebedev-110
Angular grid pruning method      GridPruning ... 3 (G Style)
Weight generation scheme         WeightScheme... Becke
Basis function cutoff            BFCut       ...    1.0000e-10
Integration weight cutoff        WCut        ...    1.0000e-14
Grids for H and He will be reduced by one unit

# of grid points (after initial pruning)     ...   3706 (   0.0 sec)
# of grid points (after weights+screening)   ...   3680 (   0.0 sec)
nearest neighbour list constructed           ...    0.0 sec
Grid point re-assignment to atoms done       ...    0.0 sec
Grid point division into batches done        ...    0.0 sec
Reduced shell lists constructed in    0.0 sec

Total number of grid points                  ...     3680
Total number of batches                      ...       59
Average number of points per batch           ...       62
Average number of grid points per atom       ...     1840
Average number of shells per batch           ...     8.50 (32.69%)
Average number of basis functions per batch  ...    22.50 (26.79%)
Average number of large shells per batch     ...     6.75 (79.41%)
Average number of large basis fcns per batch ...    18.75 (83.33%)
Maximum spatial batch extension              ...  37.20, 28.73, 20.01 au
Average spatial batch extension              ...   1.30,  1.32,  0.87 au

Final grid set up in    1.7 sec

-------------------------------------------------------------------------------
                         DFT-NL dispersion correction                          
-------------------------------------------------------------------------------

SC Energy -1383.275774914 
NL    Energy 0.118819583 
SC+NL Energy -1383.156955331 
NL done in    0.8 sec
-------------------------------------------------------------------------------

----------------
TOTAL SCF ENERGY
----------------

Total Energy       :        -1383.15695533 Eh          -37637.61421 eV

Components:
Nuclear Repulsion  :            9.33232177 Eh             253.94539 eV
Electronic Energy  :        -1392.48927710 Eh          -37891.55960 eV
One Electron Energy:        -1937.04626426 Eh          -52709.70856 eV
Two Electron Energy:          544.55698716 Eh           14818.14896 eV

Virial components:
Potential Energy   :        -2764.26313589 Eh          -75219.42401 eV
Kinetic Energy     :         1381.10618056 Eh           37581.80980 eV
Virial Ratio       :            2.00148488


DFT components:
N(Alpha)           :       14.999999189749 electrons
N(Beta)            :       12.999998880000 electrons
N(Total)           :       27.999998069749 electrons
E(X)               :      -44.556345508124 Eh       
E(C)               :       -1.641017228066 Eh       
NL Energy, E(C,NL) :        0.118819583376 Eh       
E(XC)              :      -46.078543152815 Eh       
DFET-embed. en.    :        0.000000000000 Eh       

---------------
SCF CONVERGENCE
---------------

  Last Energy change         ...   -7.7196e-09  Tolerance :   1.0000e-06
  Last MAX-Density change    ...    4.8339e-05  Tolerance :   1.0000e-05
  Last RMS-Density change    ...    1.0481e-06  Tolerance :   1.0000e-06
  Last DIIS Error            ...    7.2384e-06  Tolerance :   1.0000e-06

             **** THE GBW FILE WAS UPDATED (CoH.gbw) ****
             **** DENSITY FILE WAS UPDATED (CoH.scfp) ****
             **** ENERGY FILE WAS UPDATED (CoH.en.tmp) ****
----------------------
UHF SPIN CONTAMINATION
----------------------

Warning: in a DFT calculation there is little theoretical justification to 
         calculate <S**2> as in Hartree-Fock theory. We will do it anyways
         but you should keep in mind that the values have only limited relevance

Expectation value of <S**2>     :     2.014886
Ideal value S*(S+1) for S=1.0   :     2.000000
Deviation                       :     0.014886

             **** THE GBW FILE WAS UPDATED (CoH.gbw) ****
             **** DENSITY FILE WAS UPDATED (CoH.scfp) ****
----------------
ORBITAL ENERGIES
----------------
                 SPIN UP ORBITALS
  NO   OCC          E(Eh)            E(eV) 
   0   1.0000    -277.346202     -7546.9738 
   1   1.0000     -32.827296      -893.2761 
   2   1.0000     -28.462562      -774.5057 
   3   1.0000     -28.462562      -774.5057 
   4   1.0000     -28.461614      -774.4799 
   5   1.0000      -3.805295      -103.5474 
   6   1.0000      -2.491875       -67.8074 
   7   1.0000      -2.491875       -67.8074 
   8   1.0000      -2.491612       -67.8002 
   9   1.0000      -0.407903       -11.0996 
  10   1.0000      -0.374832       -10.1997 
  11   1.0000      -0.342683        -9.3249 
  12   1.0000      -0.342683        -9.3249 
  13   1.0000      -0.340713        -9.2713 
  14   1.0000      -0.312126        -8.4934 
  15   0.0000      -0.003987        -0.1085 
  16   0.0000       0.042133         1.1465 
  17   0.0000       0.042133         1.1465 
  18   0.0000       0.119070         3.2401 
  19   0.0000       0.133109         3.6221 
  20   0.0000       0.185847         5.0572 
  21   0.0000       0.185847         5.0572 
  22   0.0000       0.233131         6.3438 
  23   0.0000       0.263259         7.1636 
  24   0.0000       0.263259         7.1636 
  25   0.0000       0.284729         7.7479 
  26   0.0000       0.286554         7.7975 
  27   0.0000       0.375646        10.2219 
  28   0.0000       0.381318        10.3762 
  29   0.0000       0.381318        10.3762 
  30   0.0000       0.481277        13.0962 
  31   0.0000       0.565787        15.3959 
  32   0.0000       0.710737        19.3401 
  33   0.0000       0.710737        19.3401 
  34   0.0000       0.752661        20.4810 
  35   0.0000       0.957449        26.0535 
  36   0.0000       0.957449        26.0535 
  37   0.0000       1.094156        29.7735 
  38   0.0000       1.103062        30.0158 
  39   0.0000       1.200834        32.6764 
  40   0.0000       1.262441        34.3528 
  41   0.0000       1.262441        34.3528 
  42   0.0000       1.406717        38.2787 
  43   0.0000       2.559234        69.6403 
  44   0.0000       2.719530        74.0022 
  45   0.0000       2.719530        74.0022 
  46   0.0000       2.755558        74.9825 
  47   0.0000       2.803994        76.3006 
  48   0.0000       2.803994        76.3006 
  49   0.0000       2.804467        76.3134 
  50   0.0000       2.816161        76.6316 
  51   0.0000       2.828277        76.9613 
  52   0.0000       2.828277        76.9613 
  53   0.0000       3.077504        83.7431 
  54   0.0000       3.267794        88.9212 
  55   0.0000       3.419420        93.0471 
  56   0.0000       3.420635        93.0802 
  57   0.0000       3.818952       103.9190 
  58   0.0000       3.822627       104.0190 
  59   0.0000       3.822627       104.0190 
  60   0.0000       3.930457       106.9532 
  61   0.0000       3.954485       107.6070 
  62   0.0000       4.005683       109.0002 
  63   0.0000       4.005683       109.0002 
  64   0.0000       4.107468       111.7699 
  65   0.0000       4.107468       111.7699 
  66   0.0000       4.276685       116.3745 
  67   0.0000       5.173735       140.7845 
  68   0.0000      10.111810       275.1563 
  69   0.0000      10.112822       275.1839 
  70   0.0000      10.122103       275.4364 
  71   0.0000      10.130385       275.6618 
  72   0.0000      10.130385       275.6618 
  73   0.0000      10.143234       276.0114 
  74   0.0000      10.150475       276.2085 
  75   0.0000      10.150475       276.2085 
  76   0.0000      10.170106       276.7427 
  77   0.0000      10.635699       289.4121 
  78   0.0000      10.635699       289.4121 
  79   0.0000      10.650689       289.8200 
  80   0.0000      10.678637       290.5805 
  81   0.0000      10.749583       292.5110 
  82   0.0000      10.749583       292.5110 
  83   0.0000      11.031746       300.1891 

                 SPIN DOWN ORBITALS
  NO   OCC          E(Eh)            E(eV) 
   0   1.0000    -277.345512     -7546.9551 
   1   1.0000     -32.791305      -892.2968 
   2   1.0000     -28.435150      -773.7598 
   3   1.0000     -28.432485      -773.6873 
   4   1.0000     -28.432485      -773.6873 
   5   1.0000      -3.720871      -101.2500 
   6   1.0000      -2.402214       -65.3676 
   7   1.0000      -2.399510       -65.2940 
   8   1.0000      -2.399510       -65.2940 
   9   1.0000      -0.373396       -10.1606 
  10   1.0000      -0.302455        -8.2302 
  11   1.0000      -0.302455        -8.2302 
  12   1.0000      -0.301916        -8.2155 
  13   0.0000      -0.010530        -0.2865 
  14   0.0000       0.048960         1.3323 
  15   0.0000       0.048960         1.3323 
  16   0.0000       0.067430         1.8349 
  17   0.0000       0.104412         2.8412 
  18   0.0000       0.137583         3.7438 
  19   0.0000       0.146358         3.9826 
  20   0.0000       0.194214         5.2848 
  21   0.0000       0.194214         5.2848 
  22   0.0000       0.247503         6.7349 
  23   0.0000       0.264870         7.2075 
  24   0.0000       0.264870         7.2075 
  25   0.0000       0.287552         7.8247 
  26   0.0000       0.304810         8.2943 
  27   0.0000       0.381693        10.3864 
  28   0.0000       0.381693        10.3864 
  29   0.0000       0.385240        10.4829 
  30   0.0000       0.489127        13.3098 
  31   0.0000       0.567332        15.4379 
  32   0.0000       0.724218        19.7070 
  33   0.0000       0.724218        19.7070 
  34   0.0000       0.761492        20.7213 
  35   0.0000       0.959231        26.1020 
  36   0.0000       0.959231        26.1020 
  37   0.0000       1.119220        30.4555 
  38   0.0000       1.140546        31.0358 
  39   0.0000       1.228989        33.4425 
  40   0.0000       1.271253        34.5925 
  41   0.0000       1.271253        34.5925 
  42   0.0000       1.414653        38.4947 
  43   0.0000       2.582609        70.2764 
  44   0.0000       2.743825        74.6633 
  45   0.0000       2.743825        74.6633 
  46   0.0000       2.754357        74.9499 
  47   0.0000       2.822693        76.8094 
  48   0.0000       2.843408        77.3731 
  49   0.0000       2.851315        77.5882 
  50   0.0000       2.851315        77.5882 
  51   0.0000       2.895974        78.8035 
  52   0.0000       2.895974        78.8035 
  53   0.0000       3.109492        84.6136 
  54   0.0000       3.315434        90.2176 
  55   0.0000       3.413353        92.8821 
  56   0.0000       3.415052        92.9283 
  57   0.0000       3.825562       104.0988 
  58   0.0000       3.825562       104.0988 
  59   0.0000       3.891447       105.8917 
  60   0.0000       3.985217       108.4433 
  61   0.0000       4.030533       109.6764 
  62   0.0000       4.033046       109.7447 
  63   0.0000       4.033046       109.7447 
  64   0.0000       4.101291       111.6018 
  65   0.0000       4.101291       111.6018 
  66   0.0000       4.277474       116.3960 
  67   0.0000       5.199810       141.4940 
  68   0.0000      10.171249       276.7738 
  69   0.0000      10.172998       276.8213 
  70   0.0000      10.172998       276.8213 
  71   0.0000      10.187995       277.2294 
  72   0.0000      10.188984       277.2563 
  73   0.0000      10.192524       277.3527 
  74   0.0000      10.210705       277.8474 
  75   0.0000      10.210705       277.8474 
  76   0.0000      10.251119       278.9471 
  77   0.0000      10.700662       291.1798 
  78   0.0000      10.724068       291.8167 
  79   0.0000      10.729405       291.9620 
  80   0.0000      10.729405       291.9620 
  81   0.0000      10.833393       294.7916 
  82   0.0000      10.833393       294.7916 
  83   0.0000      11.137559       303.0684 

                    ********************************
                    * MULLIKEN POPULATION ANALYSIS *
                    ********************************

--------------------------------------------
MULLIKEN ATOMIC CHARGES AND SPIN POPULATIONS
--------------------------------------------
   0 Co:    0.097423    2.100549
   1 H :   -0.097423   -0.100549
Sum of atomic charges         :   -0.0000000
Sum of atomic spin populations:    2.0000000

-----------------------------------------------------
MULLIKEN REDUCED ORBITAL CHARGES AND SPIN POPULATIONS
-----------------------------------------------------
CHARGE
  0 Cos       :     6.769481  s :     6.769481
      pz      :     4.117720  p :    12.120990
      px      :     4.001635
      py      :     4.001635
      dz2     :     1.021053  d :     8.011378
      dxz     :     1.995221
      dyz     :     1.995221
      dx2y2   :     0.999963
      dxy     :     1.999920
      f0      :     0.000431  f :     0.000705
      f+1     :     0.000065
      f-1     :     0.000065
      f+2     :     0.000028
      f-2     :     0.000058
      f+3     :     0.000029
      f-3     :     0.000029
      g0      :     0.000008  g :     0.000022
      g+1     :     0.000000
      g-1     :     0.000000
      g+2     :     0.000003
      g-2     :     0.000001
      g+3     :     0.000001
      g-3     :     0.000001
      g+4     :     0.000007
      g-4     :     0.000000
  1 H s       :     1.098803  s :     1.098803
      pz      :    -0.008179  p :    -0.002896
      px      :     0.002641
      py      :     0.002641
      dz2     :     0.000675  d :     0.001516
      dxz     :     0.000407
      dyz     :     0.000407
      dx2y2   :     0.000006
      dxy     :     0.000021

SPIN
  0 Cos       :     0.273597  s :     0.273597
      pz      :    -0.005480  p :    -0.006065
      px      :    -0.000293
      py      :    -0.000293
      dz2     :     0.831344  d :     1.833081
      dxz     :     0.000883
      dyz     :     0.000883
      dx2y2   :     0.999963
      dxy     :     0.000008
      f0      :    -0.000047  f :    -0.000073
      f+1     :    -0.000010
      f-1     :    -0.000010
      f+2     :     0.000028
      f-2     :    -0.000001
      f+3     :    -0.000017
      f-3     :    -0.000017
      g0      :     0.000003  g :     0.000009
      g+1     :     0.000000
      g-1     :     0.000000
      g+2     :     0.000003
      g-2     :     0.000000
      g+3     :     0.000000
      g-3     :     0.000000
      g+4     :     0.000002
      g-4     :     0.000000
  1 H s       :    -0.097375  s :    -0.097375
      pz      :    -0.002370  p :    -0.003437
      px      :    -0.000533
      py      :    -0.000533
      dz2     :     0.000326  d :     0.000263
      dxz     :    -0.000031
      dyz     :    -0.000031
      dx2y2   :     0.000006
      dxy     :    -0.000007


                     *******************************
                     * LOEWDIN POPULATION ANALYSIS *
                     *******************************

-------------------------------------------
LOEWDIN ATOMIC CHARGES AND SPIN POPULATIONS
-------------------------------------------
   0 Co:    0.238611    2.004490
   1 H :   -0.238611   -0.004490

----------------------------------------------------
LOEWDIN REDUCED ORBITAL CHARGES AND SPIN POPULATIONS
----------------------------------------------------
CHARGE
  0 Cos       :     6.621223  s :     6.621223
      pz      :     4.145162  p :    12.149043
      px      :     4.001941
      py      :     4.001941
      dz2     :     1.048180  d :     7.989497
      dxz     :     1.970925
      dyz     :     1.970925
      dx2y2   :     0.999841
      dxy     :     1.999626
      f0      :     0.001103  f :     0.001601
      f+1     :     0.000176
      f-1     :     0.000176
      f+2     :     0.000029
      f-2     :     0.000060
      f+3     :     0.000029
      f-3     :     0.000029
      g0      :     0.000011  g :     0.000025
      g+1     :     0.000000
      g-1     :     0.000000
      g+2     :     0.000003
      g-2     :     0.000001
      g+3     :     0.000001
      g-3     :     0.000001
      g+4     :     0.000007
      g-4     :     0.000000
  1 H s       :     1.099950  s :     1.099950
      pz      :     0.078052  p :     0.123231
      px      :     0.022589
      py      :     0.022589
      dz2     :     0.006313  d :     0.015430
      dxz     :     0.004338
      dyz     :     0.004338
      dx2y2   :     0.000127
      dxy     :     0.000313

SPIN
  0 Cos       :     0.209020  s :     0.209020
      pz      :    -0.023357  p :    -0.024615
      px      :    -0.000629
      py      :    -0.000629
      dz2     :     0.814915  d :     1.820252
      dxz     :     0.002737
      dyz     :     0.002737
      dx2y2   :     0.999841
      dxy     :     0.000023
      f0      :    -0.000138  f :    -0.000172
      f+1     :    -0.000014
      f-1     :    -0.000014
      f+2     :     0.000029
      f-2     :    -0.000001
      f+3     :    -0.000017
      f-3     :    -0.000017
      g0      :    -0.000000  g :     0.000005
      g+1     :    -0.000000
      g-1     :    -0.000000
      g+2     :     0.000003
      g-2     :     0.000000
      g+3     :     0.000000
      g-3     :     0.000000
      g+4     :     0.000002
      g-4     :     0.000000
  1 H s       :    -0.023566  s :    -0.023566
      pz      :     0.021010  p :     0.017094
      px      :    -0.001958
      py      :    -0.001958
      dz2     :     0.002116  d :     0.001983
      dxz     :    -0.000119
      dyz     :    -0.000119
      dx2y2   :     0.000127
      dxy     :    -0.000022


                      *****************************
                      * MAYER POPULATION ANALYSIS *
                      *****************************

  NA   - Mulliken gross atomic population
  ZA   - Total nuclear charge
  QA   - Mulliken gross atomic charge
  VA   - Mayer's total valence
  BVA  - Mayer's bonded valence
  FA   - Mayer's free valence

  ATOM       NA         ZA         QA         VA         BVA        FA
  0 Co    26.9026    27.0000     0.0974     2.9707     0.9732     1.9974
  1 H      1.0974     1.0000    -0.0974     0.9826     0.9732     0.0093

  Mayer bond orders larger than 0.100000
B(  0-Co,  1-H ) :   0.9732 

-------
TIMINGS
-------

Total SCF time: 0 days 0 hours 3 min 1 sec 

Total time                  ....     181.948 sec
Sum of individual times     ....     178.940 sec  ( 98.3%)

Fock matrix formation       ....     171.865 sec  ( 94.5%)
  XC integration            ....     164.217 sec  ( 95.6% of F)
    Basis function eval.    ....       0.026 sec  (  0.0% of XC)
    Density eval.           ....       0.034 sec  (  0.0% of XC)
    XC-Functional eval.     ....       0.038 sec  (  0.0% of XC)
    XC-Potential eval.      ....       0.051 sec  (  0.0% of XC)
Diagonalization             ....       2.558 sec  (  1.4%)
Density matrix formation    ....       0.009 sec  (  0.0%)
Population analysis         ....       0.223 sec  (  0.1%)
Initial guess               ....       0.162 sec  (  0.1%)
Orbital Transformation      ....       0.000 sec  (  0.0%)
Orbital Orthonormalization  ....       0.000 sec  (  0.0%)
DIIS solution               ....       0.185 sec  (  0.1%)
Grid generation             ....       3.938 sec  (  2.2%)

-------------------------   --------------------
FINAL SINGLE POINT ENERGY     -1383.156955330915
-------------------------   --------------------


----------------------------------------------------------------------------
                           ORCA NUMERICAL GRADIENT
                              (28-process run)
----------------------------------------------------------------------------

I state                        ... 1
J state                        ... 0
Number of atoms                ... 2
Derivative's order of accuracy ... 2
Central differences            ... used
Number of displacements        ... 12
Numerical increment            ... 5.000e-03 bohr
Translation invariance         ... used

The output will be reduced. Please look at the following files:
SCF program output             ... >CoH.lastscf
Integral program output        ... >CoH.lastint
Gradient program output        ... >CoH.lastgrad


     Note:   There are more processes than displacements to do
     ===>:   Reducing number of processes to   3

             <<<Displacing   2/coordinate 2 (+)>>>
             <<<Displacing   2/coordinate 1 (+)>>>
             <<<Displacing   2/coordinate 3 (+)>>>
             <<<Displacing   2/coordinate 2 (-)>>>
             <<<Displacing   2/coordinate 3 (-)>>>
             <<<Displacing   2/coordinate 1 (-)>>>

------------------------------
CARTESIAN GRADIENT (NUMERICAL)
-------------------------------
   1   Co  :   -0.000000000   -0.000000000    0.002671122
   2   H   :    0.000000000    0.000000000   -0.002671122

Norm of the cartesian gradient     ...    0.003777537
RMS gradient                       ...    0.001542173
MAX gradient                       ...    0.002671122

-------
TIMINGS
-------

Total numerical gradient time      ...       17.794 sec


                            ***************************************
                            *     ORCA property calculations      *
                            ***************************************

                                    ---------------------
                                    Active property flags
                                    ---------------------
   (+) Dipole Moment


------------------------------------------------------------------------------
                       ORCA ELECTRIC PROPERTIES CALCULATION
------------------------------------------------------------------------------

Dipole Moment Calculation                       ... on
Quadrupole Moment Calculation                   ... off
Polarizability Calculation                      ... off
GBWName                                         ... CoH.gbw
Electron density file                           ... CoH.scfp
The origin for moment calculation is the CENTER OF MASS  = ( 0.000000,  0.000000  0.048656)

-------------
DIPOLE MOMENT
-------------
                                X             Y             Z
Electronic contribution:     -0.00000      -0.00000      -2.87287
Nuclear contribution   :      0.00000       0.00000       1.53082
                        -----------------------------------------
Total Dipole Moment    :     -0.00000      -0.00000      -1.34206
                        -----------------------------------------
Magnitude (a.u.)       :      1.34206
Magnitude (Debye)      :      3.41124



--------------------
Rotational spectrum 
--------------------
 
Rotational constants in cm-1:     0.000000     7.256911     7.256911 
Rotational constants in MHz :     0.000000 217556.717096 217556.717096 

 Dipole components along the rotational axes: 
x,y,z [a.u.] :    -1.342057    -0.000000    -0.000000 
x,y,z [Debye]:    -3.411238    -0.000000    -0.000000 

 

Timings for individual modules:

Sum of individual times         ...      204.174 sec (=   3.403 min)
GTO integral calculation        ...        3.737 sec (=   0.062 min)   1.8 %
SCF iterations                  ...      182.643 sec (=   3.044 min)  89.5 %
SCF Gradient evaluation         ...       17.794 sec (=   0.297 min)   8.7 %
                             ****ORCA TERMINATED NORMALLY****
TOTAL RUN TIME: 0 days 0 hours 3 minutes 27 seconds 164 msec
