
                                 *****************
                                 * O   R   C   A *
                                 *****************

           --- An Ab Initio, DFT and Semiempirical electronic structure package ---

                  #######################################################
                  #                        -***-                        #
                  #          Department of theory and spectroscopy      #
                  #               Directorship: Frank Neese             #
                  #        Max Planck Institute fuer Kohlenforschung    #
                  #                Kaiser Wilhelm Platz 1               #
                  #                 D-45470 Muelheim/Ruhr               #
                  #                      Germany                        #
                  #                                                     #
                  #                  All rights reserved                #
                  #                        -***-                        #
                  #######################################################


                         Program Version 4.2.0 -  RELEASE  -


 With contributions from (in alphabetic order):
   Daniel Aravena         : Magnetic Suceptibility
   Michael Atanasov       : Ab Initio Ligand Field Theory (pilot matlab implementation)
   Alexander A. Auer      : GIAO ZORA, VPT2
   Ute Becker             : Parallelization
   Giovanni Bistoni       : ED, misc. LED, open-shell LED, HFLED
   Martin Brehm           : Molecular dynamics
   Dmytro Bykov           : SCF Hessian
   Vijay G. Chilkuri      : MRCI spin determinant printing, contributions to CSF-ICE
   Dipayan Datta          : RHF DLPNO-CCSD density
   Achintya Kumar Dutta   : EOM-CC, STEOM-CC
   Dmitry Ganyushin       : Spin-Orbit,Spin-Spin,Magnetic field MRCI
   Miquel Garcia          : C-PCM Hessian, Gaussian charge scheme
   Yang Guo               : DLPNO-NEVPT2, CIM, IAO-localization
   Andreas Hansen         : Spin unrestricted coupled pair/coupled cluster methods
   Benjamin Helmich-Paris : CASSCF linear response (MC-RPA)
   Lee Huntington         : MR-EOM, pCC
   Robert Izsak           : Overlap fitted RIJCOSX, COSX-SCS-MP3, EOM
   Christian Kollmar      : KDIIS, OOCD, Brueckner-CCSD(T), CCSD density
   Simone Kossmann        : Meta GGA functionals, TD-DFT gradient, OOMP2, MP2 Hessian
   Martin Krupicka        : AUTO-CI
   Lucas Lang             : DCDCAS
   Dagmar Lenk            : GEPOL surface, SMD
   Dimitrios Liakos       : Extrapolation schemes; Compound Job, initial MDCI parallelization
   Dimitrios Manganas     : Further ROCIS development; embedding schemes
   Dimitrios Pantazis     : SARC Basis sets
   Taras Petrenko         : DFT Hessian,TD-DFT gradient, ASA, ECA, R-Raman, ABS, FL, XAS/XES, NRVS
   Peter Pinski           : DLPNO-MP2, DLPNO-MP2 Gradient
   Christoph Reimann      : Effective Core Potentials
   Marius Retegan         : Local ZFS, SOC
   Christoph Riplinger    : Optimizer, TS searches, QM/MM, DLPNO-CCSD(T), (RO)-DLPNO pert. Triples
   Tobias Risthaus        : Range-separated hybrids, TD-DFT gradient, RPA, STAB
   Michael Roemelt        : Original ROCIS implementation
   Masaaki Saitow         : Open-shell DLPNO-CCSD energy and density
   Barbara Sandhoefer     : DKH picture change effects
   Avijit Sen             : IP-ROCIS
   Kantharuban Sivalingam : CASSCF convergence, NEVPT2, FIC-MRCI
   Bernardo de Souza      : ESD, SOC TD-DFT
   Georgi Stoychev        : AutoAux, RI-MP2 NMR
   Willem Van den Heuvel  : Paramagnetic NMR
   Boris Wezisla          : Elementary symmetry handling
   Frank Wennmohs         : Technical directorship


 We gratefully acknowledge several colleagues who have allowed us to
 interface, adapt or use parts of their codes:
   Stefan Grimme, W. Hujo, H. Kruse,             : VdW corrections, initial TS optimization,
                  C. Bannwarth                     DFT functionals, gCP, sTDA/sTD-DF
   Ed Valeev, F. Pavosevic, A. Kumar             : LibInt (2-el integral package), F12 methods
   Garnet Chan, S. Sharma, J. Yang, R. Olivares  : DMRG
   Ulf Ekstrom                                   : XCFun DFT Library
   Mihaly Kallay                                 : mrcc  (arbitrary order and MRCC methods)
   Andreas Klamt, Michael Diedenhofen            : otool_cosmo (COSMO solvation model)
   Jiri Pittner, Ondrej Demel                    : Mk-CCSD
   Frank Weinhold                                : gennbo (NPA and NBO analysis)
   Christopher J. Cramer and Donald G. Truhlar   : smd solvation model
   Lars Goerigk                                  : TD-DFT with DH, B97 family of functionals
   V. Asgeirsson, H. Jonsson                     : NEB implementation
   FAccTs GmbH                                   : IRC, NEB, NEB-TS, Multilevel, MM, QM/MM, CI optimization
   S Lehtola, MJT Oliveira, MAL Marques          : LibXC Library


 Your calculation uses the libint2 library for the computation of 2-el integrals
 For citations please refer to: http://libint.valeyev.net

 Your ORCA version has been built with support for libXC version: 4.2.3
 For citations please refer to: https://tddft.org/programs/libxc/

 This ORCA versions uses:
   CBLAS   interface :  Fast vector & matrix operations
   LAPACKE interface :  Fast linear algebra routines
   SCALAPACK package :  Parallel linear algebra routines


Your calculation utilizes the DFT-NL dispersion correction.
Cite in your paper:
Vydrov, O. A.; Van Voorhis, T. J. Chem. Phys. 2010, 133, 244103
Hujo, W.; Grimme, S. J. Chem. Theory Comput. 2011, 7, 3866 
   

----- Orbital basis set information -----
Your calculation utilizes the basis: def2-TZVPPD
   F. Weigend and R. Ahlrichs, Phys. Chem. Chem. Phys. 7, 3297 (2005).
   D. Rappoport and F. Furche, J. Chem. Phys. 133 134105 (2010).

----- AuxJK basis set information -----
Your calculation utilizes the auxiliary basis: def2/JK
   H-Ba, Hf-Rn: F. Weigend, J. Comput. Chem. 29, 167 (2008).

================================================================================
                                        WARNINGS
                       Please study these warnings very carefully!
================================================================================

INFO   : Found keyword 'NumGrad' for Energy calculation
  ===> : Setting RunTyp to EnGrad

WARNING: Numerical Gradient with sloppy Convergence Criteria    
         Your results may be not reliable!                      
         Please choose at least TightSCF!                       

WARNING: your system is open-shell and RHF/RKS was chosen
  ===> : WILL SWITCH to UHF/UKS


INFO   : the flag for use of LIBINT has been found!

================================================================================
                                       INPUT FILE
================================================================================
NAME = Cr+.in
|  1> #
|  2> # Cr+ wB97X-V/Def2-TZVPPD
|  3> #
|  4> ! wb97x-v def2-tzvppd def2/jk grid4 nofinalgrid numgrad
|  5> 
|  6> *xyz 1 6
|  7> Cr         0.00000        0.00000        0.00000
|  8> *
|  9> 
| 10> %maxcore 5000
| 11> 
| 12> %pal
| 13> nprocs = 28
| 14> end
| 15> 
| 16> 
| 17>                          ****END OF INPUT****
================================================================================

                     *******************************
                     * Energy+Gradient Calculation *
                     *******************************

---------------------------------
CARTESIAN COORDINATES (ANGSTROEM)
---------------------------------
  Cr     0.000000    0.000000    0.000000

----------------------------
CARTESIAN COORDINATES (A.U.)
----------------------------
  NO LB      ZA    FRAG     MASS         X           Y           Z
   0 Cr   24.0000    0    52.000    0.000000    0.000000    0.000000

--------------------------------
INTERNAL COORDINATES (ANGSTROEM)
--------------------------------
 Cr     0   0   0     0.000000000000     0.00000000     0.00000000

---------------------------
INTERNAL COORDINATES (A.U.)
---------------------------
 Cr     0   0   0     0.000000000000     0.00000000     0.00000000

---------------------
BASIS SET INFORMATION
---------------------
There are 1 groups of distinct atoms

 Group   1 Type Cr  : 17s13p7d2f1g contracted to 6s6p4d2f1g pattern {842111/631111/4111/11/1}

Atom   0Cr   basis set group =>   1
----------------------------------
AUXILIARY/JK BASIS SET INFORMATION
----------------------------------
There are 1 groups of distinct atoms

 Group   1 Type Cr  : 19s14p12d10f7g3h1i contracted to 16s13p11d9f5g3h1i pattern {4111111111111111/2111111111111/21111111111/211111111/31111/111/1}

Atom   0Cr   basis set group =>   1


           ************************************************************
           *        Program running with 28 parallel MPI-processes    *
           *              working on a common directory               *
           ************************************************************
------------------------------------------------------------------------------
                           ORCA GTO INTEGRAL CALCULATION
------------------------------------------------------------------------------

                         BASIS SET STATISTICS AND STARTUP INFO

 # of primitive gaussian shells          ...   40
 # of primitive gaussian functions       ...  114
 # of contracted shells                  ...   19
 # of contracted basis functions         ...   67
 Highest angular momentum                ...    4
 Maximum contraction depth               ...    8
 Integral package used                   ... LIBINT
 Integral threshhold            Thresh   ...  1.000e-10
 Primitive cut-off              TCut     ...  1.000e-11


------------------------------ INTEGRAL EVALUATION ----------------------------


 * One electron integrals 
 Pre-screening matrix                    ... done
 Shell pair data                         ... done (   0.000 sec)



           ************************************************************
           *        Program running with 28 parallel MPI-processes    *
           *              working on a common directory               *
           ************************************************************
-------------------------------------------------------------------------------
                                 ORCA SCF
-------------------------------------------------------------------------------

------------
SCF SETTINGS
------------
Hamiltonian:
 Density Functional     Method          .... DFT(GTOs)
 Exchange Functional    Exchange        .... WB97X-V
 Correlation Functional Correlation     .... WB97X-V
 Gradients option       PostSCFGGA      .... off
 Hybrid DFT is turned on
   Fraction HF Exchange ScalHFX         ....  0.167000
   Scaling of DF-GGA-X  ScalDFX         ....  0.000000
   Scaling of DF-GGA-C  ScalDFC         ....  1.000000
   Scaling of DF-LDA-C  ScalLDAC        ....  1.000000
   Perturbative correction              ....  0.000000
   Density functional embedding theory  .... OFF
 Long-range corrected/Screened/Range-Separated Hybrid DFT is turned on
   Amount of maximum screened exact exchange              ....  0.833000
   Range separation parameter mu (erf(mu*r12)/r12)        ....  0.300000
   NL short-range parameter             ....  6.000000
   NL long-range parameter              ....  0.010000


General Settings:
 Integral files         IntName         .... Cr+
 Hartree-Fock type      HFTyp           .... UHF
 Total Charge           Charge          ....    1
 Multiplicity           Mult            ....    6
 Number of Electrons    NEL             ....   23
 Basis Dimension        Dim             ....   67
 Nuclear Repulsion      ENuc            ....      0.0000000000 Eh

Convergence Acceleration:
 DIIS                   CNVDIIS         .... on
   Start iteration      DIISMaxIt       ....    12
   Startup error        DIISStart       ....  0.200000
   # of expansion vecs  DIISMaxEq       ....     5
   Bias factor          DIISBfac        ....   1.050
   Max. coefficient     DIISMaxC        ....  10.000
 Newton-Raphson         CNVNR           .... off
 SOSCF                  CNVSOSCF        .... off
 Level Shifting         CNVShift        .... on
   Level shift para.    LevelShift      ....    0.2500
   Turn off err/grad.   ShiftErr        ....    0.0010
 Zerner damping         CNVZerner       .... off
 Static damping         CNVDamp         .... on
   Fraction old density DampFac         ....    0.7000
   Max. Damping (<1)    DampMax         ....    0.9800
   Min. Damping (>=0)   DampMin         ....    0.0000
   Turn off err/grad.   DampErr         ....    0.1000
 Fernandez-Rico         CNVRico         .... off

SCF Procedure:
 Maximum # iterations   MaxIter         ....   125
 SCF integral mode      SCFMode         .... Direct
   Integral package                     .... LIBINT
 Reset frequency        DirectResetFreq ....    20
 Integral Threshold     Thresh          ....  1.000e-10 Eh
 Primitive CutOff       TCut            ....  1.000e-11 Eh

Convergence Tolerance:
 Convergence Check Mode ConvCheckMode   .... Total+1el-Energy
 Convergence forced     ConvForced      .... 0
 Energy Change          TolE            ....  1.000e-06 Eh
 1-El. energy change                    ....  1.000e-03 Eh
 DIIS Error             TolErr          ....  1.000e-06


Diagonalization of the overlap matrix:
Smallest eigenvalue                        ... 4.166e-02
Time for diagonalization                   ...    0.002 sec
Threshold for overlap eigenvalues          ... 1.000e-08
Number of eigenvalues below threshold      ... 0
Time for construction of square roots      ...    0.009 sec
Total time needed                          ...    0.010 sec

-------------------
DFT GRID GENERATION
-------------------

General Integration Accuracy     IntAcc      ...  4.670
Radial Grid Type                 RadialGrid  ... Gauss-Chebyshev
Angular Grid (max. acc.)         AngularGrid ... Lebedev-302
Angular grid pruning method      GridPruning ... 3 (G Style)
Weight generation scheme         WeightScheme... Becke
Basis function cutoff            BFCut       ...    1.0000e-10
Integration weight cutoff        WCut        ...    1.0000e-14
Grids for H and He will be reduced by one unit

# of grid points (after initial pruning)     ...   9664 (   0.0 sec)
# of grid points (after weights+screening)   ...   9664 (   0.0 sec)
Grid point division into batches done        ...    0.1 sec
Reduced shell lists constructed in    0.1 sec

Total number of grid points                  ...     9664
Total number of batches                      ...      152
Average number of points per batch           ...       63
Average number of grid points per atom       ...     9664
Average number of shells per batch           ...     3.43 (18.05%)
Average number of basis functions per batch  ...    10.29 (15.35%)
Average number of large shells per batch     ...     3.43 (100.00%)
Average number of large basis fcns per batch ...    10.29 (100.00%)
Maximum spatial batch extension              ...  22.27, 22.27, 22.27 au
Average spatial batch extension              ...   0.77,  0.76,  0.74 au

Time for grid setup =    0.136 sec

------------------------------
INITIAL GUESS: MODEL POTENTIAL
------------------------------
Loading Hartree-Fock densities                     ... done
Calculating cut-offs                               ... done
Setting up the integral package                    ... done
Initializing the effective Hamiltonian             ... done
Starting the Coulomb interaction                   ... done (   0.0 sec)
Reading the grid                                   ... done
Mapping shells                                     ... done
Starting the XC term evaluation                    ... done (   0.0 sec)
  promolecular density results
     # of electrons  =     24.000004859
     EX              =    -35.930623625
     EC              =     -1.362221229
     EX+EC           =    -37.292844854
Transforming the Hamiltonian                       ... done (   0.0 sec)
Diagonalizing the Hamiltonian                      ... done (   0.0 sec)
Back transforming the eigenvectors                 ... done (   0.0 sec)
Now organizing SCF variables                       ... done
                      ------------------
                      INITIAL GUESS DONE (   0.3 sec)
                      ------------------
--------------
SCF ITERATIONS
--------------
ITER       Energy         Delta-E        Max-DP      RMS-DP      [F,P]     Damp
               ***  Starting incremental Fock matrix formation  ***
  0  -1039.9182691012   0.000000000000 0.29260009  0.00867720  0.7328803 0.7000
  1  -1041.9443775860  -2.026108484756 0.20482427  0.00521258  0.1906711 0.7000
                               ***Turning on DIIS***
  2  -1042.7728364768  -0.828458890821 0.14337282  0.00338202  0.1301716 0.7000
  3  -1043.1982512772  -0.425414800439 0.10036081  0.00236204  0.1522643 0.7000
  4  -1043.4441183009  -0.245867023690 0.07025280  0.00164791  0.1972505 0.7000
  5  -1043.5857856174  -0.141667316433 0.04917707  0.00115549  0.2349905 0.7000
  6  -1043.6641826806  -0.078397063239 0.03442401  0.00081012  0.2666694 0.7000
  7  -1043.7097546351  -0.045571954479 0.02409684  0.00056618  0.2896418 0.7000
  8  -1043.7396266582  -0.029872023109 0.01686747  0.00043064  0.3044180 0.7000
  9  -1043.7780100551  -0.038383396881 0.01180580  0.00054123  0.3022543 0.7000
 10  -1043.8361998308  -0.058189775736 0.03754139  0.00153862  0.2772671 0.7000
 11  -1043.9454788066  -0.109278975813 0.02475566  0.00094113  0.1678609 0.7000
 12  -1044.0095328358  -0.064054029150 0.01563181  0.00060525  0.1057196 0.7000
 13  -1044.0493232646  -0.039790428860 0.03538362  0.00137636  0.0708184 0.0000
 14  -1044.1338556944  -0.084532429720 0.00179577  0.00007535  0.0039912 0.0000
 15  -1044.1339409295  -0.000085235170 0.00112052  0.00004106  0.0020236 0.0000
 16  -1044.1339602690  -0.000019339484 0.00058852  0.00001961  0.0004684 0.0000
 17  -1044.1339637344  -0.000003465408 0.00014512  0.00000566  0.0001026 0.0000
 18  -1044.1339639396  -0.000000205200 0.00011377  0.00000239  0.0000366 0.0000
                 **** Energy Check signals convergence ****

               *****************************************************
               *                     SUCCESS                       *
               *           SCF CONVERGED AFTER  19 CYCLES          *
               *****************************************************


Setting up the DFT-NL grid :

General Integration Accuracy     IntAcc      ...  4.340
Radial Grid Type                 RadialGrid  ... Gauss-Chebyshev
Angular Grid (max. acc.)         AngularGrid ... Lebedev-110
Angular grid pruning method      GridPruning ... 3 (G Style)
Weight generation scheme         WeightScheme... Becke
Basis function cutoff            BFCut       ...    1.0000e-10
Integration weight cutoff        WCut        ...    1.0000e-14
Grids for H and He will be reduced by one unit

# of grid points (after initial pruning)     ...   2972 (   0.0 sec)
# of grid points (after weights+screening)   ...   2972 (   0.0 sec)
Grid point division into batches done        ...    0.0 sec
Reduced shell lists constructed in    0.0 sec

Total number of grid points                  ...     2972
Total number of batches                      ...       47
Average number of points per batch           ...       63
Average number of grid points per atom       ...     2972
Average number of shells per batch           ...     4.67 (24.56%)
Average number of basis functions per batch  ...    14.00 (20.90%)
Average number of large shells per batch     ...     4.67 (100.00%)
Average number of large basis fcns per batch ...    14.00 (100.00%)
Maximum spatial batch extension              ...  18.71, 28.73, 28.73 au
Average spatial batch extension              ...   0.80,  1.22,  1.22 au

Final grid set up in    0.0 sec

-------------------------------------------------------------------------------
                         DFT-NL dispersion correction                          
-------------------------------------------------------------------------------

SC Energy -1044.133963973 
NL    Energy 0.099366428 
SC+NL Energy -1044.034597546 
NL done in    0.1 sec
-------------------------------------------------------------------------------

----------------
TOTAL SCF ENERGY
----------------

Total Energy       :        -1044.03459755 Eh          -28409.62572 eV

Components:
Nuclear Repulsion  :            0.00000000 Eh               0.00000 eV
Electronic Energy  :        -1044.03459755 Eh          -28409.62572 eV
One Electron Energy:        -1432.60194755 Eh          -38983.08085 eV
Two Electron Energy:          388.56735000 Eh           10573.45514 eV

Virial components:
Potential Energy   :        -2086.55292738 Eh          -56777.99169 eV
Kinetic Energy     :         1042.51832983 Eh           28368.36597 eV
Virial Ratio       :            2.00145443


DFT components:
N(Alpha)           :       13.999999984230 electrons
N(Beta)            :        8.999999985219 electrons
N(Total)           :       22.999999969449 electrons
E(X)               :      -36.220929409995 Eh       
E(C)               :       -1.303451710594 Eh       
NL Energy, E(C,NL) :        0.099366427644 Eh       
E(XC)              :      -37.425014692945 Eh       
DFET-embed. en.    :        0.000000000000 Eh       

---------------
SCF CONVERGENCE
---------------

  Last Energy change         ...   -3.3579e-08  Tolerance :   1.0000e-06
  Last MAX-Density change    ...    1.0820e-04  Tolerance :   1.0000e-05
  Last RMS-Density change    ...    2.1185e-06  Tolerance :   1.0000e-06
  Last DIIS Error            ...    2.8718e-05  Tolerance :   1.0000e-06

             **** THE GBW FILE WAS UPDATED (Cr+.gbw) ****
             **** DENSITY FILE WAS UPDATED (Cr+.scfp) ****
             **** ENERGY FILE WAS UPDATED (Cr+.en.tmp) ****
----------------------
UHF SPIN CONTAMINATION
----------------------

Warning: in a DFT calculation there is little theoretical justification to 
         calculate <S**2> as in Hartree-Fock theory. We will do it anyways
         but you should keep in mind that the values have only limited relevance

Expectation value of <S**2>     :     8.750176
Ideal value S*(S+1) for S=2.5   :     8.750000
Deviation                       :     0.000176

             **** THE GBW FILE WAS UPDATED (Cr+.gbw) ****
             **** DENSITY FILE WAS UPDATED (Cr+.scfp) ****
----------------
ORBITAL ENERGIES
----------------
                 SPIN UP ORBITALS
  NO   OCC          E(Eh)            E(eV) 
   0   1.0000    -215.800115     -5872.2197 
   1   1.0000     -24.917530      -678.0405 
   2   1.0000     -21.200404      -576.8923 
   3   1.0000     -21.200390      -576.8919 
   4   1.0000     -21.200385      -576.8918 
   5   1.0000      -3.225199       -87.7621 
   6   1.0000      -2.184953       -59.4556 
   7   1.0000      -2.184949       -59.4555 
   8   1.0000      -2.184938       -59.4552 
   9   1.0000      -0.555344       -15.1117 
  10   1.0000      -0.555344       -15.1117 
  11   1.0000      -0.555342       -15.1116 
  12   1.0000      -0.555341       -15.1116 
  13   1.0000      -0.555337       -15.1115 
  14   0.0000      -0.247356        -6.7309 
  15   0.0000      -0.136113        -3.7038 
  16   0.0000      -0.136097        -3.7034 
  17   0.0000      -0.136091        -3.7032 
  18   0.0000      -0.028140        -0.7657 
  19   0.0000      -0.022985        -0.6254 
  20   0.0000      -0.022978        -0.6253 
  21   0.0000      -0.022976        -0.6252 
  22   0.0000      -0.011424        -0.3109 
  23   0.0000      -0.011424        -0.3109 
  24   0.0000      -0.011418        -0.3107 
  25   0.0000      -0.011416        -0.3106 
  26   0.0000      -0.011414        -0.3106 
  27   0.0000       0.276754         7.5309 
  28   0.0000       0.276763         7.5311 
  29   0.0000       0.276766         7.5312 
  30   0.0000       0.379518        10.3272 
  31   0.0000       0.379518        10.3272 
  32   0.0000       0.379519        10.3272 
  33   0.0000       0.379519        10.3272 
  34   0.0000       0.379519        10.3272 
  35   0.0000       1.377787        37.4915 
  36   0.0000       1.377788        37.4915 
  37   0.0000       1.377789        37.4916 
  38   0.0000       1.377792        37.4916 
  39   0.0000       1.377792        37.4916 
  40   0.0000       1.377795        37.4917 
  41   0.0000       1.377795        37.4917 
  42   0.0000       1.652333        44.9623 
  43   0.0000       1.652336        44.9624 
  44   0.0000       1.652345        44.9626 
  45   0.0000       1.796300        48.8798 
  46   0.0000       1.948321        53.0165 
  47   0.0000       1.948321        53.0165 
  48   0.0000       1.948322        53.0165 
  49   0.0000       1.948323        53.0166 
  50   0.0000       1.948324        53.0166 
  51   0.0000       5.449812       148.2969 
  52   0.0000       5.449812       148.2969 
  53   0.0000       5.449822       148.2972 
  54   0.0000       5.449822       148.2972 
  55   0.0000       5.449828       148.2974 
  56   0.0000       5.449829       148.2974 
  57   0.0000       5.449831       148.2975 
  58   0.0000       5.449835       148.2976 
  59   0.0000       5.449836       148.2976 
  60   0.0000       6.085209       165.5870 
  61   0.0000       6.085209       165.5870 
  62   0.0000       6.085215       165.5871 
  63   0.0000       6.085215       165.5871 
  64   0.0000       6.085219       165.5872 
  65   0.0000       6.085221       165.5873 
  66   0.0000       6.085222       165.5873 

                 SPIN DOWN ORBITALS
  NO   OCC          E(Eh)            E(eV) 
   0   1.0000    -215.799782     -5872.2106 
   1   1.0000     -24.854864      -676.3352 
   2   1.0000     -21.149043      -575.4947 
   3   1.0000     -21.149032      -575.4944 
   4   1.0000     -21.149028      -575.4943 
   5   1.0000      -3.042776       -82.7981 
   6   1.0000      -1.983521       -53.9744 
   7   1.0000      -1.983514       -53.9742 
   8   1.0000      -1.983512       -53.9741 
   9   0.0000      -0.189997        -5.1701 
  10   0.0000      -0.098199        -2.6721 
  11   0.0000      -0.098187        -2.6718 
  12   0.0000      -0.098151        -2.6708 
  13   0.0000      -0.082061        -2.2330 
  14   0.0000      -0.082061        -2.2330 
  15   0.0000      -0.082040        -2.2324 
  16   0.0000      -0.082033        -2.2322 
  17   0.0000      -0.082028        -2.2321 
  18   0.0000       0.000658         0.0179 
  19   0.0000       0.003578         0.0974 
  20   0.0000       0.003589         0.0976 
  21   0.0000       0.003621         0.0985 
  22   0.0000       0.028798         0.7836 
  23   0.0000       0.028798         0.7836 
  24   0.0000       0.028817         0.7841 
  25   0.0000       0.028823         0.7843 
  26   0.0000       0.028827         0.7844 
  27   0.0000       0.321892         8.7591 
  28   0.0000       0.321907         8.7595 
  29   0.0000       0.321951         8.7607 
  30   0.0000       0.463760        12.6196 
  31   0.0000       0.463761        12.6196 
  32   0.0000       0.463792        12.6204 
  33   0.0000       0.463803        12.6207 
  34   0.0000       0.463810        12.6209 
  35   0.0000       1.468680        39.9648 
  36   0.0000       1.468680        39.9648 
  37   0.0000       1.468714        39.9657 
  38   0.0000       1.468716        39.9658 
  39   0.0000       1.468731        39.9662 
  40   0.0000       1.468743        39.9665 
  41   0.0000       1.468746        39.9666 
  42   0.0000       1.754757        47.7494 
  43   0.0000       1.754769        47.7497 
  44   0.0000       1.754804        47.7506 
  45   0.0000       1.914362        52.0924 
  46   0.0000       2.067065        56.2477 
  47   0.0000       2.067065        56.2477 
  48   0.0000       2.067080        56.2481 
  49   0.0000       2.067085        56.2482 
  50   0.0000       2.067088        56.2483 
  51   0.0000       5.574208       151.6819 
  52   0.0000       5.574208       151.6819 
  53   0.0000       5.574229       151.6825 
  54   0.0000       5.574229       151.6825 
  55   0.0000       5.574242       151.6828 
  56   0.0000       5.574244       151.6829 
  57   0.0000       5.574249       151.6830 
  58   0.0000       5.574257       151.6833 
  59   0.0000       5.574258       151.6833 
  60   0.0000       6.247107       169.9924 
  61   0.0000       6.247107       169.9924 
  62   0.0000       6.247110       169.9925 
  63   0.0000       6.247113       169.9926 
  64   0.0000       6.247113       169.9926 
  65   0.0000       6.247119       169.9927 
  66   0.0000       6.247119       169.9927 

                    ********************************
                    * MULLIKEN POPULATION ANALYSIS *
                    ********************************

--------------------------------------------
MULLIKEN ATOMIC CHARGES AND SPIN POPULATIONS
--------------------------------------------
   0 Cr:    1.000000    5.000000
Sum of atomic charges         :    1.0000000
Sum of atomic spin populations:    5.0000000

-----------------------------------------------------
MULLIKEN REDUCED ORBITAL CHARGES AND SPIN POPULATIONS
-----------------------------------------------------
CHARGE
  0 Crs       :     6.000002  s :     6.000002
      pz      :     4.000000  p :    12.000000
      px      :     4.000000
      py      :     4.000000
      dz2     :     0.999999  d :     4.999998
      dxz     :     1.000000
      dyz     :     1.000000
      dx2y2   :     1.000000
      dxy     :     1.000000
      f0      :     0.000000  f :     0.000000
      f+1     :     0.000000
      f-1     :     0.000000
      f+2     :     0.000000
      f-2     :     0.000000
      f+3     :     0.000000
      f-3     :     0.000000
      g0      :     0.000000  g :     0.000000
      g+1     :     0.000000
      g-1     :     0.000000
      g+2     :     0.000000
      g-2     :     0.000000
      g+3     :     0.000000
      g-3     :     0.000000
      g+4     :     0.000000
      g-4     :     0.000000

SPIN
  0 Crs       :     0.000002  s :     0.000002
      pz      :     0.000000  p :     0.000000
      px      :     0.000000
      py      :     0.000000
      dz2     :     0.999999  d :     4.999998
      dxz     :     1.000000
      dyz     :     1.000000
      dx2y2   :     1.000000
      dxy     :     1.000000
      f0      :    -0.000000  f :    -0.000000
      f+1     :    -0.000000
      f-1     :    -0.000000
      f+2     :    -0.000000
      f-2     :    -0.000000
      f+3     :    -0.000000
      f-3     :    -0.000000
      g0      :     0.000000  g :     0.000000
      g+1     :     0.000000
      g-1     :     0.000000
      g+2     :     0.000000
      g-2     :     0.000000
      g+3     :     0.000000
      g-3     :     0.000000
      g+4     :     0.000000
      g-4     :     0.000000


                     *******************************
                     * LOEWDIN POPULATION ANALYSIS *
                     *******************************

-------------------------------------------
LOEWDIN ATOMIC CHARGES AND SPIN POPULATIONS
-------------------------------------------
   0 Cr:    1.000000    5.000000

----------------------------------------------------
LOEWDIN REDUCED ORBITAL CHARGES AND SPIN POPULATIONS
----------------------------------------------------
CHARGE
  0 Crs       :     6.000002  s :     6.000002
      pz      :     4.000000  p :    12.000000
      px      :     4.000000
      py      :     4.000000
      dz2     :     0.999999  d :     4.999998
      dxz     :     1.000000
      dyz     :     1.000000
      dx2y2   :     1.000000
      dxy     :     1.000000
      f0      :     0.000000  f :     0.000000
      f+1     :     0.000000
      f-1     :     0.000000
      f+2     :     0.000000
      f-2     :     0.000000
      f+3     :     0.000000
      f-3     :     0.000000
      g0      :     0.000000  g :     0.000000
      g+1     :     0.000000
      g-1     :     0.000000
      g+2     :     0.000000
      g-2     :     0.000000
      g+3     :     0.000000
      g-3     :     0.000000
      g+4     :     0.000000
      g-4     :     0.000000

SPIN
  0 Crs       :     0.000002  s :     0.000002
      pz      :     0.000000  p :     0.000000
      px      :     0.000000
      py      :     0.000000
      dz2     :     0.999999  d :     4.999998
      dxz     :     1.000000
      dyz     :     1.000000
      dx2y2   :     1.000000
      dxy     :     1.000000
      f0      :    -0.000000  f :    -0.000000
      f+1     :    -0.000000
      f-1     :    -0.000000
      f+2     :    -0.000000
      f-2     :    -0.000000
      f+3     :    -0.000000
      f-3     :    -0.000000
      g0      :     0.000000  g :     0.000000
      g+1     :     0.000000
      g-1     :     0.000000
      g+2     :     0.000000
      g-2     :     0.000000
      g+3     :     0.000000
      g-3     :     0.000000
      g+4     :     0.000000
      g-4     :     0.000000


                      *****************************
                      * MAYER POPULATION ANALYSIS *
                      *****************************

  NA   - Mulliken gross atomic population
  ZA   - Total nuclear charge
  QA   - Mulliken gross atomic charge
  VA   - Mayer's total valence
  BVA  - Mayer's bonded valence
  FA   - Mayer's free valence

  ATOM       NA         ZA         QA         VA         BVA        FA
  0 Cr    23.0000    24.0000     1.0000     5.0004     0.0000     5.0004

  Mayer bond orders larger than 0.100000


-------
TIMINGS
-------

Total SCF time: 0 days 0 hours 0 min 14 sec 

Total time                  ....      14.008 sec
Sum of individual times     ....      13.308 sec  ( 95.0%)

Fock matrix formation       ....      12.554 sec  ( 89.6%)
  XC integration            ....       7.516 sec  ( 59.9% of F)
    Basis function eval.    ....       0.014 sec  (  0.2% of XC)
    Density eval.           ....       0.021 sec  (  0.3% of XC)
    XC-Functional eval.     ....       0.028 sec  (  0.4% of XC)
    XC-Potential eval.      ....       0.024 sec  (  0.3% of XC)
Diagonalization             ....       0.178 sec  (  1.3%)
Density matrix formation    ....       0.006 sec  (  0.0%)
Population analysis         ....       0.075 sec  (  0.5%)
Initial guess               ....       0.122 sec  (  0.9%)
Orbital Transformation      ....       0.000 sec  (  0.0%)
Orbital Orthonormalization  ....       0.000 sec  (  0.0%)
DIIS solution               ....       0.204 sec  (  1.5%)
Grid generation             ....       0.168 sec  (  1.2%)

-------------------------   --------------------
FINAL SINGLE POINT ENERGY     -1044.034597545556
-------------------------   --------------------


----------------------------------------------------------------------------
                           ORCA NUMERICAL GRADIENT
                              (28-process run)
----------------------------------------------------------------------------

I state                        ... 1
J state                        ... 0
Number of atoms                ... 1
Derivative's order of accuracy ... 2
Central differences            ... used
Number of displacements        ... 6
Numerical increment            ... 5.000e-03 bohr
Translation invariance         ... used

The output will be reduced. Please look at the following files:
SCF program output             ... >Cr+.lastscf
Integral program output        ... >Cr+.lastint
Gradient program output        ... >Cr+.lastgrad


     Note:   There are more processes than displacements to do
     ===>:   Reducing number of processes to   0


------------------------------
CARTESIAN GRADIENT (NUMERICAL)
-------------------------------
   1   Cr  :    0.000000000    0.000000000    0.000000000

Norm of the cartesian gradient     ...    0.000000000
RMS gradient                       ...    0.000000000
MAX gradient                       ...    0.000000000
*** glibc detected *** /mnt/storage/software/apps/orca-4.2.0/orca_4_2_0_linux_x86-64_openmpi314/orca: free(): invalid next size (fast): 0x000000000e9a4e60 ***
======= Backtrace: =========
[0xb0928aa]
[0xb09567c]
[0x76d903]
[0x76fb95]
[0x915b4f]
[0x918f24]
[0x487649]
[0xb05c99e]
[0x4870d9]
======= Memory map: ========
00400000-0bf42000 r-xp 00000000 00:2b 4876154                            /mnt/storage/software/apps/orca-4.2.0/orca_4_2_0_linux_x86-64_openmpi314/orca
0c141000-0c203000 rw-p 0bb41000 00:2b 4876154                            /mnt/storage/software/apps/orca-4.2.0/orca_4_2_0_linux_x86-64_openmpi314/orca
0c203000-0c77a000 rw-p 00000000 00:00 0 
0e761000-0e9d0000 rw-p 00000000 00:00 0                                  [heap]
2ace437dd000-2ace43fde000 rw-p 00000000 00:00 0 
2ace447dd000-2ace46ea0000 rw-p 00000000 00:00 0 
2ace48000000-2ace480b3000 rw-p 00000000 00:00 0 
2ace480b3000-2ace4c000000 ---p 00000000 00:00 0 
7ffe96048000-7ffe9614a000 rw-p 00000000 00:00 0                          [stack]
7ffe961fc000-7ffe961fe000 r-xp 00000000 00:00 0                          [vdso]
ffffffffff600000-ffffffffff601000 r-xp 00000000 00:00 0                  [vsyscall]
