
                                 *****************
                                 * O   R   C   A *
                                 *****************

           --- An Ab Initio, DFT and Semiempirical electronic structure package ---

                  #######################################################
                  #                        -***-                        #
                  #          Department of theory and spectroscopy      #
                  #               Directorship: Frank Neese             #
                  #        Max Planck Institute fuer Kohlenforschung    #
                  #                Kaiser Wilhelm Platz 1               #
                  #                 D-45470 Muelheim/Ruhr               #
                  #                      Germany                        #
                  #                                                     #
                  #                  All rights reserved                #
                  #                        -***-                        #
                  #######################################################


                         Program Version 4.2.0 -  RELEASE  -


 With contributions from (in alphabetic order):
   Daniel Aravena         : Magnetic Suceptibility
   Michael Atanasov       : Ab Initio Ligand Field Theory (pilot matlab implementation)
   Alexander A. Auer      : GIAO ZORA, VPT2
   Ute Becker             : Parallelization
   Giovanni Bistoni       : ED, misc. LED, open-shell LED, HFLED
   Martin Brehm           : Molecular dynamics
   Dmytro Bykov           : SCF Hessian
   Vijay G. Chilkuri      : MRCI spin determinant printing, contributions to CSF-ICE
   Dipayan Datta          : RHF DLPNO-CCSD density
   Achintya Kumar Dutta   : EOM-CC, STEOM-CC
   Dmitry Ganyushin       : Spin-Orbit,Spin-Spin,Magnetic field MRCI
   Miquel Garcia          : C-PCM Hessian, Gaussian charge scheme
   Yang Guo               : DLPNO-NEVPT2, CIM, IAO-localization
   Andreas Hansen         : Spin unrestricted coupled pair/coupled cluster methods
   Benjamin Helmich-Paris : CASSCF linear response (MC-RPA)
   Lee Huntington         : MR-EOM, pCC
   Robert Izsak           : Overlap fitted RIJCOSX, COSX-SCS-MP3, EOM
   Christian Kollmar      : KDIIS, OOCD, Brueckner-CCSD(T), CCSD density
   Simone Kossmann        : Meta GGA functionals, TD-DFT gradient, OOMP2, MP2 Hessian
   Martin Krupicka        : AUTO-CI
   Lucas Lang             : DCDCAS
   Dagmar Lenk            : GEPOL surface, SMD
   Dimitrios Liakos       : Extrapolation schemes; Compound Job, initial MDCI parallelization
   Dimitrios Manganas     : Further ROCIS development; embedding schemes
   Dimitrios Pantazis     : SARC Basis sets
   Taras Petrenko         : DFT Hessian,TD-DFT gradient, ASA, ECA, R-Raman, ABS, FL, XAS/XES, NRVS
   Peter Pinski           : DLPNO-MP2, DLPNO-MP2 Gradient
   Christoph Reimann      : Effective Core Potentials
   Marius Retegan         : Local ZFS, SOC
   Christoph Riplinger    : Optimizer, TS searches, QM/MM, DLPNO-CCSD(T), (RO)-DLPNO pert. Triples
   Tobias Risthaus        : Range-separated hybrids, TD-DFT gradient, RPA, STAB
   Michael Roemelt        : Original ROCIS implementation
   Masaaki Saitow         : Open-shell DLPNO-CCSD energy and density
   Barbara Sandhoefer     : DKH picture change effects
   Avijit Sen             : IP-ROCIS
   Kantharuban Sivalingam : CASSCF convergence, NEVPT2, FIC-MRCI
   Bernardo de Souza      : ESD, SOC TD-DFT
   Georgi Stoychev        : AutoAux, RI-MP2 NMR
   Willem Van den Heuvel  : Paramagnetic NMR
   Boris Wezisla          : Elementary symmetry handling
   Frank Wennmohs         : Technical directorship


 We gratefully acknowledge several colleagues who have allowed us to
 interface, adapt or use parts of their codes:
   Stefan Grimme, W. Hujo, H. Kruse,             : VdW corrections, initial TS optimization,
                  C. Bannwarth                     DFT functionals, gCP, sTDA/sTD-DF
   Ed Valeev, F. Pavosevic, A. Kumar             : LibInt (2-el integral package), F12 methods
   Garnet Chan, S. Sharma, J. Yang, R. Olivares  : DMRG
   Ulf Ekstrom                                   : XCFun DFT Library
   Mihaly Kallay                                 : mrcc  (arbitrary order and MRCC methods)
   Andreas Klamt, Michael Diedenhofen            : otool_cosmo (COSMO solvation model)
   Jiri Pittner, Ondrej Demel                    : Mk-CCSD
   Frank Weinhold                                : gennbo (NPA and NBO analysis)
   Christopher J. Cramer and Donald G. Truhlar   : smd solvation model
   Lars Goerigk                                  : TD-DFT with DH, B97 family of functionals
   V. Asgeirsson, H. Jonsson                     : NEB implementation
   FAccTs GmbH                                   : IRC, NEB, NEB-TS, Multilevel, MM, QM/MM, CI optimization
   S Lehtola, MJT Oliveira, MAL Marques          : LibXC Library


 Your calculation uses the libint2 library for the computation of 2-el integrals
 For citations please refer to: http://libint.valeyev.net

 Your ORCA version has been built with support for libXC version: 4.2.3
 For citations please refer to: https://tddft.org/programs/libxc/

 This ORCA versions uses:
   CBLAS   interface :  Fast vector & matrix operations
   LAPACKE interface :  Fast linear algebra routines
   SCALAPACK package :  Parallel linear algebra routines


Your calculation utilizes the DFT-NL dispersion correction.
Cite in your paper:
Vydrov, O. A.; Van Voorhis, T. J. Chem. Phys. 2010, 133, 244103
Hujo, W.; Grimme, S. J. Chem. Theory Comput. 2011, 7, 3866 
   

----- Orbital basis set information -----
Your calculation utilizes the basis: def2-TZVPPD
   F. Weigend and R. Ahlrichs, Phys. Chem. Chem. Phys. 7, 3297 (2005).
   D. Rappoport and F. Furche, J. Chem. Phys. 133 134105 (2010).

----- AuxJK basis set information -----
Your calculation utilizes the auxiliary basis: def2/JK
   H-Ba, Hf-Rn: F. Weigend, J. Comput. Chem. 29, 167 (2008).

================================================================================
                                        WARNINGS
                       Please study these warnings very carefully!
================================================================================

INFO   : Found keyword 'NumGrad' for Energy calculation
  ===> : Setting RunTyp to EnGrad

WARNING: Numerical Gradient with sloppy Convergence Criteria    
         Your results may be not reliable!                      
         Please choose at least TightSCF!                       

INFO   : the flag for use of LIBINT has been found!

================================================================================
                                       INPUT FILE
================================================================================
NAME = Cu2.in
|  1> #
|  2> # Cu2 wB97X-V/Def2-TZVPPD
|  3> #
|  4> ! wb97x-v def2-tzvppd def2/jk grid4 nofinalgrid numgrad
|  5> 
|  6> *xyz 0 1
|  7> Cu         0.00000        0.00000        0.00000
|  8> Cu         0.00000        0.00000        2.22000
|  9> *
| 10> 
| 11> %maxcore 5000
| 12> 
| 13> %pal
| 14> nprocs = 28
| 15> end
| 16> 
| 17> 
| 18>                          ****END OF INPUT****
================================================================================

                     *******************************
                     * Energy+Gradient Calculation *
                     *******************************

---------------------------------
CARTESIAN COORDINATES (ANGSTROEM)
---------------------------------
  Cu     0.000000    0.000000    0.000000
  Cu     0.000000    0.000000    2.220000

----------------------------
CARTESIAN COORDINATES (A.U.)
----------------------------
  NO LB      ZA    FRAG     MASS         X           Y           Z
   0 Cu   29.0000    0    63.550    0.000000    0.000000    0.000000
   1 Cu   29.0000    0    63.550    0.000000    0.000000    4.195192

--------------------------------
INTERNAL COORDINATES (ANGSTROEM)
--------------------------------
 Cu     0   0   0     0.000000000000     0.00000000     0.00000000
 Cu     1   0   0     2.220000000000     0.00000000     0.00000000

---------------------------
INTERNAL COORDINATES (A.U.)
---------------------------
 Cu     0   0   0     0.000000000000     0.00000000     0.00000000
 Cu     1   0   0     4.195192017305     0.00000000     0.00000000

---------------------
BASIS SET INFORMATION
---------------------
There are 1 groups of distinct atoms

 Group   1 Type Cu  : 17s13p7d2f1g contracted to 6s6p4d2f1g pattern {842111/631111/4111/11/1}

Atom   0Cu   basis set group =>   1
Atom   1Cu   basis set group =>   1
----------------------------------
AUXILIARY/JK BASIS SET INFORMATION
----------------------------------
There are 1 groups of distinct atoms

 Group   1 Type Cu  : 19s14p12d10f7g3h1i contracted to 16s13p11d9f5g3h1i pattern {4111111111111111/2111111111111/21111111111/211111111/31111/111/1}

Atom   0Cu   basis set group =>   1
Atom   1Cu   basis set group =>   1


           ************************************************************
           *        Program running with 28 parallel MPI-processes    *
           *              working on a common directory               *
           ************************************************************
------------------------------------------------------------------------------
                           ORCA GTO INTEGRAL CALCULATION
------------------------------------------------------------------------------

                         BASIS SET STATISTICS AND STARTUP INFO

 # of primitive gaussian shells          ...   80
 # of primitive gaussian functions       ...  228
 # of contracted shells                  ...   38
 # of contracted basis functions         ...  134
 Highest angular momentum                ...    4
 Maximum contraction depth               ...    8
 Integral package used                   ... LIBINT
 Integral threshhold            Thresh   ...  1.000e-10
 Primitive cut-off              TCut     ...  1.000e-11


------------------------------ INTEGRAL EVALUATION ----------------------------


 * One electron integrals 
 Pre-screening matrix                    ... done
 Shell pair data                         ... done (   0.000 sec)



           ************************************************************
           *        Program running with 28 parallel MPI-processes    *
           *              working on a common directory               *
           ************************************************************
-------------------------------------------------------------------------------
                                 ORCA SCF
-------------------------------------------------------------------------------

------------
SCF SETTINGS
------------
Hamiltonian:
 Density Functional     Method          .... DFT(GTOs)
 Exchange Functional    Exchange        .... WB97X-V
 Correlation Functional Correlation     .... WB97X-V
 Gradients option       PostSCFGGA      .... off
 Hybrid DFT is turned on
   Fraction HF Exchange ScalHFX         ....  0.167000
   Scaling of DF-GGA-X  ScalDFX         ....  0.000000
   Scaling of DF-GGA-C  ScalDFC         ....  1.000000
   Scaling of DF-LDA-C  ScalLDAC        ....  1.000000
   Perturbative correction              ....  0.000000
   Density functional embedding theory  .... OFF
 Long-range corrected/Screened/Range-Separated Hybrid DFT is turned on
   Amount of maximum screened exact exchange              ....  0.833000
   Range separation parameter mu (erf(mu*r12)/r12)        ....  0.300000
   NL short-range parameter             ....  6.000000
   NL long-range parameter              ....  0.010000


General Settings:
 Integral files         IntName         .... Cu2
 Hartree-Fock type      HFTyp           .... RHF
 Total Charge           Charge          ....    0
 Multiplicity           Mult            ....    1
 Number of Electrons    NEL             ....   58
 Basis Dimension        Dim             ....  134
 Nuclear Repulsion      ENuc            ....    200.4675820632 Eh

Convergence Acceleration:
 DIIS                   CNVDIIS         .... on
   Start iteration      DIISMaxIt       ....    12
   Startup error        DIISStart       ....  0.200000
   # of expansion vecs  DIISMaxEq       ....     5
   Bias factor          DIISBfac        ....   1.050
   Max. coefficient     DIISMaxC        ....  10.000
 Newton-Raphson         CNVNR           .... off
 SOSCF                  CNVSOSCF        .... off
 Level Shifting         CNVShift        .... on
   Level shift para.    LevelShift      ....    0.2500
   Turn off err/grad.   ShiftErr        ....    0.0010
 Zerner damping         CNVZerner       .... off
 Static damping         CNVDamp         .... on
   Fraction old density DampFac         ....    0.7000
   Max. Damping (<1)    DampMax         ....    0.9800
   Min. Damping (>=0)   DampMin         ....    0.0000
   Turn off err/grad.   DampErr         ....    0.1000
 Fernandez-Rico         CNVRico         .... off

SCF Procedure:
 Maximum # iterations   MaxIter         ....   125
 SCF integral mode      SCFMode         .... Direct
   Integral package                     .... LIBINT
 Reset frequency        DirectResetFreq ....    20
 Integral Threshold     Thresh          ....  1.000e-10 Eh
 Primitive CutOff       TCut            ....  1.000e-11 Eh

Convergence Tolerance:
 Convergence Check Mode ConvCheckMode   .... Total+1el-Energy
 Convergence forced     ConvForced      .... 0
 Energy Change          TolE            ....  1.000e-06 Eh
 1-El. energy change                    ....  1.000e-03 Eh
 DIIS Error             TolErr          ....  1.000e-06


Diagonalization of the overlap matrix:
Smallest eigenvalue                        ... 7.789e-04
Time for diagonalization                   ...    0.003 sec
Threshold for overlap eigenvalues          ... 1.000e-08
Number of eigenvalues below threshold      ... 0
Time for construction of square roots      ...    0.064 sec
Total time needed                          ...    0.067 sec

-------------------
DFT GRID GENERATION
-------------------

General Integration Accuracy     IntAcc      ...  4.670
Radial Grid Type                 RadialGrid  ... Gauss-Chebyshev
Angular Grid (max. acc.)         AngularGrid ... Lebedev-302
Angular grid pruning method      GridPruning ... 3 (G Style)
Weight generation scheme         WeightScheme... Becke
Basis function cutoff            BFCut       ...    1.0000e-10
Integration weight cutoff        WCut        ...    1.0000e-14
Grids for H and He will be reduced by one unit

# of grid points (after initial pruning)     ...  19112 (   0.0 sec)
# of grid points (after weights+screening)   ...  19084 (   0.0 sec)
nearest neighbour list constructed           ...    0.0 sec
Grid point re-assignment to atoms done       ...    0.0 sec
Grid point division into batches done        ...    0.1 sec
Reduced shell lists constructed in    0.2 sec

Total number of grid points                  ...    19084
Total number of batches                      ...      300
Average number of points per batch           ...       63
Average number of grid points per atom       ...     9542
Average number of shells per batch           ...     7.17 (18.86%)
Average number of basis functions per batch  ...    20.00 (14.93%)
Average number of large shells per batch     ...     5.50 (76.74%)
Average number of large basis fcns per batch ...    15.83 (79.17%)
Maximum spatial batch extension              ...  22.17, 22.17, 16.37 au
Average spatial batch extension              ...   0.65,  0.64,  0.49 au

Time for grid setup =    0.810 sec

------------------------------
INITIAL GUESS: MODEL POTENTIAL
------------------------------
Loading Hartree-Fock densities                     ... done
Calculating cut-offs                               ... done
Setting up the integral package                    ... done
Initializing the effective Hamiltonian             ... done
Starting the Coulomb interaction                   ... done (   0.0 sec)
Reading the grid                                   ... done
Mapping shells                                     ... done
Starting the XC term evaluation                    ... done (   0.0 sec)
  promolecular density results
     # of electrons  =     58.000033924
     EX              =   -100.725168706
     EC              =     -3.587745448
     EX+EC           =   -104.312914153
Transforming the Hamiltonian                       ... done (   0.0 sec)
Diagonalizing the Hamiltonian                      ... done (   0.0 sec)
Back transforming the eigenvectors                 ... done (   0.0 sec)
Now organizing SCF variables                       ... done
                      ------------------
                      INITIAL GUESS DONE (   1.1 sec)
                      ------------------
--------------
SCF ITERATIONS
--------------
ITER       Energy         Delta-E        Max-DP      RMS-DP      [F,P]     Damp
               ***  Starting incremental Fock matrix formation  ***
  0  -3277.1536139925   0.000000000000 0.29305023  0.00761269  1.4904301 0.7000
  1  -3279.1420400722  -1.988426079673 0.17835031  0.00367024  0.3999178 0.7000
  2  -3279.7101391236  -0.568099051428 0.10261424  0.00216723  0.2344586 0.7000
  3  -3280.0611356473  -0.350996523705 0.04699507  0.00163456  0.2267814 0.7000
                               ***Turning on DIIS***
  4  -3280.3194665135  -0.258330866152 0.04050530  0.00119723  0.1511864 0.7000
  5  -3280.5035743407  -0.184107827176 0.14858255  0.00311729  0.0921363 0.0000
  6  -3280.9486317778  -0.445057437144 0.06250298  0.00112293  0.0270117 0.0000
  7  -3280.9500052318  -0.001373454020 0.01374285  0.00032892  0.0386839 0.0000
  8  -3280.9527700974  -0.002764865579 0.01792865  0.00029186  0.0067515 0.0000
  9  -3280.9532941519  -0.000524054526 0.01329486  0.00022020  0.0050502 0.0000
 10  -3280.9535735385  -0.000279386628 0.00798905  0.00015700  0.0034862 0.0000
 11  -3280.9537364116  -0.000162873067 0.00516205  0.00011671  0.0023010 0.0000
 12  -3280.9538074510  -0.000071039372 0.00400780  0.00008804  0.0015195 0.0000
 13  -3280.9538418097  -0.000034358673 0.00535211  0.00012508  0.0009610 0.0000
 14  -3280.9538639472  -0.000022137496 0.00059462  0.00001460  0.0002070 0.0000
 15  -3280.9538644706  -0.000000523454 0.00023901  0.00000633  0.0000726 0.0000
                 **** Energy Check signals convergence ****

               *****************************************************
               *                     SUCCESS                       *
               *           SCF CONVERGED AFTER  16 CYCLES          *
               *****************************************************


Setting up the DFT-NL grid :

General Integration Accuracy     IntAcc      ...  4.340
Radial Grid Type                 RadialGrid  ... Gauss-Chebyshev
Angular Grid (max. acc.)         AngularGrid ... Lebedev-110
Angular grid pruning method      GridPruning ... 3 (G Style)
Weight generation scheme         WeightScheme... Becke
Basis function cutoff            BFCut       ...    1.0000e-10
Integration weight cutoff        WCut        ...    1.0000e-14
Grids for H and He will be reduced by one unit

# of grid points (after initial pruning)     ...   5824 (   0.0 sec)
# of grid points (after weights+screening)   ...   5798 (   0.0 sec)
nearest neighbour list constructed           ...    0.0 sec
Grid point re-assignment to atoms done       ...    0.0 sec
Grid point division into batches done        ...    0.0 sec
Reduced shell lists constructed in    0.0 sec

Total number of grid points                  ...     5798
Total number of batches                      ...       92
Average number of points per batch           ...       63
Average number of grid points per atom       ...     2899
Average number of shells per batch           ...    11.20 (29.47%)
Average number of basis functions per batch  ...    33.60 (25.07%)
Average number of large shells per batch     ...     9.60 (85.71%)
Average number of large basis fcns per batch ...    27.20 (80.95%)
Maximum spatial batch extension              ...  17.23, 26.34, 14.81 au
Average spatial batch extension              ...   0.69,  0.95,  0.64 au

Final grid set up in    1.7 sec

-------------------------------------------------------------------------------
                         DFT-NL dispersion correction                          
-------------------------------------------------------------------------------

SC Energy -3280.953864534 
NL    Energy 0.244930882 
SC+NL Energy -3280.708933653 
NL done in    0.9 sec
-------------------------------------------------------------------------------

----------------
TOTAL SCF ENERGY
----------------

Total Energy       :        -3280.70893365 Eh          -89272.62862 eV

Components:
Nuclear Repulsion  :          200.46758206 Eh            5455.00023 eV
Electronic Energy  :        -3481.17651572 Eh          -94727.62885 eV
One Electron Energy:        -4977.09608486 Eh         -135433.66978 eV
Two Electron Energy:         1495.91956914 Eh           40706.04093 eV

Virial components:
Potential Energy   :        -6556.82995443 Eh         -178420.41378 eV
Kinetic Energy     :         3276.12102077 Eh           89147.78516 eV
Virial Ratio       :            2.00140041


DFT components:
N(Alpha)           :       29.000000916999 electrons
N(Beta)            :       29.000000916999 electrons
N(Total)           :       58.000001833999 electrons
E(X)               :     -100.929974014003 Eh       
E(C)               :       -3.609576538505 Eh       
NL Energy, E(C,NL) :        0.244930881502 Eh       
E(XC)              :     -104.294619671005 Eh       
DFET-embed. en.    :        0.000000000000 Eh       

---------------
SCF CONVERGENCE
---------------

  Last Energy change         ...   -6.3797e-08  Tolerance :   1.0000e-06
  Last MAX-Density change    ...    3.1289e-05  Tolerance :   1.0000e-05
  Last RMS-Density change    ...    7.8358e-07  Tolerance :   1.0000e-06
  Last DIIS Error            ...    2.5807e-05  Tolerance :   1.0000e-06

             **** THE GBW FILE WAS UPDATED (Cu2.gbw) ****
             **** DENSITY FILE WAS UPDATED (Cu2.scfp) ****
             **** ENERGY FILE WAS UPDATED (Cu2.en.tmp) ****
             **** THE GBW FILE WAS UPDATED (Cu2.gbw) ****
             **** DENSITY FILE WAS UPDATED (Cu2.scfp) ****
----------------
ORBITAL ENERGIES
----------------

  NO   OCC          E(Eh)            E(eV) 
   0   2.0000    -322.836405     -8784.8252 
   1   2.0000    -322.836397     -8784.8250 
   2   2.0000     -38.816808     -1056.2591 
   3   2.0000     -38.816762     -1056.2578 
   4   2.0000     -34.014102      -925.5708 
   5   2.0000     -34.014095      -925.5706 
   6   2.0000     -34.013505      -925.5545 
   7   2.0000     -34.013505      -925.5545 
   8   2.0000     -34.013498      -925.5543 
   9   2.0000     -34.013498      -925.5543 
  10   2.0000      -4.368159      -118.8636 
  11   2.0000      -4.367489      -118.8454 
  12   2.0000      -2.867744       -78.0353 
  13   2.0000      -2.862043       -77.8802 
  14   2.0000      -2.861546       -77.8666 
  15   2.0000      -2.861546       -77.8666 
  16   2.0000      -2.861087       -77.8541 
  17   2.0000      -2.861087       -77.8541 
  18   2.0000      -0.391037       -10.6406 
  19   2.0000      -0.378063       -10.2876 
  20   2.0000      -0.378063       -10.2876 
  21   2.0000      -0.359157        -9.7732 
  22   2.0000      -0.359151        -9.7730 
  23   2.0000      -0.350796        -9.5456 
  24   2.0000      -0.350790        -9.5455 
  25   2.0000      -0.339265        -9.2319 
  26   2.0000      -0.339265        -9.2319 
  27   2.0000      -0.335438        -9.1277 
  28   2.0000      -0.280047        -7.6205 
  29   0.0000      -0.015471        -0.4210 
  30   0.0000       0.033520         0.9121 
  31   0.0000       0.033520         0.9121 
  32   0.0000       0.055627         1.5137 
  33   0.0000       0.084452         2.2981 
  34   0.0000       0.088440         2.4066 
  35   0.0000       0.088440         2.4066 
  36   0.0000       0.162453         4.4206 
  37   0.0000       0.181056         4.9268 
  38   0.0000       0.181056         4.9268 
  39   0.0000       0.189812         5.1650 
  40   0.0000       0.238938         6.5018 
  41   0.0000       0.239233         6.5099 
  42   0.0000       0.239234         6.5099 
  43   0.0000       0.242661         6.6031 
  44   0.0000       0.242661         6.6031 
  45   0.0000       0.292433         7.9575 
  46   0.0000       0.299892         8.1605 
  47   0.0000       0.299892         8.1605 
  48   0.0000       0.310933         8.4609 
  49   0.0000       0.310933         8.4609 
  50   0.0000       0.391991        10.6666 
  51   0.0000       0.407643        11.0925 
  52   0.0000       0.407643        11.0925 
  53   0.0000       0.597385        16.2557 
  54   0.0000       0.734664        19.9912 
  55   0.0000       0.753386        20.5007 
  56   0.0000       0.753386        20.5007 
  57   0.0000       0.833143        22.6710 
  58   0.0000       0.833143        22.6710 
  59   0.0000       0.886028        24.1100 
  60   0.0000       0.948718        25.8159 
  61   0.0000       0.948718        25.8159 
  62   0.0000       0.980247        26.6739 
  63   0.0000       0.980249        26.6739 
  64   0.0000       1.062040        28.8996 
  65   0.0000       1.062042        28.8996 
  66   0.0000       1.091186        29.6927 
  67   0.0000       1.211232        32.9593 
  68   0.0000       1.211232        32.9593 
  69   0.0000       1.429672        38.9033 
  70   0.0000       3.084719        83.9395 
  71   0.0000       3.116297        84.7987 
  72   0.0000       3.116297        84.7987 
  73   0.0000       3.182658        86.6045 
  74   0.0000       3.202521        87.1450 
  75   0.0000       3.202521        87.1450 
  76   0.0000       3.259474        88.6948 
  77   0.0000       3.536413        96.2307 
  78   0.0000       3.536413        96.2307 
  79   0.0000       3.539125        96.3045 
  80   0.0000       3.553874        96.7058 
  81   0.0000       3.561041        96.9009 
  82   0.0000       3.561053        96.9012 
  83   0.0000       3.573049        97.2276 
  84   0.0000       3.573049        97.2276 
  85   0.0000       3.573613        97.2429 
  86   0.0000       3.573613        97.2429 
  87   0.0000       3.576059        97.3095 
  88   0.0000       3.576073        97.3099 
  89   0.0000       3.597204        97.8849 
  90   0.0000       3.597204        97.8849 
  91   0.0000       3.744668       101.8976 
  92   0.0000       3.796881       103.3184 
  93   0.0000       3.796920       103.3195 
  94   0.0000       3.839923       104.4896 
  95   0.0000       3.839961       104.4906 
  96   0.0000       3.866611       105.2158 
  97   0.0000       3.866611       105.2158 
  98   0.0000       3.935819       107.0991 
  99   0.0000       3.935819       107.0991 
 100   0.0000       4.135742       112.5393 
 101   0.0000       4.227618       115.0393 
 102   0.0000      13.098051       356.4161 
 103   0.0000      13.098128       356.4182 
 104   0.0000      13.098128       356.4182 
 105   0.0000      13.098704       356.4339 
 106   0.0000      13.098704       356.4339 
 107   0.0000      13.098771       356.4357 
 108   0.0000      13.098798       356.4364 
 109   0.0000      13.099355       356.4516 
 110   0.0000      13.099383       356.4523 
 111   0.0000      13.100060       356.4707 
 112   0.0000      13.100723       356.4888 
 113   0.0000      13.100723       356.4888 
 114   0.0000      13.100729       356.4890 
 115   0.0000      13.100729       356.4890 
 116   0.0000      13.102501       356.5372 
 117   0.0000      13.102502       356.5372 
 118   0.0000      13.102711       356.5429 
 119   0.0000      13.102712       356.5429 
 120   0.0000      13.266206       360.9918 
 121   0.0000      13.271827       361.1448 
 122   0.0000      13.271827       361.1448 
 123   0.0000      13.275022       361.2317 
 124   0.0000      13.275262       361.2382 
 125   0.0000      13.277608       361.3021 
 126   0.0000      13.277608       361.3021 
 127   0.0000      13.277772       361.3066 
 128   0.0000      13.277772       361.3066 
 129   0.0000      13.278556       361.3279 
 130   0.0000      13.278794       361.3343 
 131   0.0000      13.302808       361.9878 
 132   0.0000      13.302808       361.9878 
 133   0.0000      13.423293       365.2664 

                    ********************************
                    * MULLIKEN POPULATION ANALYSIS *
                    ********************************

-----------------------
MULLIKEN ATOMIC CHARGES
-----------------------
   0 Cu:   -0.000000
   1 Cu:    0.000000
Sum of atomic charges:    0.0000000

--------------------------------
MULLIKEN REDUCED ORBITAL CHARGES
--------------------------------
  0 Cus       :     6.977355  s :     6.977355
      pz      :     4.048070  p :    12.062008
      px      :     4.006969
      py      :     4.006969
      dz2     :     1.974476  d :     9.960380
      dxz     :     1.992972
      dyz     :     1.992972
      dx2y2   :     1.999980
      dxy     :     1.999980
      f0      :     0.000099  f :     0.000257
      f+1     :     0.000059
      f-1     :     0.000059
      f+2     :     0.000020
      f-2     :     0.000020
      f+3     :     0.000000
      f-3     :     0.000000
      g0      :     0.000000  g :     0.000001
      g+1     :     0.000000
      g-1     :     0.000000
      g+2     :     0.000000
      g-2     :     0.000000
      g+3     :     0.000000
      g-3     :     0.000000
      g+4     :     0.000000
      g-4     :     0.000000
  1 Cus       :     6.977354  s :     6.977354
      pz      :     4.048071  p :    12.062008
      px      :     4.006969
      py      :     4.006969
      dz2     :     1.974476  d :     9.960380
      dxz     :     1.992972
      dyz     :     1.992972
      dx2y2   :     1.999980
      dxy     :     1.999980
      f0      :     0.000099  f :     0.000257
      f+1     :     0.000059
      f-1     :     0.000059
      f+2     :     0.000020
      f-2     :     0.000020
      f+3     :     0.000000
      f-3     :     0.000000
      g0      :     0.000000  g :     0.000001
      g+1     :     0.000000
      g-1     :     0.000000
      g+2     :     0.000000
      g-2     :     0.000000
      g+3     :     0.000000
      g-3     :     0.000000
      g+4     :     0.000000
      g-4     :     0.000000


                     *******************************
                     * LOEWDIN POPULATION ANALYSIS *
                     *******************************

----------------------
LOEWDIN ATOMIC CHARGES
----------------------
   0 Cu:   -0.000000
   1 Cu:    0.000000

-------------------------------
LOEWDIN REDUCED ORBITAL CHARGES
-------------------------------
  0 Cus       :     6.838553  s :     6.838553
      pz      :     4.141429  p :    12.160709
      px      :     4.009640
      py      :     4.009640
      dz2     :     2.019803  d :    10.000217
      dxz     :     1.990231
      dyz     :     1.990231
      dx2y2   :     1.999976
      dxy     :     1.999976
      f0      :     0.000214  f :     0.000520
      f+1     :     0.000129
      f-1     :     0.000129
      f+2     :     0.000024
      f-2     :     0.000024
      f+3     :     0.000000
      f-3     :     0.000000
      g0      :     0.000001  g :     0.000002
      g+1     :     0.000000
      g-1     :     0.000000
      g+2     :     0.000000
      g-2     :     0.000000
      g+3     :     0.000000
      g-3     :     0.000000
      g+4     :     0.000000
      g-4     :     0.000000
  1 Cus       :     6.838552  s :     6.838552
      pz      :     4.141429  p :    12.160709
      px      :     4.009640
      py      :     4.009640
      dz2     :     2.019803  d :    10.000217
      dxz     :     1.990231
      dyz     :     1.990231
      dx2y2   :     1.999976
      dxy     :     1.999976
      f0      :     0.000214  f :     0.000520
      f+1     :     0.000129
      f-1     :     0.000129
      f+2     :     0.000024
      f-2     :     0.000024
      f+3     :     0.000000
      f-3     :     0.000000
      g0      :     0.000001  g :     0.000002
      g+1     :     0.000000
      g-1     :     0.000000
      g+2     :     0.000000
      g-2     :     0.000000
      g+3     :     0.000000
      g-3     :     0.000000
      g+4     :     0.000000
      g-4     :     0.000000


                      *****************************
                      * MAYER POPULATION ANALYSIS *
                      *****************************

  NA   - Mulliken gross atomic population
  ZA   - Total nuclear charge
  QA   - Mulliken gross atomic charge
  VA   - Mayer's total valence
  BVA  - Mayer's bonded valence
  FA   - Mayer's free valence

  ATOM       NA         ZA         QA         VA         BVA        FA
  0 Cu    29.0000    29.0000    -0.0000     1.0555     1.0555     0.0000
  1 Cu    29.0000    29.0000     0.0000     1.0555     1.0555    -0.0000

  Mayer bond orders larger than 0.100000
B(  0-Cu,  1-Cu) :   1.0555 

-------
TIMINGS
-------

Total SCF time: 0 days 0 hours 2 min 32 sec 

Total time                  ....     152.397 sec
Sum of individual times     ....     150.071 sec  ( 98.5%)

Fock matrix formation       ....     145.410 sec  ( 95.4%)
  XC integration            ....     139.184 sec  ( 95.7% of F)
    Basis function eval.    ....       0.030 sec  (  0.0% of XC)
    Density eval.           ....       0.024 sec  (  0.0% of XC)
    XC-Functional eval.     ....       0.029 sec  (  0.0% of XC)
    XC-Potential eval.      ....       0.035 sec  (  0.0% of XC)
Diagonalization             ....       1.543 sec  (  1.0%)
Density matrix formation    ....       0.007 sec  (  0.0%)
Population analysis         ....       0.149 sec  (  0.1%)
Initial guess               ....       0.270 sec  (  0.2%)
Orbital Transformation      ....       0.000 sec  (  0.0%)
Orbital Orthonormalization  ....       0.000 sec  (  0.0%)
DIIS solution               ....       0.154 sec  (  0.1%)
Grid generation             ....       2.537 sec  (  1.7%)

-------------------------   --------------------
FINAL SINGLE POINT ENERGY     -3280.708933652906
-------------------------   --------------------


----------------------------------------------------------------------------
                           ORCA NUMERICAL GRADIENT
                              (28-process run)
----------------------------------------------------------------------------

I state                        ... 1
J state                        ... 0
Number of atoms                ... 2
Derivative's order of accuracy ... 2
Central differences            ... used
Number of displacements        ... 12
Numerical increment            ... 5.000e-03 bohr
Translation invariance         ... used

The output will be reduced. Please look at the following files:
SCF program output             ... >Cu2.lastscf
Integral program output        ... >Cu2.lastint
Gradient program output        ... >Cu2.lastgrad


     Note:   There are more processes than displacements to do
     ===>:   Reducing number of processes to   3

             <<<Displacing   2/coordinate 1 (+)>>>
             <<<Displacing   2/coordinate 2 (+)>>>
             <<<Displacing   2/coordinate 3 (+)>>>
             <<<Displacing   2/coordinate 2 (-)>>>
             <<<Displacing   2/coordinate 1 (-)>>>
             <<<Displacing   2/coordinate 3 (-)>>>

------------------------------
CARTESIAN GRADIENT (NUMERICAL)
-------------------------------
   1   Cu  :    0.000000002    0.000000001    0.009543717
   2   Cu  :   -0.000000002   -0.000000001   -0.009543717

Norm of the cartesian gradient     ...    0.013496854
RMS gradient                       ...    0.005510067
MAX gradient                       ...    0.009543717

-------
TIMINGS
-------

Total numerical gradient time      ...       51.366 sec


                            ***************************************
                            *     ORCA property calculations      *
                            ***************************************

                                    ---------------------
                                    Active property flags
                                    ---------------------
   (+) Dipole Moment


------------------------------------------------------------------------------
                       ORCA ELECTRIC PROPERTIES CALCULATION
------------------------------------------------------------------------------

Dipole Moment Calculation                       ... on
Quadrupole Moment Calculation                   ... off
Polarizability Calculation                      ... off
GBWName                                         ... Cu2.gbw
Electron density file                           ... Cu2.scfp
The origin for moment calculation is the CENTER OF MASS  = ( 0.000000,  0.000000  2.097596)

-------------
DIPOLE MOMENT
-------------
                                X             Y             Z
Electronic contribution:     -0.00000      -0.00000       0.00000
Nuclear contribution   :      0.00000       0.00000       0.00000
                        -----------------------------------------
Total Dipole Moment    :     -0.00000      -0.00000       0.00000
                        -----------------------------------------
Magnitude (a.u.)       :      0.00000
Magnitude (Debye)      :      0.00000



--------------------
Rotational spectrum 
--------------------
 
Rotational constants in cm-1:     0.000000     0.107648     0.107648 
Rotational constants in MHz :     0.000000  3227.201597  3227.201597 

 Dipole components along the rotational axes: 
x,y,z [a.u.] :     0.000001    -0.000000    -0.000000 
x,y,z [Debye]:     0.000003    -0.000000    -0.000000 

 

Timings for individual modules:

Sum of individual times         ...      206.878 sec (=   3.448 min)
GTO integral calculation        ...        2.419 sec (=   0.040 min)   1.2 %
SCF iterations                  ...      153.093 sec (=   2.552 min)  74.0 %
SCF Gradient evaluation         ...       51.366 sec (=   0.856 min)  24.8 %
                             ****ORCA TERMINATED NORMALLY****
TOTAL RUN TIME: 0 days 0 hours 3 minutes 48 seconds 601 msec
