
                                 *****************
                                 * O   R   C   A *
                                 *****************

           --- An Ab Initio, DFT and Semiempirical electronic structure package ---

                  #######################################################
                  #                        -***-                        #
                  #          Department of theory and spectroscopy      #
                  #               Directorship: Frank Neese             #
                  #        Max Planck Institute fuer Kohlenforschung    #
                  #                Kaiser Wilhelm Platz 1               #
                  #                 D-45470 Muelheim/Ruhr               #
                  #                      Germany                        #
                  #                                                     #
                  #                  All rights reserved                #
                  #                        -***-                        #
                  #######################################################


                         Program Version 4.2.0 -  RELEASE  -


 With contributions from (in alphabetic order):
   Daniel Aravena         : Magnetic Suceptibility
   Michael Atanasov       : Ab Initio Ligand Field Theory (pilot matlab implementation)
   Alexander A. Auer      : GIAO ZORA, VPT2
   Ute Becker             : Parallelization
   Giovanni Bistoni       : ED, misc. LED, open-shell LED, HFLED
   Martin Brehm           : Molecular dynamics
   Dmytro Bykov           : SCF Hessian
   Vijay G. Chilkuri      : MRCI spin determinant printing, contributions to CSF-ICE
   Dipayan Datta          : RHF DLPNO-CCSD density
   Achintya Kumar Dutta   : EOM-CC, STEOM-CC
   Dmitry Ganyushin       : Spin-Orbit,Spin-Spin,Magnetic field MRCI
   Miquel Garcia          : C-PCM Hessian, Gaussian charge scheme
   Yang Guo               : DLPNO-NEVPT2, CIM, IAO-localization
   Andreas Hansen         : Spin unrestricted coupled pair/coupled cluster methods
   Benjamin Helmich-Paris : CASSCF linear response (MC-RPA)
   Lee Huntington         : MR-EOM, pCC
   Robert Izsak           : Overlap fitted RIJCOSX, COSX-SCS-MP3, EOM
   Christian Kollmar      : KDIIS, OOCD, Brueckner-CCSD(T), CCSD density
   Simone Kossmann        : Meta GGA functionals, TD-DFT gradient, OOMP2, MP2 Hessian
   Martin Krupicka        : AUTO-CI
   Lucas Lang             : DCDCAS
   Dagmar Lenk            : GEPOL surface, SMD
   Dimitrios Liakos       : Extrapolation schemes; Compound Job, initial MDCI parallelization
   Dimitrios Manganas     : Further ROCIS development; embedding schemes
   Dimitrios Pantazis     : SARC Basis sets
   Taras Petrenko         : DFT Hessian,TD-DFT gradient, ASA, ECA, R-Raman, ABS, FL, XAS/XES, NRVS
   Peter Pinski           : DLPNO-MP2, DLPNO-MP2 Gradient
   Christoph Reimann      : Effective Core Potentials
   Marius Retegan         : Local ZFS, SOC
   Christoph Riplinger    : Optimizer, TS searches, QM/MM, DLPNO-CCSD(T), (RO)-DLPNO pert. Triples
   Tobias Risthaus        : Range-separated hybrids, TD-DFT gradient, RPA, STAB
   Michael Roemelt        : Original ROCIS implementation
   Masaaki Saitow         : Open-shell DLPNO-CCSD energy and density
   Barbara Sandhoefer     : DKH picture change effects
   Avijit Sen             : IP-ROCIS
   Kantharuban Sivalingam : CASSCF convergence, NEVPT2, FIC-MRCI
   Bernardo de Souza      : ESD, SOC TD-DFT
   Georgi Stoychev        : AutoAux, RI-MP2 NMR
   Willem Van den Heuvel  : Paramagnetic NMR
   Boris Wezisla          : Elementary symmetry handling
   Frank Wennmohs         : Technical directorship


 We gratefully acknowledge several colleagues who have allowed us to
 interface, adapt or use parts of their codes:
   Stefan Grimme, W. Hujo, H. Kruse,             : VdW corrections, initial TS optimization,
                  C. Bannwarth                     DFT functionals, gCP, sTDA/sTD-DF
   Ed Valeev, F. Pavosevic, A. Kumar             : LibInt (2-el integral package), F12 methods
   Garnet Chan, S. Sharma, J. Yang, R. Olivares  : DMRG
   Ulf Ekstrom                                   : XCFun DFT Library
   Mihaly Kallay                                 : mrcc  (arbitrary order and MRCC methods)
   Andreas Klamt, Michael Diedenhofen            : otool_cosmo (COSMO solvation model)
   Jiri Pittner, Ondrej Demel                    : Mk-CCSD
   Frank Weinhold                                : gennbo (NPA and NBO analysis)
   Christopher J. Cramer and Donald G. Truhlar   : smd solvation model
   Lars Goerigk                                  : TD-DFT with DH, B97 family of functionals
   V. Asgeirsson, H. Jonsson                     : NEB implementation
   FAccTs GmbH                                   : IRC, NEB, NEB-TS, Multilevel, MM, QM/MM, CI optimization
   S Lehtola, MJT Oliveira, MAL Marques          : LibXC Library


 Your calculation uses the libint2 library for the computation of 2-el integrals
 For citations please refer to: http://libint.valeyev.net

 Your ORCA version has been built with support for libXC version: 4.2.3
 For citations please refer to: https://tddft.org/programs/libxc/

 This ORCA versions uses:
   CBLAS   interface :  Fast vector & matrix operations
   LAPACKE interface :  Fast linear algebra routines
   SCALAPACK package :  Parallel linear algebra routines


Your calculation utilizes the DFT-NL dispersion correction.
Cite in your paper:
Vydrov, O. A.; Van Voorhis, T. J. Chem. Phys. 2010, 133, 244103
Hujo, W.; Grimme, S. J. Chem. Theory Comput. 2011, 7, 3866 
   

----- Orbital basis set information -----
Your calculation utilizes the basis: def2-TZVPPD
   F. Weigend and R. Ahlrichs, Phys. Chem. Chem. Phys. 7, 3297 (2005).
   D. Rappoport and F. Furche, J. Chem. Phys. 133 134105 (2010).

----- AuxJK basis set information -----
Your calculation utilizes the auxiliary basis: def2/JK
   H-Ba, Hf-Rn: F. Weigend, J. Comput. Chem. 29, 167 (2008).

cite the ECPs for Ag [Def2-ECP] as follows:
Ce-Yb(ecp-28): M. Dolg, H. Stoll, H.Preuss, J. Chem. Phys., 1989, 90, 1730-1734.
Y-Cd(ecp-28), Hf-Hg(ecp-46): D. Andrae,U. Haeussermann, M. Dolg, H. Stoll, H. Preuss, Theor. Chim. Acta, 1990, 77, 123-141.
In-Sb(ecp-28), Tl-Bi(ecp-46): B. Metz, H. Stoll, M. Dolg, J. Chem. Phys., 2000, 113, 2563-2569.
Te-Xe(ecp-28), Po-Rn(ecp-46): K. A. Peterson, D. Figgen, E. Goll, H. Stoll, M. Dolg, J. Chem. Phys., 2003, 119, 11113-11123.
Rb(ecp-28), Cs(ecp-46): T. Leininger, A. Nicklass, W. Kuechle, H. Stoll, M. Dolg, A. Bergner, Chem. Phys. Lett., 1996, 255, 274-280.
Sr(ecp-28), Ba(ecp-46): M. Kaupp, P. V. Schleyer, H. Stoll and H. Preuss, J. Chem. Phys., 1991, 94, 1360-1366.
La(ecp-46): M. Dolg, H. Stoll, A. Savin, H. Preuss, Theor. Chim. Acta, 1989, 75, 173-194.
Lu(ecp-28): X. Cao, M. Dolg, J. Chem. Phys., 2001, 115, 7348-7355.

ECP parameters for Ag [Def2-ECP] have been obtained from:
TURBOMOLE (7.0.2)

================================================================================
                                        WARNINGS
                       Please study these warnings very carefully!
================================================================================

INFO   : Found keyword 'NumGrad' for Energy calculation
  ===> : Setting RunTyp to EnGrad

WARNING: Numerical Gradient with sloppy Convergence Criteria    
         Your results may be not reliable!                      
         Please choose at least TightSCF!                       

INFO   : the flag for use of LIBINT has been found!

================================================================================
                                       INPUT FILE
================================================================================
NAME = CuAg.in
|  1> #
|  2> # CuAg wB97X-V/Def2-TZVPPD
|  3> #
|  4> ! wb97x-v def2-tzvppd def2/jk grid4 nofinalgrid numgrad
|  5> 
|  6> *xyz 0 1
|  7> Cu         0.00000        0.00000        0.00000
|  8> Ag         0.00000        0.00000        2.25929
|  9> *
| 10> 
| 11> %maxcore 5000
| 12> 
| 13> %pal
| 14> nprocs = 28
| 15> end
| 16> 
| 17> 
| 18>                          ****END OF INPUT****
================================================================================

                     *******************************
                     * Energy+Gradient Calculation *
                     *******************************

---------------------------------
CARTESIAN COORDINATES (ANGSTROEM)
---------------------------------
  Cu     0.000000    0.000000    0.000000
  Ag     0.000000    0.000000    2.259290

----------------------------
CARTESIAN COORDINATES (A.U.)
----------------------------
  NO LB      ZA    FRAG     MASS         X           Y           Z
   0 Cu   29.0000    0    63.550    0.000000    0.000000    0.000000
   1 Ag   19.0000*   0   107.870    0.000000    0.000000    4.269439
* core charge reduced due to ECP

--------------------------------
INTERNAL COORDINATES (ANGSTROEM)
--------------------------------
 Cu     0   0   0     0.000000000000     0.00000000     0.00000000
 Ag     1   0   0     2.259290000000     0.00000000     0.00000000

---------------------------
INTERNAL COORDINATES (A.U.)
---------------------------
 Cu     0   0   0     0.000000000000     0.00000000     0.00000000
 Ag     1   0   0     4.269439357107     0.00000000     0.00000000

---------------------
BASIS SET INFORMATION
---------------------
There are 2 groups of distinct atoms

 Group   1 Type Cu  : 17s13p7d2f1g contracted to 6s6p4d2f1g pattern {842111/631111/4111/11/1}
 Group   2 Type Ag  : 7s7p6d2f1g contracted to 6s4p3d2f1g pattern {211111/4111/411/11/1}

Atom   0Cu   basis set group =>   1
Atom   1Ag   basis set group =>   2
----------------------------------
AUXILIARY/JK BASIS SET INFORMATION
----------------------------------
There are 2 groups of distinct atoms

 Group   1 Type Cu  : 19s14p12d10f7g3h1i contracted to 16s13p11d9f5g3h1i pattern {4111111111111111/2111111111111/21111111111/211111111/31111/111/1}
 Group   2 Type Ag  : 13s12p10d9f6g3h2i contracted to 11s10p9d8f6g3h2i pattern {31111111111/3111111111/211111111/21111111/111111/111/11}

Atom   0Cu   basis set group =>   1
Atom   1Ag   basis set group =>   2
-------------------------
ECP PARAMETER INFORMATION
-------------------------

 Group 1, Type Ag ECP Def2-ECP (replacing 28 core electrons, lmax=3)

Atom   1Ag   ECP group =>   1



           ************************************************************
           *        Program running with 28 parallel MPI-processes    *
           *              working on a common directory               *
           ************************************************************
------------------------------------------------------------------------------
                           ORCA GTO INTEGRAL CALCULATION
------------------------------------------------------------------------------

                         BASIS SET STATISTICS AND STARTUP INFO

 # of primitive gaussian shells          ...   63
 # of primitive gaussian functions       ...  195
 # of contracted shells                  ...   35
 # of contracted basis functions         ...  123
 Highest angular momentum                ...    4
 Maximum contraction depth               ...    8
 Integral package used                   ... LIBINT
 Integral threshhold            Thresh   ...  1.000e-10
 Primitive cut-off              TCut     ...  1.000e-11


------------------------------ INTEGRAL EVALUATION ----------------------------


 * One electron integrals 

   ECP integrals                         ... done
 Pre-screening matrix                    ... done
 Shell pair data                         ... done (   0.000 sec)



           ************************************************************
           *        Program running with 28 parallel MPI-processes    *
           *              working on a common directory               *
           ************************************************************
-------------------------------------------------------------------------------
                                 ORCA SCF
-------------------------------------------------------------------------------

------------
SCF SETTINGS
------------
Hamiltonian:
 Density Functional     Method          .... DFT(GTOs)
 Exchange Functional    Exchange        .... WB97X-V
 Correlation Functional Correlation     .... WB97X-V
 Gradients option       PostSCFGGA      .... off
 Hybrid DFT is turned on
   Fraction HF Exchange ScalHFX         ....  0.167000
   Scaling of DF-GGA-X  ScalDFX         ....  0.000000
   Scaling of DF-GGA-C  ScalDFC         ....  1.000000
   Scaling of DF-LDA-C  ScalLDAC        ....  1.000000
   Perturbative correction              ....  0.000000
   Density functional embedding theory  .... OFF
 Long-range corrected/Screened/Range-Separated Hybrid DFT is turned on
   Amount of maximum screened exact exchange              ....  0.833000
   Range separation parameter mu (erf(mu*r12)/r12)        ....  0.300000
   NL short-range parameter             ....  6.000000
   NL long-range parameter              ....  0.010000


General Settings:
 Integral files         IntName         .... CuAg
 Hartree-Fock type      HFTyp           .... RHF
 Total Charge           Charge          ....    0
 Multiplicity           Mult            ....    1
 Number of Electrons    NEL             ....   48
 Basis Dimension        Dim             ....  123
 Nuclear Repulsion      ENuc            ....    129.0567575536 Eh

Convergence Acceleration:
 DIIS                   CNVDIIS         .... on
   Start iteration      DIISMaxIt       ....    12
   Startup error        DIISStart       ....  0.200000
   # of expansion vecs  DIISMaxEq       ....     5
   Bias factor          DIISBfac        ....   1.050
   Max. coefficient     DIISMaxC        ....  10.000
 Newton-Raphson         CNVNR           .... off
 SOSCF                  CNVSOSCF        .... off
 Level Shifting         CNVShift        .... on
   Level shift para.    LevelShift      ....    0.2500
   Turn off err/grad.   ShiftErr        ....    0.0010
 Zerner damping         CNVZerner       .... off
 Static damping         CNVDamp         .... on
   Fraction old density DampFac         ....    0.7000
   Max. Damping (<1)    DampMax         ....    0.9800
   Min. Damping (>=0)   DampMin         ....    0.0000
   Turn off err/grad.   DampErr         ....    0.1000
 Fernandez-Rico         CNVRico         .... off

SCF Procedure:
 Maximum # iterations   MaxIter         ....   125
 SCF integral mode      SCFMode         .... Direct
   Integral package                     .... LIBINT
 Reset frequency        DirectResetFreq ....    20
 Integral Threshold     Thresh          ....  1.000e-10 Eh
 Primitive CutOff       TCut            ....  1.000e-11 Eh

Convergence Tolerance:
 Convergence Check Mode ConvCheckMode   .... Total+1el-Energy
 Convergence forced     ConvForced      .... 0
 Energy Change          TolE            ....  1.000e-06 Eh
 1-El. energy change                    ....  1.000e-03 Eh
 DIIS Error             TolErr          ....  1.000e-06


Diagonalization of the overlap matrix:
Smallest eigenvalue                        ... 1.389e-03
Time for diagonalization                   ...    0.003 sec
Threshold for overlap eigenvalues          ... 1.000e-08
Number of eigenvalues below threshold      ... 0
Time for construction of square roots      ...    0.024 sec
Total time needed                          ...    0.027 sec

-------------------
DFT GRID GENERATION
-------------------

General Integration Accuracy     IntAcc      ...  4.670
Radial Grid Type                 RadialGrid  ... Gauss-Chebyshev
Angular Grid (max. acc.)         AngularGrid ... Lebedev-302
Angular grid pruning method      GridPruning ... 3 (G Style)
Weight generation scheme         WeightScheme... Becke
Basis function cutoff            BFCut       ...    1.0000e-10
Integration weight cutoff        WCut        ...    1.0000e-14
Grids for H and He will be reduced by one unit

# of grid points (after initial pruning)     ...  20214 (   0.0 sec)
# of grid points (after weights+screening)   ...  20181 (   0.0 sec)
nearest neighbour list constructed           ...    0.0 sec
Grid point re-assignment to atoms done       ...    0.0 sec
Grid point division into batches done        ...    0.2 sec
Reduced shell lists constructed in    0.2 sec

Total number of grid points                  ...    20181
Total number of batches                      ...      316
Average number of points per batch           ...       63
Average number of grid points per atom       ...    10090
Average number of shells per batch           ...     5.15 (14.73%)
Average number of basis functions per batch  ...    13.62 (11.07%)
Average number of large shells per batch     ...     3.77 (73.13%)
Average number of large basis fcns per batch ...     9.46 (69.49%)
Maximum spatial batch extension              ...  24.44, 24.44, 21.72 au
Average spatial batch extension              ...   0.84,  0.84,  0.61 au

Time for grid setup =    0.236 sec

------------------------------
INITIAL GUESS: MODEL POTENTIAL
------------------------------
Loading Hartree-Fock densities                     ... done
  calling /mnt/storage/software/apps/orca-4.2.0/orca_4_2_0_linux_x86-64_openmpi314/orca CuAg_atom47.inp > CuAg_atom47.out in order to generate an atomic fitting density for atom 1 (Ag with ECP) on-the-fly... 
    atom 1 (Ag), assumed electronic state with S=2: 1s2 2s2 2p6 3s2 3p6 4s2 3d10 4p6 5s2 4d9           ... done
Calculating cut-offs                               ... done
Setting up the integral package                    ... done
Initializing the effective Hamiltonian             ... done
Starting the Coulomb interaction                   ... done (   0.0 sec)
Reading the grid                                   ... done
Mapping shells                                     ... done
Starting the XC term evaluation                    ... done (   0.0 sec)
  promolecular density results
     # of electrons  =     76.000936569
     EX              =   -162.901624449
     EC              =     -5.050913632
     EX+EC           =   -167.952538082
Transforming the Hamiltonian                       ... done (   0.0 sec)
Diagonalizing the Hamiltonian                      ... done (   0.0 sec)
Back transforming the eigenvectors                 ... done (   0.0 sec)
Now organizing SCF variables                       ... done
                      ------------------
                      INITIAL GUESS DONE (   1.9 sec)
                      ------------------
--------------
SCF ITERATIONS
--------------
ITER       Energy         Delta-E        Max-DP      RMS-DP      [F,P]     Damp
               ***  Starting incremental Fock matrix formation  ***
  0  -1784.7186385743   0.000000000000 0.64676067  0.00993188  1.7298571 0.7000
  1  -1786.2128841807  -1.494245606393 0.38590090  0.00506348  0.4291921 0.7000
  2  -1786.6142025875  -0.401318406755 0.12322115  0.00254329  0.3153834 0.7000
  3  -1786.8527749733  -0.238572385854 0.15640645  0.00255070  0.2892475 0.7000
                               ***Turning on DIIS***
  4  -1787.0334329509  -0.180657977597 0.18934284  0.00231832  0.1891000 0.7000
  5  -1787.1649160444  -0.131483093482 0.19127562  0.00205820  0.1133515 0.7000
  6  -1787.2604396186  -0.095523574232 0.60589078  0.00620634  0.0904506 0.0000
  7  -1787.5027045963  -0.242264977614 0.06563833  0.00081917  0.0228715 0.0000
  8  -1787.5061071573  -0.003402561081 0.07225190  0.00085742  0.0189169 0.0000
  9  -1787.5084563898  -0.002349232470 0.03403683  0.00063080  0.0194557 0.0000
 10  -1787.5103828726  -0.001926482834 0.02494452  0.00047001  0.0083030 0.0000
 11  -1787.5111519103  -0.000769037638 0.01011874  0.00024670  0.0049880 0.0000
 12  -1787.5114131173  -0.000261207055 0.00538283  0.00015248  0.0030372 0.0000
 13  -1787.5115117895  -0.000098672137 0.00310323  0.00008413  0.0016723 0.0000
 14  -1787.5115434735  -0.000031683979 0.00285107  0.00007319  0.0009352 0.0000
 15  -1787.5115548210  -0.000011347580 0.00082398  0.00001972  0.0004488 0.0000
 16  -1787.5115557062  -0.000000885208 0.00032635  0.00000883  0.0003335 0.0000
 17  -1787.5115559379  -0.000000231677 0.00029608  0.00000691  0.0001690 0.0000
 18  -1787.5115560585  -0.000000120589 0.00010723  0.00000315  0.0000578 0.0000
                 **** Energy Check signals convergence ****

               *****************************************************
               *                     SUCCESS                       *
               *           SCF CONVERGED AFTER  19 CYCLES          *
               *****************************************************


Setting up the DFT-NL grid :

General Integration Accuracy     IntAcc      ...  4.340
Radial Grid Type                 RadialGrid  ... Gauss-Chebyshev
Angular Grid (max. acc.)         AngularGrid ... Lebedev-110
Angular grid pruning method      GridPruning ... 3 (G Style)
Weight generation scheme         WeightScheme... Becke
Basis function cutoff            BFCut       ...    1.0000e-10
Integration weight cutoff        WCut        ...    1.0000e-14
Grids for H and He will be reduced by one unit

# of grid points (after initial pruning)     ...   6170 (   0.0 sec)
# of grid points (after weights+screening)   ...   6140 (   0.0 sec)
nearest neighbour list constructed           ...    0.0 sec
Grid point re-assignment to atoms done       ...    0.0 sec
Grid point division into batches done        ...    0.0 sec
Reduced shell lists constructed in    0.0 sec

Total number of grid points                  ...     6140
Total number of batches                      ...       97
Average number of points per batch           ...       63
Average number of grid points per atom       ...     3070
Average number of shells per batch           ...     9.60 (27.43%)
Average number of basis functions per batch  ...    27.20 (22.11%)
Average number of large shells per batch     ...     8.00 (83.33%)
Average number of large basis fcns per batch ...    20.80 (76.47%)
Maximum spatial batch extension              ...  23.42, 23.42, 16.11 au
Average spatial batch extension              ...   0.93,  0.96,  0.66 au

Final grid set up in    0.2 sec

-------------------------------------------------------------------------------
                         DFT-NL dispersion correction                          
-------------------------------------------------------------------------------

SC Energy -1787.511556093 
NL    Energy 0.195521770 
SC+NL Energy -1787.316034323 
NL done in    0.0 sec
-------------------------------------------------------------------------------

----------------
TOTAL SCF ENERGY
----------------

Total Energy       :        -1787.31603432 Eh          -48635.34187 eV

Components:
Nuclear Repulsion  :          129.05675755 Eh            3511.81291 eV
Electronic Energy  :        -1916.37279188 Eh          -52147.15478 eV
One Electron Energy:        -2807.56392583 Eh          -76397.69841 eV
Two Electron Energy:          891.19113395 Eh           24250.54363 eV

Virial components:
Potential Energy   :        -3481.78202354 Eh          -94744.10556 eV
Kinetic Energy     :         1694.46598922 Eh           46108.76369 eV
Virial Ratio       :            2.05479605


DFT components:
N(Alpha)           :       23.999997550296 electrons
N(Beta)            :       23.999997550296 electrons
N(Total)           :       47.999995100591 electrons
E(X)               :      -59.076375043749 Eh       
E(C)               :       -2.702222315390 Eh       
NL Energy, E(C,NL) :        0.195521769814 Eh       
E(XC)              :      -61.583075589324 Eh       
DFET-embed. en.    :        0.000000000000 Eh       

---------------
SCF CONVERGENCE
---------------

  Last Energy change         ...   -3.4446e-08  Tolerance :   1.0000e-06
  Last MAX-Density change    ...    8.3436e-05  Tolerance :   1.0000e-05
  Last RMS-Density change    ...    1.4193e-06  Tolerance :   1.0000e-06
  Last DIIS Error            ...    3.0983e-05  Tolerance :   1.0000e-06

             **** THE GBW FILE WAS UPDATED (CuAg.gbw) ****
             **** DENSITY FILE WAS UPDATED (CuAg.scfp) ****
             **** ENERGY FILE WAS UPDATED (CuAg.en.tmp) ****
             **** THE GBW FILE WAS UPDATED (CuAg.gbw) ****
             **** DENSITY FILE WAS UPDATED (CuAg.scfp) ****
----------------
ORBITAL ENERGIES
----------------

  NO   OCC          E(Eh)            E(eV) 
   0   2.0000    -322.835784     -8784.8083 
   1   2.0000     -38.816156     -1056.2413 
   2   2.0000     -34.013260      -925.5478 
   3   2.0000     -34.012968      -925.5399 
   4   2.0000     -34.012968      -925.5399 
   5   2.0000      -4.368178      -118.8642 
   6   2.0000      -3.825084      -104.0858 
   7   2.0000      -2.865694       -77.9795 
   8   2.0000      -2.861718       -77.8713 
   9   2.0000      -2.861718       -77.8713 
  10   2.0000      -2.427076       -66.0441 
  11   2.0000      -2.421486       -65.8920 
  12   2.0000      -2.421486       -65.8920 
  13   2.0000      -0.449512       -12.2318 
  14   2.0000      -0.433660       -11.8005 
  15   2.0000      -0.433660       -11.8005 
  16   2.0000      -0.418250       -11.3812 
  17   2.0000      -0.418246       -11.3811 
  18   2.0000      -0.355165        -9.6645 
  19   2.0000      -0.355152        -9.6642 
  20   2.0000      -0.350579        -9.5398 
  21   2.0000      -0.350579        -9.5398 
  22   2.0000      -0.346595        -9.4313 
  23   2.0000      -0.279146        -7.5959 
  24   0.0000      -0.015606        -0.4247 
  25   0.0000       0.034462         0.9378 
  26   0.0000       0.034462         0.9378 
  27   0.0000       0.057581         1.5669 
  28   0.0000       0.096555         2.6274 
  29   0.0000       0.096555         2.6274 
  30   0.0000       0.111303         3.0287 
  31   0.0000       0.167159         4.5486 
  32   0.0000       0.199934         5.4405 
  33   0.0000       0.199934         5.4405 
  34   0.0000       0.224581         6.1112 
  35   0.0000       0.229787         6.2528 
  36   0.0000       0.257636         7.0106 
  37   0.0000       0.257637         7.0106 
  38   0.0000       0.280839         7.6420 
  39   0.0000       0.280839         7.6420 
  40   0.0000       0.345076         9.3900 
  41   0.0000       0.348927         9.4948 
  42   0.0000       0.348927         9.4948 
  43   0.0000       0.541457        14.7338 
  44   0.0000       0.547181        14.8895 
  45   0.0000       0.547182        14.8896 
  46   0.0000       0.666938        18.1483 
  47   0.0000       0.666938        18.1483 
  48   0.0000       0.733151        19.9501 
  49   0.0000       0.775863        21.1123 
  50   0.0000       0.775863        21.1123 
  51   0.0000       0.858201        23.3528 
  52   0.0000       1.010200        27.4889 
  53   0.0000       1.010207        27.4891 
  54   0.0000       1.021311        27.7913 
  55   0.0000       1.021311        27.7913 
  56   0.0000       1.132997        30.8304 
  57   0.0000       1.723260        46.8923 
  58   0.0000       1.723266        46.8924 
  59   0.0000       1.723909        46.9100 
  60   0.0000       1.723909        46.9100 
  61   0.0000       1.755415        47.7673 
  62   0.0000       1.755415        47.7673 
  63   0.0000       1.799632        48.9705 
  64   0.0000       1.799632        48.9705 
  65   0.0000       1.804678        49.1078 
  66   0.0000       1.916026        52.1377 
  67   0.0000       2.191052        59.6216 
  68   0.0000       2.191052        59.6216 
  69   0.0000       2.275922        61.9310 
  70   0.0000       2.275922        61.9310 
  71   0.0000       2.279631        62.0319 
  72   0.0000       2.398253        65.2598 
  73   0.0000       3.149499        85.7022 
  74   0.0000       3.149499        85.7022 
  75   0.0000       3.257371        88.6376 
  76   0.0000       3.320522        90.3560 
  77   0.0000       3.569432        97.1292 
  78   0.0000       3.569452        97.1297 
  79   0.0000       3.572125        97.2025 
  80   0.0000       3.572125        97.2025 
  81   0.0000       3.585718        97.5724 
  82   0.0000       3.585718        97.5724 
  83   0.0000       3.704854       100.8142 
  84   0.0000       3.809996       103.6753 
  85   0.0000       3.810068       103.6772 
  86   0.0000       3.851316       104.7996 
  87   0.0000       3.851316       104.7996 
  88   0.0000       4.083049       111.1054 
  89   0.0000       4.958858       134.9374 
  90   0.0000       4.958858       134.9374 
  91   0.0000       4.959955       134.9672 
  92   0.0000       4.960005       134.9686 
  93   0.0000       5.019578       136.5897 
  94   0.0000       5.019578       136.5897 
  95   0.0000       5.227038       142.2349 
  96   0.0000       5.689598       154.8218 
  97   0.0000       5.689649       154.8232 
  98   0.0000       5.691923       154.8851 
  99   0.0000       5.691923       154.8851 
 100   0.0000       5.694848       154.9647 
 101   0.0000       5.695160       154.9732 
 102   0.0000       5.696511       155.0100 
 103   0.0000       5.696511       155.0100 
 104   0.0000       5.717338       155.5767 
 105   0.0000      13.096864       356.3838 
 106   0.0000      13.096864       356.3838 
 107   0.0000      13.097669       356.4057 
 108   0.0000      13.098365       356.4246 
 109   0.0000      13.098680       356.4332 
 110   0.0000      13.100076       356.4712 
 111   0.0000      13.100076       356.4712 
 112   0.0000      13.101906       356.5210 
 113   0.0000      13.102200       356.5290 
 114   0.0000      13.276732       361.2782 
 115   0.0000      13.277042       361.2867 
 116   0.0000      13.277397       361.2963 
 117   0.0000      13.277397       361.2963 
 118   0.0000      13.285460       361.5157 
 119   0.0000      13.285460       361.5157 
 120   0.0000      13.328415       362.6846 
 121   0.0000      33.664237       916.0505 
 122   0.0000     110.971864      3019.6979 

                    ********************************
                    * MULLIKEN POPULATION ANALYSIS *
                    ********************************

-----------------------
MULLIKEN ATOMIC CHARGES
-----------------------
   0 Cu:    0.121844
   1 Ag:   -0.121844
Sum of atomic charges:   -0.0000000

--------------------------------
MULLIKEN REDUCED ORBITAL CHARGES
--------------------------------
  0 Cus       :     6.847486  s :     6.847486
      pz      :     4.033309  p :    12.055147
      px      :     4.010919
      py      :     4.010919
      dz2     :     1.983220  d :     9.975062
      dxz     :     1.995051
      dyz     :     1.995051
      dx2y2   :     2.000870
      dxy     :     2.000870
      f0      :     0.000195  f :     0.000460
      f+1     :     0.000113
      f-1     :     0.000113
      f+2     :     0.000020
      f-2     :     0.000020
      f+3     :     0.000000
      f-3     :     0.000000
      g0      :     0.000001  g :     0.000001
      g+1     :     0.000000
      g-1     :     0.000000
      g+2     :     0.000000
      g-2     :     0.000000
      g+3     :     0.000000
      g-3     :     0.000000
      g+4     :     0.000000
      g-4     :     0.000000
  1 Ags       :     3.097706  s :     3.097706
      pz      :     2.073977  p :     6.087227
      px      :     2.006625
      py      :     2.006625
      dz2     :     1.963245  d :     9.934880
      dxz     :     1.986810
      dyz     :     1.986810
      dx2y2   :     1.999008
      dxy     :     1.999008
      f0      :     0.000844  f :     0.001994
      f+1     :     0.000475
      f-1     :     0.000475
      f+2     :     0.000101
      f-2     :     0.000101
      f+3     :     0.000000
      f-3     :     0.000000
      g0      :     0.000017  g :     0.000036
      g+1     :     0.000008
      g-1     :     0.000008
      g+2     :     0.000001
      g-2     :     0.000001
      g+3     :     0.000000
      g-3     :     0.000000
      g+4     :     0.000000
      g-4     :     0.000000


                     *******************************
                     * LOEWDIN POPULATION ANALYSIS *
                     *******************************

----------------------
LOEWDIN ATOMIC CHARGES
----------------------
   0 Cu:   -0.111821
   1 Ag:    0.111821

-------------------------------
LOEWDIN REDUCED ORBITAL CHARGES
-------------------------------
  0 Cus       :     6.893805  s :     6.893805
      pz      :     4.146459  p :    12.179318
      px      :     4.016430
      py      :     4.016430
      dz2     :     2.037390  d :    10.038018
      dxz     :     1.997863
      dyz     :     1.997863
      dx2y2   :     2.002451
      dxy     :     2.002452
      f0      :     0.000291  f :     0.000678
      f+1     :     0.000170
      f-1     :     0.000170
      f+2     :     0.000023
      f-2     :     0.000023
      f+3     :     0.000000
      f-3     :     0.000000
      g0      :     0.000001  g :     0.000002
      g+1     :     0.000001
      g-1     :     0.000001
      g+2     :     0.000000
      g-2     :     0.000000
      g+3     :     0.000000
      g-3     :     0.000000
      g+4     :     0.000000
      g-4     :     0.000000
  1 Ags       :     2.829591  s :     2.829591
      pz      :     2.109138  p :     6.121428
      px      :     2.006145
      py      :     2.006145
      dz2     :     1.981685  d :     9.933289
      dxz     :     1.978408
      dyz     :     1.978408
      dx2y2   :     1.997393
      dxy     :     1.997393
      f0      :     0.001613  f :     0.003807
      f+1     :     0.000968
      f-1     :     0.000968
      f+2     :     0.000129
      f-2     :     0.000129
      f+3     :     0.000000
      f-3     :     0.000000
      g0      :     0.000026  g :     0.000064
      g+1     :     0.000017
      g-1     :     0.000017
      g+2     :     0.000002
      g-2     :     0.000002
      g+3     :     0.000000
      g-3     :     0.000000
      g+4     :     0.000000
      g-4     :     0.000000


                      *****************************
                      * MAYER POPULATION ANALYSIS *
                      *****************************

  NA   - Mulliken gross atomic population
  ZA   - Total nuclear charge
  QA   - Mulliken gross atomic charge
  VA   - Mayer's total valence
  BVA  - Mayer's bonded valence
  FA   - Mayer's free valence

  ATOM       NA         ZA         QA         VA         BVA        FA
  0 Cu    28.8782    29.0000     0.1218     1.0666     1.0666     0.0000
  1 Ag    19.1218    19.0000    -0.1218     1.0666     1.0666    -0.0000

  Mayer bond orders larger than 0.100000
B(  0-Cu,  1-Ag) :   1.0666 

-------
TIMINGS
-------

Total SCF time: 0 days 0 hours 0 min 20 sec 

Total time                  ....      20.141 sec
Sum of individual times     ....      19.248 sec  ( 95.6%)

Fock matrix formation       ....      16.791 sec  ( 83.4%)
  XC integration            ....       8.153 sec  ( 48.6% of F)
    Basis function eval.    ....       0.042 sec  (  0.5% of XC)
    Density eval.           ....       0.031 sec  (  0.4% of XC)
    XC-Functional eval.     ....       0.038 sec  (  0.5% of XC)
    XC-Potential eval.      ....       0.046 sec  (  0.6% of XC)
Diagonalization             ....       0.196 sec  (  1.0%)
Density matrix formation    ....       0.011 sec  (  0.1%)
Population analysis         ....       0.028 sec  (  0.1%)
Initial guess               ....       1.619 sec  (  8.0%)
Orbital Transformation      ....       0.000 sec  (  0.0%)
Orbital Orthonormalization  ....       0.000 sec  (  0.0%)
DIIS solution               ....       0.194 sec  (  1.0%)
Grid generation             ....       0.410 sec  (  2.0%)

-------------------------   --------------------
FINAL SINGLE POINT ENERGY     -1787.316034323137
-------------------------   --------------------


----------------------------------------------------------------------------
                           ORCA NUMERICAL GRADIENT
                              (28-process run)
----------------------------------------------------------------------------

I state                        ... 1
J state                        ... 0
Number of atoms                ... 2
Derivative's order of accuracy ... 2
Central differences            ... used
Number of displacements        ... 12
Numerical increment            ... 5.000e-03 bohr
Translation invariance         ... used

The output will be reduced. Please look at the following files:
SCF program output             ... >CuAg.lastscf
Integral program output        ... >CuAg.lastint
Gradient program output        ... >CuAg.lastgrad


     Note:   There are more processes than displacements to do
     ===>:   Reducing number of processes to   3

             <<<Displacing   2/coordinate 1 (+)>>>
             <<<Displacing   2/coordinate 2 (+)>>>
             <<<Displacing   2/coordinate 3 (+)>>>
             <<<Displacing   2/coordinate 2 (-)>>>
             <<<Displacing   2/coordinate 1 (-)>>>
             <<<Displacing   2/coordinate 3 (-)>>>

------------------------------
CARTESIAN GRADIENT (NUMERICAL)
-------------------------------
   1   Cu  :    0.000000000   -0.000000000    0.030435067
   2   Ag  :   -0.000000000    0.000000000   -0.030435067

Norm of the cartesian gradient     ...    0.043041684
RMS gradient                       ...    0.017571694
MAX gradient                       ...    0.030435067

-------
TIMINGS
-------

Total numerical gradient time      ...       27.363 sec


                            ***************************************
                            *     ORCA property calculations      *
                            ***************************************

                                    ---------------------
                                    Active property flags
                                    ---------------------
   (+) Dipole Moment


------------------------------------------------------------------------------
                       ORCA ELECTRIC PROPERTIES CALCULATION
------------------------------------------------------------------------------

Dipole Moment Calculation                       ... on
Quadrupole Moment Calculation                   ... off
Polarizability Calculation                      ... off
GBWName                                         ... CuAg.gbw
Electron density file                           ... CuAg.scfp
The origin for moment calculation is the CENTER OF MASS  = ( 0.000000,  0.000000  2.686643)

-------------
DIPOLE MOMENT
-------------
                                X             Y             Z
Electronic contribution:      0.00000      -0.00000      47.86352
Nuclear contribution   :      0.00000       0.00000     -47.83954
                        -----------------------------------------
Total Dipole Moment    :      0.00000      -0.00000       0.02398
                        -----------------------------------------
Magnitude (a.u.)       :      0.02398
Magnitude (Debye)      :      0.06095



--------------------
Rotational spectrum 
--------------------
 
Rotational constants in cm-1:     0.000000     0.082584     0.082584 
Rotational constants in MHz :     0.000000  2475.819054  2475.819054 

 Dipole components along the rotational axes: 
x,y,z [a.u.] :     0.023980    -0.000000     0.000000 
x,y,z [Debye]:     0.060953    -0.000000     0.000000 

 

Timings for individual modules:

Sum of individual times         ...       49.477 sec (=   0.825 min)
GTO integral calculation        ...        1.353 sec (=   0.023 min)   2.7 %
SCF iterations                  ...       20.761 sec (=   0.346 min)  42.0 %
SCF Gradient evaluation         ...       27.363 sec (=   0.456 min)  55.3 %
                             ****ORCA TERMINATED NORMALLY****
TOTAL RUN TIME: 0 days 0 hours 0 minutes 50 seconds 234 msec
