
                                 *****************
                                 * O   R   C   A *
                                 *****************

           --- An Ab Initio, DFT and Semiempirical electronic structure package ---

                  #######################################################
                  #                        -***-                        #
                  #          Department of theory and spectroscopy      #
                  #               Directorship: Frank Neese             #
                  #        Max Planck Institute fuer Kohlenforschung    #
                  #                Kaiser Wilhelm Platz 1               #
                  #                 D-45470 Muelheim/Ruhr               #
                  #                      Germany                        #
                  #                                                     #
                  #                  All rights reserved                #
                  #                        -***-                        #
                  #######################################################


                         Program Version 4.2.0 -  RELEASE  -


 With contributions from (in alphabetic order):
   Daniel Aravena         : Magnetic Suceptibility
   Michael Atanasov       : Ab Initio Ligand Field Theory (pilot matlab implementation)
   Alexander A. Auer      : GIAO ZORA, VPT2
   Ute Becker             : Parallelization
   Giovanni Bistoni       : ED, misc. LED, open-shell LED, HFLED
   Martin Brehm           : Molecular dynamics
   Dmytro Bykov           : SCF Hessian
   Vijay G. Chilkuri      : MRCI spin determinant printing, contributions to CSF-ICE
   Dipayan Datta          : RHF DLPNO-CCSD density
   Achintya Kumar Dutta   : EOM-CC, STEOM-CC
   Dmitry Ganyushin       : Spin-Orbit,Spin-Spin,Magnetic field MRCI
   Miquel Garcia          : C-PCM Hessian, Gaussian charge scheme
   Yang Guo               : DLPNO-NEVPT2, CIM, IAO-localization
   Andreas Hansen         : Spin unrestricted coupled pair/coupled cluster methods
   Benjamin Helmich-Paris : CASSCF linear response (MC-RPA)
   Lee Huntington         : MR-EOM, pCC
   Robert Izsak           : Overlap fitted RIJCOSX, COSX-SCS-MP3, EOM
   Christian Kollmar      : KDIIS, OOCD, Brueckner-CCSD(T), CCSD density
   Simone Kossmann        : Meta GGA functionals, TD-DFT gradient, OOMP2, MP2 Hessian
   Martin Krupicka        : AUTO-CI
   Lucas Lang             : DCDCAS
   Dagmar Lenk            : GEPOL surface, SMD
   Dimitrios Liakos       : Extrapolation schemes; Compound Job, initial MDCI parallelization
   Dimitrios Manganas     : Further ROCIS development; embedding schemes
   Dimitrios Pantazis     : SARC Basis sets
   Taras Petrenko         : DFT Hessian,TD-DFT gradient, ASA, ECA, R-Raman, ABS, FL, XAS/XES, NRVS
   Peter Pinski           : DLPNO-MP2, DLPNO-MP2 Gradient
   Christoph Reimann      : Effective Core Potentials
   Marius Retegan         : Local ZFS, SOC
   Christoph Riplinger    : Optimizer, TS searches, QM/MM, DLPNO-CCSD(T), (RO)-DLPNO pert. Triples
   Tobias Risthaus        : Range-separated hybrids, TD-DFT gradient, RPA, STAB
   Michael Roemelt        : Original ROCIS implementation
   Masaaki Saitow         : Open-shell DLPNO-CCSD energy and density
   Barbara Sandhoefer     : DKH picture change effects
   Avijit Sen             : IP-ROCIS
   Kantharuban Sivalingam : CASSCF convergence, NEVPT2, FIC-MRCI
   Bernardo de Souza      : ESD, SOC TD-DFT
   Georgi Stoychev        : AutoAux, RI-MP2 NMR
   Willem Van den Heuvel  : Paramagnetic NMR
   Boris Wezisla          : Elementary symmetry handling
   Frank Wennmohs         : Technical directorship


 We gratefully acknowledge several colleagues who have allowed us to
 interface, adapt or use parts of their codes:
   Stefan Grimme, W. Hujo, H. Kruse,             : VdW corrections, initial TS optimization,
                  C. Bannwarth                     DFT functionals, gCP, sTDA/sTD-DF
   Ed Valeev, F. Pavosevic, A. Kumar             : LibInt (2-el integral package), F12 methods
   Garnet Chan, S. Sharma, J. Yang, R. Olivares  : DMRG
   Ulf Ekstrom                                   : XCFun DFT Library
   Mihaly Kallay                                 : mrcc  (arbitrary order and MRCC methods)
   Andreas Klamt, Michael Diedenhofen            : otool_cosmo (COSMO solvation model)
   Jiri Pittner, Ondrej Demel                    : Mk-CCSD
   Frank Weinhold                                : gennbo (NPA and NBO analysis)
   Christopher J. Cramer and Donald G. Truhlar   : smd solvation model
   Lars Goerigk                                  : TD-DFT with DH, B97 family of functionals
   V. Asgeirsson, H. Jonsson                     : NEB implementation
   FAccTs GmbH                                   : IRC, NEB, NEB-TS, Multilevel, MM, QM/MM, CI optimization
   S Lehtola, MJT Oliveira, MAL Marques          : LibXC Library


 Your calculation uses the libint2 library for the computation of 2-el integrals
 For citations please refer to: http://libint.valeyev.net

 Your ORCA version has been built with support for libXC version: 4.2.3
 For citations please refer to: https://tddft.org/programs/libxc/

 This ORCA versions uses:
   CBLAS   interface :  Fast vector & matrix operations
   LAPACKE interface :  Fast linear algebra routines
   SCALAPACK package :  Parallel linear algebra routines


Your calculation utilizes the DFT-NL dispersion correction.
Cite in your paper:
Vydrov, O. A.; Van Voorhis, T. J. Chem. Phys. 2010, 133, 244103
Hujo, W.; Grimme, S. J. Chem. Theory Comput. 2011, 7, 3866 
   

----- Orbital basis set information -----
Your calculation utilizes the basis: def2-TZVPPD
   F. Weigend and R. Ahlrichs, Phys. Chem. Chem. Phys. 7, 3297 (2005).
   D. Rappoport and F. Furche, J. Chem. Phys. 133 134105 (2010).

----- AuxJK basis set information -----
Your calculation utilizes the auxiliary basis: def2/JK
   H-Ba, Hf-Rn: F. Weigend, J. Comput. Chem. 29, 167 (2008).

================================================================================
                                        WARNINGS
                       Please study these warnings very carefully!
================================================================================

INFO   : Found keyword 'NumGrad' for Energy calculation
  ===> : Setting RunTyp to EnGrad

WARNING: Numerical Gradient with sloppy Convergence Criteria    
         Your results may be not reliable!                      
         Please choose at least TightSCF!                       

WARNING: your system is open-shell and RHF/RKS was chosen
  ===> : WILL SWITCH to UHF/UKS


INFO   : the flag for use of LIBINT has been found!

================================================================================
                                       INPUT FILE
================================================================================
NAME = Fe.in
|  1> #
|  2> # Fe wB97X-V/Def2-TZVPPD
|  3> #
|  4> ! wb97x-v def2-tzvppd def2/jk grid4 nofinalgrid numgrad
|  5> 
|  6> *xyz 0 5
|  7> Fe         0.00000        0.00000        0.00000
|  8> *
|  9> 
| 10> %maxcore 5000
| 11> 
| 12> %pal
| 13> nprocs = 28
| 14> end
| 15> 
| 16> 
| 17>                          ****END OF INPUT****
================================================================================

                     *******************************
                     * Energy+Gradient Calculation *
                     *******************************

---------------------------------
CARTESIAN COORDINATES (ANGSTROEM)
---------------------------------
  Fe     0.000000    0.000000    0.000000

----------------------------
CARTESIAN COORDINATES (A.U.)
----------------------------
  NO LB      ZA    FRAG     MASS         X           Y           Z
   0 Fe   26.0000    0    55.850    0.000000    0.000000    0.000000

--------------------------------
INTERNAL COORDINATES (ANGSTROEM)
--------------------------------
 Fe     0   0   0     0.000000000000     0.00000000     0.00000000

---------------------------
INTERNAL COORDINATES (A.U.)
---------------------------
 Fe     0   0   0     0.000000000000     0.00000000     0.00000000

---------------------
BASIS SET INFORMATION
---------------------
There are 1 groups of distinct atoms

 Group   1 Type Fe  : 17s13p7d2f1g contracted to 6s6p4d2f1g pattern {842111/631111/4111/11/1}

Atom   0Fe   basis set group =>   1
----------------------------------
AUXILIARY/JK BASIS SET INFORMATION
----------------------------------
There are 1 groups of distinct atoms

 Group   1 Type Fe  : 19s14p12d10f7g3h1i contracted to 16s13p11d9f5g3h1i pattern {4111111111111111/2111111111111/21111111111/211111111/31111/111/1}

Atom   0Fe   basis set group =>   1


           ************************************************************
           *        Program running with 28 parallel MPI-processes    *
           *              working on a common directory               *
           ************************************************************
------------------------------------------------------------------------------
                           ORCA GTO INTEGRAL CALCULATION
------------------------------------------------------------------------------

                         BASIS SET STATISTICS AND STARTUP INFO

 # of primitive gaussian shells          ...   40
 # of primitive gaussian functions       ...  114
 # of contracted shells                  ...   19
 # of contracted basis functions         ...   67
 Highest angular momentum                ...    4
 Maximum contraction depth               ...    8
 Integral package used                   ... LIBINT
 Integral threshhold            Thresh   ...  1.000e-10
 Primitive cut-off              TCut     ...  1.000e-11


------------------------------ INTEGRAL EVALUATION ----------------------------


 * One electron integrals 
 Pre-screening matrix                    ... done
 Shell pair data                         ... done (   0.000 sec)



           ************************************************************
           *        Program running with 28 parallel MPI-processes    *
           *              working on a common directory               *
           ************************************************************
-------------------------------------------------------------------------------
                                 ORCA SCF
-------------------------------------------------------------------------------

------------
SCF SETTINGS
------------
Hamiltonian:
 Density Functional     Method          .... DFT(GTOs)
 Exchange Functional    Exchange        .... WB97X-V
 Correlation Functional Correlation     .... WB97X-V
 Gradients option       PostSCFGGA      .... off
 Hybrid DFT is turned on
   Fraction HF Exchange ScalHFX         ....  0.167000
   Scaling of DF-GGA-X  ScalDFX         ....  0.000000
   Scaling of DF-GGA-C  ScalDFC         ....  1.000000
   Scaling of DF-LDA-C  ScalLDAC        ....  1.000000
   Perturbative correction              ....  0.000000
   Density functional embedding theory  .... OFF
 Long-range corrected/Screened/Range-Separated Hybrid DFT is turned on
   Amount of maximum screened exact exchange              ....  0.833000
   Range separation parameter mu (erf(mu*r12)/r12)        ....  0.300000
   NL short-range parameter             ....  6.000000
   NL long-range parameter              ....  0.010000


General Settings:
 Integral files         IntName         .... Fe
 Hartree-Fock type      HFTyp           .... UHF
 Total Charge           Charge          ....    0
 Multiplicity           Mult            ....    5
 Number of Electrons    NEL             ....   26
 Basis Dimension        Dim             ....   67
 Nuclear Repulsion      ENuc            ....      0.0000000000 Eh

Convergence Acceleration:
 DIIS                   CNVDIIS         .... on
   Start iteration      DIISMaxIt       ....    12
   Startup error        DIISStart       ....  0.200000
   # of expansion vecs  DIISMaxEq       ....     5
   Bias factor          DIISBfac        ....   1.050
   Max. coefficient     DIISMaxC        ....  10.000
 Newton-Raphson         CNVNR           .... off
 SOSCF                  CNVSOSCF        .... off
 Level Shifting         CNVShift        .... on
   Level shift para.    LevelShift      ....    0.2500
   Turn off err/grad.   ShiftErr        ....    0.0010
 Zerner damping         CNVZerner       .... off
 Static damping         CNVDamp         .... on
   Fraction old density DampFac         ....    0.7000
   Max. Damping (<1)    DampMax         ....    0.9800
   Min. Damping (>=0)   DampMin         ....    0.0000
   Turn off err/grad.   DampErr         ....    0.1000
 Fernandez-Rico         CNVRico         .... off

SCF Procedure:
 Maximum # iterations   MaxIter         ....   125
 SCF integral mode      SCFMode         .... Direct
   Integral package                     .... LIBINT
 Reset frequency        DirectResetFreq ....    20
 Integral Threshold     Thresh          ....  1.000e-10 Eh
 Primitive CutOff       TCut            ....  1.000e-11 Eh

Convergence Tolerance:
 Convergence Check Mode ConvCheckMode   .... Total+1el-Energy
 Convergence forced     ConvForced      .... 0
 Energy Change          TolE            ....  1.000e-06 Eh
 1-El. energy change                    ....  1.000e-03 Eh
 DIIS Error             TolErr          ....  1.000e-06


Diagonalization of the overlap matrix:
Smallest eigenvalue                        ... 4.159e-02
Time for diagonalization                   ...    0.001 sec
Threshold for overlap eigenvalues          ... 1.000e-08
Number of eigenvalues below threshold      ... 0
Time for construction of square roots      ...    0.104 sec
Total time needed                          ...    0.106 sec

-------------------
DFT GRID GENERATION
-------------------

General Integration Accuracy     IntAcc      ...  4.670
Radial Grid Type                 RadialGrid  ... Gauss-Chebyshev
Angular Grid (max. acc.)         AngularGrid ... Lebedev-302
Angular grid pruning method      GridPruning ... 3 (G Style)
Weight generation scheme         WeightScheme... Becke
Basis function cutoff            BFCut       ...    1.0000e-10
Integration weight cutoff        WCut        ...    1.0000e-14
Grids for H and He will be reduced by one unit

# of grid points (after initial pruning)     ...   9640 (   0.0 sec)
# of grid points (after weights+screening)   ...   9640 (   0.0 sec)
Grid point division into batches done        ...    0.1 sec
Reduced shell lists constructed in    0.1 sec

Total number of grid points                  ...     9640
Total number of batches                      ...      151
Average number of points per batch           ...       63
Average number of grid points per atom       ...     9640
Average number of shells per batch           ...     3.43 (18.05%)
Average number of basis functions per batch  ...    10.29 (15.35%)
Average number of large shells per batch     ...     1.71 (50.00%)
Average number of large basis fcns per batch ...     3.43 (33.33%)
Maximum spatial batch extension              ...  22.27, 22.27, 22.27 au
Average spatial batch extension              ...   0.78,  0.77,  0.74 au

Time for grid setup =    0.708 sec

------------------------------
INITIAL GUESS: MODEL POTENTIAL
------------------------------
Loading Hartree-Fock densities                     ... done
Calculating cut-offs                               ... done
Setting up the integral package                    ... done
Initializing the effective Hamiltonian             ... done
Starting the Coulomb interaction                   ... done (   0.0 sec)
Reading the grid                                   ... done
Mapping shells                                     ... done
Starting the XC term evaluation                    ... done (   0.0 sec)
  promolecular density results
     # of electrons  =     25.999994076
     EX              =    -41.347507081
     EC              =     -1.526576777
     EX+EC           =    -42.874083858
Transforming the Hamiltonian                       ... done (   0.0 sec)
Diagonalizing the Hamiltonian                      ... done (   0.0 sec)
Back transforming the eigenvectors                 ... done (   0.0 sec)
Now organizing SCF variables                       ... done
                      ------------------
                      INITIAL GUESS DONE (   0.9 sec)
                      ------------------
--------------
SCF ITERATIONS
--------------
ITER       Energy         Delta-E        Max-DP      RMS-DP      [F,P]     Damp
               ***  Starting incremental Fock matrix formation  ***
  0  -1256.6097551292   0.000000000000 0.32527635  0.01092338  1.0450890 0.7000
  1  -1260.3633944828  -3.753639353549 0.26773123  0.00648736  0.2909320 0.7000
  2  -1261.6755651584  -1.312170675663 0.18807357  0.00440192  0.3149387 0.7000
  3  -1262.2803434498  -0.604778291389 0.09775906  0.00319984  0.3506085 0.7000
  4  -1262.6562259093  -0.375882459504 0.06843282  0.00235151  0.2922868 0.7000
  5  -1262.9184054584  -0.262179549102 0.04790432  0.00176058  0.2076757 0.7000
                               ***Turning on DIIS***
  6  -1263.1054049343  -0.186999475862 0.05548824  0.00136894  0.1444687 0.7000
  7  -1263.2394708603  -0.134065925979 0.07470116  0.00123232  0.1012504 0.7000
  8  -1263.3359857569  -0.096514896590 0.25416679  0.00371730  0.0735772 0.0000
  9  -1263.5749850551  -0.238999298246 0.04816851  0.00067422  0.0096810 0.0000
 10  -1263.5765586288  -0.001573573686 0.03529473  0.00052903  0.0096654 0.0000
 11  -1263.5779694988  -0.001410869965 0.01115905  0.00025078  0.0096197 0.0000
 12  -1263.5791306147  -0.001161115926 0.00548925  0.00010855  0.0097830 0.0000
 13  -1263.5796006197  -0.000470005010 0.00136929  0.00003952  0.0094631 0.0000
 14  -1263.5794240994   0.000176520261 0.00036109  0.00000716  0.0093609 0.0000
 15  -1263.5794218141   0.000002285346 0.00438157  0.00012156  0.0093794 0.0000
 16  -1263.5800626625  -0.000640848440 0.00610598  0.00022048  0.0094935 0.0000
 17  -1263.5813082370  -0.001245574413 0.00770562  0.00025662  0.0096022 0.0000
 18  -1263.5828409212  -0.001532684293 0.00757264  0.00023740  0.0096196 0.0000
 19  -1263.5842849492  -0.001444027987 0.00896605  0.00027103  0.0095198 0.0000
               *** Restarting incremental Fock matrix formation ***
                                   *** Resetting DIIS ***
 20  -1263.5859424475  -0.001657498259 0.00615087  0.00018422  0.0093682 0.0000
 21  -1263.5870561317  -0.001113684164 0.00522099  0.00015738  0.0091348 0.0000
 22  -1263.5879947690  -0.000938637388 0.00688552  0.00020215  0.0089450 0.0000
 23  -1263.5891790230  -0.001184253992 0.01504181  0.00043231  0.0087238 0.0000
 24  -1263.5916026589  -0.002423635852 0.01369324  0.00039557  0.0082417 0.0000
 25  -1263.5936624632  -0.002059804308 0.00911048  0.00027664  0.0074840 0.0000
 26  -1263.5950003481  -0.001337884922 0.03292110  0.00102011  0.0068322 0.0000
 27  -1263.5988696678  -0.003869319691 0.00390814  0.00013403  0.0109792 0.0000
 28  -1263.5987661451   0.000103522712 0.01080529  0.00039882  0.0044637 0.0000
 29  -1263.6000016519  -0.001235506805 0.01463696  0.00063416  0.0044043 0.0000
 30  -1263.6014887236  -0.001487071746 0.00659234  0.00023233  0.0064638 0.0000
 31  -1263.6020209729  -0.000532249236 0.00941589  0.00033574  0.0043967 0.0000
 32  -1263.6026326706  -0.000611697735 0.00425420  0.00015216  0.0045879 0.0000
 33  -1263.6029291396  -0.000296468961 0.00431804  0.00015586  0.0043083 0.0000
 34  -1263.6032049269  -0.000275787301 0.00330154  0.00011571  0.0043200 0.0000
 35  -1263.6034213050  -0.000216378138 0.00271647  0.00008995  0.0043291 0.0000
 36  -1263.6035902264  -0.000168921344 0.00189332  0.00006482  0.0043086 0.0000
 37  -1263.6035048085   0.000085417889 0.00151187  0.00004396  0.0040408 0.0000
 38  -1263.6035889278  -0.000084119358 0.00296004  0.00008858  0.0041096 0.0000
 39  -1263.6037501908  -0.000161262929 0.00043085  0.00001361  0.0041785 0.0000
               *** Restarting incremental Fock matrix formation ***
                                   *** Resetting DIIS ***
 40  -1263.6037434488   0.000006741964 0.00386122  0.00012071  0.0041508 0.0000
 41  -1263.6039502320  -0.000206783252 0.00329844  0.00009648  0.0052205 0.0000
 42  -1263.6041297966  -0.000179564506 0.00375510  0.00010194  0.0043962 0.0000
 43  -1263.6043239123  -0.000194115795 0.00164198  0.00004293  0.0043723 0.0000
 44  -1263.6043997217  -0.000075809319 0.00130006  0.00002901  0.0041944 0.0000
 45  -1263.6043482726   0.000051449020 0.00168938  0.00004266  0.0052712 0.0000
 46  -1263.6044348821  -0.000086609421 0.00027318  0.00000735  0.0046716 0.0000
 47  -1263.6044222078   0.000012674307 0.00307829  0.00007489  0.0048793 0.0000
 48  -1263.6045714555  -0.000149247772 0.00733395  0.00017705  0.0043558 0.0000
 49  -1263.6049114609  -0.000340005364 0.00787643  0.00018727  0.0047034 0.0000
 50  -1263.6052750875  -0.000363626618 0.00748274  0.00017817  0.0048235 0.0000
 51  -1263.6056260598  -0.000350972295 0.00260228  0.00006169  0.0048598 0.0000
 52  -1263.6057410844  -0.000115024548 0.01587431  0.00034529  0.0045151 0.0000
 53  -1263.6050110235   0.000730060909 0.00534502  0.00011631  0.0099941 0.0000
 54  -1263.6052835366  -0.000272513174 0.00973833  0.00021204  0.0051307 0.0000
 55  -1263.6056979115  -0.000414374915 0.00826200  0.00018730  0.0047530 0.0000
 56  -1263.6060649024  -0.000366990822 0.00863014  0.00019527  0.0048600 0.0000
 57  -1263.6064514408  -0.000386538451 0.00772317  0.00017578  0.0049096 0.0000
 58  -1263.6068003050  -0.000348864233 0.00697941  0.00015826  0.0048352 0.0000
 59  -1263.6071147170  -0.000314411950 0.01164830  0.00022075  0.0047872 0.0000
               *** Restarting incremental Fock matrix formation ***
                                   *** Resetting DIIS ***
 60  -1263.6066917640   0.000422952962 0.00615578  0.00015787  0.0061526 0.0000
 61  -1263.6069513560  -0.000259592013 0.00507699  0.00012114  0.0067979 0.0000
 62  -1263.6071871103  -0.000235754252 0.00736087  0.00015542  0.0046368 0.0000
 63  -1263.6074899660  -0.000302855734 0.00752271  0.00015814  0.0046120 0.0000
 64  -1263.6077941677  -0.000304201687 0.00972824  0.00019877  0.0045775 0.0000
 65  -1263.6081695336  -0.000375365868 0.01443403  0.00028420  0.0046608 0.0000
 66  -1263.6086833802  -0.000513846596 0.01274338  0.00025176  0.0049085 0.0000
 67  -1263.6091261599  -0.000442779731 0.03843674  0.00069952  0.0046592 0.0000
 68  -1263.6101348262  -0.001008666262 0.01514599  0.00025974  0.0063962 0.0000
 69  -1263.6098938621   0.000240964081 0.02842969  0.00051574  0.0065079 0.0000
 70  -1263.6106311536  -0.000737291514 0.05002780  0.00089014  0.0047069 0.0000
 71  -1263.6113920152  -0.000760861627 0.01248687  0.00022157  0.0112252 0.0000
 72  -1263.6115463240  -0.000154308772 0.02869063  0.00053514  0.0025937 0.0000
 73  -1263.6119610430  -0.000414719022 0.01650150  0.00034289  0.0054510 0.0000
 74  -1263.6122328492  -0.000271806144 0.01433233  0.00030465  0.0046923 0.0000
 75  -1263.6124207786  -0.000187929405 0.00523171  0.00011798  0.0045789 0.0000
 76  -1263.6125239138  -0.000103135224 0.01987281  0.00040886  0.0016484 0.0000
 77  -1263.6126219312  -0.000098017387 0.00334599  0.00006739  0.0060770 0.0000
 78  -1263.6126955315  -0.000073600257 0.00868019  0.00020378  0.0012826 0.0000
 79  -1263.6127422690  -0.000046737589 0.00254067  0.00008248  0.0027123 0.0000
               *** Restarting incremental Fock matrix formation ***
                                   *** Resetting DIIS ***
 80  -1263.6127713796  -0.000029110598 0.00147929  0.00003507  0.0013250 0.0000
 81  -1263.6127755271  -0.000004147503 0.00045981  0.00001542  0.0015146 0.0000
 82  -1263.6127804157  -0.000004888525 0.00076136  0.00002129  0.0004723 0.0000
 83  -1263.6127850326  -0.000004616908 0.00095232  0.00002905  0.0004425 0.0000
 84  -1263.6127908261  -0.000005793560 0.00245172  0.00006490  0.0003809 0.0000
 85  -1263.6128022254  -0.000011399237 0.00619624  0.00015459  0.0002921 0.0000
 86  -1263.6128223420  -0.000020116588 0.00325853  0.00007657  0.0002290 0.0000
 87  -1263.6128290131  -0.000006671097 0.00562437  0.00013732  0.0001447 0.0000
 88  -1263.6128357103  -0.000006697217 0.00049729  0.00001262  0.0001455 0.0000
 89  -1263.6128357243  -0.000000014049 0.00226197  0.00005783  0.0000930 0.0000
 90  -1263.6128371545  -0.000001430186 0.00078318  0.00002396  0.0000798 0.0000
 91  -1263.6128378227  -0.000000668186 0.00094227  0.00003015  0.0000661 0.0000
 92  -1263.6128384276  -0.000000604857 0.00038321  0.00001402  0.0000547 0.0000
 93  -1263.6128388217  -0.000000394132 0.00052658  0.00001468  0.0000474 0.0000
 94  -1263.6128391553  -0.000000333628 0.00038791  0.00001218  0.0000440 0.0000
 95  -1263.6128394330  -0.000000277709 0.00062768  0.00001691  0.0000425 0.0000
 96  -1263.6128396547  -0.000000221705 0.00040268  0.00001123  0.0000421 0.0000
 97  -1263.6128398021  -0.000000147333 0.00064901  0.00001827  0.0000397 0.0000
                 **** Energy Check signals convergence ****

               *****************************************************
               *                     SUCCESS                       *
               *           SCF CONVERGED AFTER  98 CYCLES          *
               *****************************************************


Setting up the DFT-NL grid :

General Integration Accuracy     IntAcc      ...  4.340
Radial Grid Type                 RadialGrid  ... Gauss-Chebyshev
Angular Grid (max. acc.)         AngularGrid ... Lebedev-110
Angular grid pruning method      GridPruning ... 3 (G Style)
Weight generation scheme         WeightScheme... Becke
Basis function cutoff            BFCut       ...    1.0000e-10
Integration weight cutoff        WCut        ...    1.0000e-14
Grids for H and He will be reduced by one unit

# of grid points (after initial pruning)     ...   2912 (   0.0 sec)
# of grid points (after weights+screening)   ...   2912 (   0.0 sec)
Grid point division into batches done        ...    0.0 sec
Reduced shell lists constructed in    0.0 sec

Total number of grid points                  ...     2912
Total number of batches                      ...       46
Average number of points per batch           ...       63
Average number of grid points per atom       ...     2912
Average number of shells per batch           ...     4.67 (24.56%)
Average number of basis functions per batch  ...    14.00 (20.90%)
Average number of large shells per batch     ...     4.00 (85.71%)
Average number of large basis fcns per batch ...    10.67 (76.19%)
Maximum spatial batch extension              ...  18.98, 28.73, 28.73 au
Average spatial batch extension              ...   0.83,  1.25,  1.25 au

Final grid set up in    0.3 sec

-------------------------------------------------------------------------------
                         DFT-NL dispersion correction                          
-------------------------------------------------------------------------------

SC Energy -1263.612839971 
NL    Energy 0.110465816 
SC+NL Energy -1263.502374155 
NL done in    0.1 sec
-------------------------------------------------------------------------------

----------------
TOTAL SCF ENERGY
----------------

Total Energy       :        -1263.50237415 Eh          -34381.64753 eV

Components:
Nuclear Repulsion  :            0.00000000 Eh               0.00000 eV
Electronic Energy  :        -1263.50237415 Eh          -34381.64753 eV
One Electron Energy:        -1744.66577353 Eh          -47474.76927 eV
Two Electron Energy:          481.16339937 Eh           13093.12174 eV

Virial components:
Potential Energy   :        -2525.30206526 Eh          -68716.96270 eV
Kinetic Energy     :         1261.79969111 Eh           34335.31517 eV
Virial Ratio       :            2.00134941


DFT components:
N(Alpha)           :       15.000000548268 electrons
N(Beta)            :       11.000000547195 electrons
N(Total)           :       26.000001095462 electrons
E(X)               :      -41.479923932682 Eh       
E(C)               :       -1.493370067036 Eh       
NL Energy, E(C,NL) :        0.110465816471 Eh       
E(XC)              :      -42.862828183247 Eh       
DFET-embed. en.    :        0.000000000000 Eh       

---------------
SCF CONVERGENCE
---------------

  Last Energy change         ...   -1.6934e-07  Tolerance :   1.0000e-06
  Last MAX-Density change    ...    6.4075e-05  Tolerance :   1.0000e-05
  Last RMS-Density change    ...    2.6406e-06  Tolerance :   1.0000e-06
  Last DIIS Error            ...    3.8076e-05  Tolerance :   1.0000e-06

             **** THE GBW FILE WAS UPDATED (Fe.gbw) ****
             **** DENSITY FILE WAS UPDATED (Fe.scfp) ****
             **** ENERGY FILE WAS UPDATED (Fe.en.tmp) ****
----------------------
UHF SPIN CONTAMINATION
----------------------

Warning: in a DFT calculation there is little theoretical justification to 
         calculate <S**2> as in Hartree-Fock theory. We will do it anyways
         but you should keep in mind that the values have only limited relevance

Expectation value of <S**2>     :     6.006754
Ideal value S*(S+1) for S=2.0   :     6.000000
Deviation                       :     0.006754

             **** THE GBW FILE WAS UPDATED (Fe.gbw) ****
             **** DENSITY FILE WAS UPDATED (Fe.scfp) ****
----------------
ORBITAL ENERGIES
----------------
                 SPIN UP ORBITALS
  NO   OCC          E(Eh)            E(eV) 
   0   1.0000    -256.026587     -6966.8376 
   1   1.0000     -30.167377      -820.8961 
   2   1.0000     -26.034690      -708.4399 
   3   1.0000     -26.005664      -707.6501 
   4   1.0000     -26.004832      -707.6274 
   5   1.0000      -3.701766      -100.7302 
   6   1.0000      -2.515274       -68.4441 
   7   1.0000      -2.458510       -66.8994 
   8   1.0000      -2.456783       -66.8525 
   9   1.0000      -0.512106       -13.9351 
  10   1.0000      -0.508975       -13.8499 
  11   1.0000      -0.508237       -13.8298 
  12   1.0000      -0.486206       -13.2303 
  13   1.0000      -0.452699       -12.3186 
  14   1.0000      -0.291716        -7.9380 
  15   0.0000       0.022343         0.6080 
  16   0.0000       0.022507         0.6125 
  17   0.0000       0.022724         0.6183 
  18   0.0000       0.152381         4.1465 
  19   0.0000       0.153118         4.1666 
  20   0.0000       0.153361         4.1732 
  21   0.0000       0.160935         4.3793 
  22   0.0000       0.242678         6.6036 
  23   0.0000       0.242814         6.6073 
  24   0.0000       0.242882         6.6092 
  25   0.0000       0.243172         6.6171 
  26   0.0000       0.245432         6.6786 
  27   0.0000       0.605222        16.4689 
  28   0.0000       0.610104        16.6018 
  29   0.0000       0.610595        16.6151 
  30   0.0000       0.947963        25.7954 
  31   0.0000       0.948280        25.8040 
  32   0.0000       0.948670        25.8146 
  33   0.0000       0.953944        25.9581 
  34   0.0000       0.962980        26.2040 
  35   0.0000       2.370969        64.5173 
  36   0.0000       2.371096        64.5208 
  37   0.0000       2.371330        64.5272 
  38   0.0000       2.371404        64.5292 
  39   0.0000       2.382276        64.8250 
  40   0.0000       2.390921        65.0603 
  41   0.0000       2.391079        65.0646 
  42   0.0000       2.417142        65.7738 
  43   0.0000       2.441492        66.4364 
  44   0.0000       2.442743        66.4704 
  45   0.0000       2.543415        69.2098 
  46   0.0000       3.472316        94.4865 
  47   0.0000       3.474084        94.5346 
  48   0.0000       3.474724        94.5521 
  49   0.0000       3.489915        94.9654 
  50   0.0000       3.512943        95.5920 
  51   0.0000       8.484059       230.8630 
  52   0.0000       8.484765       230.8822 
  53   0.0000       8.484851       230.8845 
  54   0.0000       8.485399       230.8994 
  55   0.0000       8.503515       231.3924 
  56   0.0000       8.509598       231.5579 
  57   0.0000       8.510383       231.5793 
  58   0.0000       8.532035       232.1685 
  59   0.0000       8.533458       232.2072 
  60   0.0000       9.144107       248.8238 
  61   0.0000       9.146050       248.8767 
  62   0.0000       9.146526       248.8896 
  63   0.0000       9.150939       249.0097 
  64   0.0000       9.177625       249.7359 
  65   0.0000       9.207587       250.5512 
  66   0.0000       9.208017       250.5629 

                 SPIN DOWN ORBITALS
  NO   OCC          E(Eh)            E(eV) 
   0   1.0000    -256.025525     -6966.8087 
   1   1.0000     -30.095121      -818.9299 
   2   1.0000     -25.967167      -706.6025 
   3   1.0000     -25.951609      -706.1792 
   4   1.0000     -25.951214      -706.1684 
   5   1.0000      -3.526804       -95.9692 
   6   1.0000      -2.290420       -62.3255 
   7   1.0000      -2.285801       -62.1998 
   8   1.0000      -2.285374       -62.1882 
   9   1.0000      -0.367989       -10.0135 
  10   1.0000      -0.274858        -7.4793 
  11   0.0000      -0.006794        -0.1849 
  12   0.0000       0.016609         0.4520 
  13   0.0000       0.017461         0.4751 
  14   0.0000       0.025744         0.7005 
  15   0.0000       0.029609         0.8057 
  16   0.0000       0.029671         0.8074 
  17   0.0000       0.040886         1.1126 
  18   0.0000       0.159667         4.3448 
  19   0.0000       0.163537         4.4501 
  20   0.0000       0.163619         4.4523 
  21   0.0000       0.178057         4.8452 
  22   0.0000       0.250862         6.8263 
  23   0.0000       0.259024         7.0484 
  24   0.0000       0.261457         7.1146 
  25   0.0000       0.261682         7.1207 
  26   0.0000       0.263828         7.1791 
  27   0.0000       0.631178        17.1752 
  28   0.0000       0.635564        17.2946 
  29   0.0000       0.635767        17.3001 
  30   0.0000       0.991543        26.9812 
  31   0.0000       0.998224        27.1631 
  32   0.0000       1.004714        27.3397 
  33   0.0000       1.005139        27.3512 
  34   0.0000       1.013859        27.5885 
  35   0.0000       2.459081        66.9150 
  36   0.0000       2.459100        66.9155 
  37   0.0000       2.460804        66.9619 
  38   0.0000       2.462748        67.0148 
  39   0.0000       2.475581        67.3640 
  40   0.0000       2.476172        67.3801 
  41   0.0000       2.486455        67.6599 
  42   0.0000       2.511638        68.3451 
  43   0.0000       2.520880        68.5966 
  44   0.0000       2.521245        68.6066 
  45   0.0000       2.643965        71.9459 
  46   0.0000       3.577267        97.3424 
  47   0.0000       3.590031        97.6897 
  48   0.0000       3.601868        98.0118 
  49   0.0000       3.602659        98.0333 
  50   0.0000       3.624602        98.6304 
  51   0.0000       8.610694       234.3089 
  52   0.0000       8.611235       234.3236 
  53   0.0000       8.611480       234.3303 
  54   0.0000       8.612225       234.3506 
  55   0.0000       8.628521       234.7940 
  56   0.0000       8.632447       234.9008 
  57   0.0000       8.632832       234.9113 
  58   0.0000       8.632836       234.9114 
  59   0.0000       8.635607       234.9868 
  60   0.0000       9.321213       253.6431 
  61   0.0000       9.321288       253.6452 
  62   0.0000       9.321895       253.6617 
  63   0.0000       9.322092       253.6670 
  64   0.0000       9.343770       254.2569 
  65   0.0000       9.344122       254.2665 
  66   0.0000       9.351116       254.4568 

                    ********************************
                    * MULLIKEN POPULATION ANALYSIS *
                    ********************************

--------------------------------------------
MULLIKEN ATOMIC CHARGES AND SPIN POPULATIONS
--------------------------------------------
   0 Fe:   -0.000000    4.000000
Sum of atomic charges         :   -0.0000000
Sum of atomic spin populations:    4.0000000

-----------------------------------------------------
MULLIKEN REDUCED ORBITAL CHARGES AND SPIN POPULATIONS
-----------------------------------------------------
CHARGE
  0 Fes       :     7.889163  s :     7.889163
      pz      :     3.999945  p :    11.999865
      px      :     3.999956
      py      :     3.999965
      dz2     :     1.263954  d :     6.110795
      dxz     :     1.481027
      dyz     :     1.206437
      dx2y2   :     1.007784
      dxy     :     1.151593
      f0      :     0.000026  f :     0.000135
      f+1     :     0.000030
      f-1     :     0.000017
      f+2     :     0.000003
      f-2     :     0.000026
      f+3     :     0.000016
      f-3     :     0.000017
      g0      :     0.000002  g :     0.000042
      g+1     :     0.000006
      g-1     :     0.000004
      g+2     :     0.000003
      g-2     :     0.000005
      g+3     :     0.000005
      g-3     :     0.000006
      g+4     :     0.000005
      g-4     :     0.000005

SPIN
  0 Fes       :     0.110803  s :     0.110803
      pz      :     0.000003  p :     0.000001
      px      :     0.000001
      py      :    -0.000003
      dz2     :     0.736044  d :     3.889164
      dxz     :     0.518960
      dyz     :     0.793549
      dx2y2   :     0.992203
      dxy     :     0.848408
      f0      :    -0.000012  f :    -0.000001
      f+1     :    -0.000008
      f-1     :    -0.000006
      f+2     :     0.000001
      f-2     :     0.000006
      f+3     :     0.000006
      f-3     :     0.000012
      g0      :     0.000002  g :     0.000034
      g+1     :     0.000003
      g-1     :     0.000002
      g+2     :     0.000003
      g-2     :     0.000004
      g+3     :     0.000004
      g-3     :     0.000005
      g+4     :     0.000005
      g-4     :     0.000005


                     *******************************
                     * LOEWDIN POPULATION ANALYSIS *
                     *******************************

-------------------------------------------
LOEWDIN ATOMIC CHARGES AND SPIN POPULATIONS
-------------------------------------------
   0 Fe:   -0.000000    4.000000

----------------------------------------------------
LOEWDIN REDUCED ORBITAL CHARGES AND SPIN POPULATIONS
----------------------------------------------------
CHARGE
  0 Fes       :     7.889163  s :     7.889163
      pz      :     3.999945  p :    11.999865
      px      :     3.999956
      py      :     3.999965
      dz2     :     1.263954  d :     6.110795
      dxz     :     1.481027
      dyz     :     1.206437
      dx2y2   :     1.007784
      dxy     :     1.151593
      f0      :     0.000026  f :     0.000135
      f+1     :     0.000030
      f-1     :     0.000017
      f+2     :     0.000003
      f-2     :     0.000026
      f+3     :     0.000016
      f-3     :     0.000017
      g0      :     0.000002  g :     0.000042
      g+1     :     0.000006
      g-1     :     0.000004
      g+2     :     0.000003
      g-2     :     0.000005
      g+3     :     0.000005
      g-3     :     0.000006
      g+4     :     0.000005
      g-4     :     0.000005

SPIN
  0 Fes       :     0.110803  s :     0.110803
      pz      :     0.000003  p :     0.000001
      px      :     0.000001
      py      :    -0.000003
      dz2     :     0.736044  d :     3.889164
      dxz     :     0.518960
      dyz     :     0.793549
      dx2y2   :     0.992203
      dxy     :     0.848408
      f0      :    -0.000012  f :    -0.000001
      f+1     :    -0.000008
      f-1     :    -0.000006
      f+2     :     0.000001
      f-2     :     0.000006
      f+3     :     0.000006
      f-3     :     0.000012
      g0      :     0.000002  g :     0.000034
      g+1     :     0.000003
      g-1     :     0.000002
      g+2     :     0.000003
      g-2     :     0.000004
      g+3     :     0.000004
      g-3     :     0.000005
      g+4     :     0.000005
      g-4     :     0.000005


                      *****************************
                      * MAYER POPULATION ANALYSIS *
                      *****************************

  NA   - Mulliken gross atomic population
  ZA   - Total nuclear charge
  QA   - Mulliken gross atomic charge
  VA   - Mayer's total valence
  BVA  - Mayer's bonded valence
  FA   - Mayer's free valence

  ATOM       NA         ZA         QA         VA         BVA        FA
  0 Fe    26.0000    26.0000    -0.0000     4.0135     0.0000     4.0135

  Mayer bond orders larger than 0.100000


-------
TIMINGS
-------

Total SCF time: 0 days 0 hours 5 min 53 sec 

Total time                  ....     353.627 sec
Sum of individual times     ....     351.239 sec  ( 99.3%)

Fock matrix formation       ....     344.098 sec  ( 97.3%)
  XC integration            ....     318.055 sec  ( 92.4% of F)
    Basis function eval.    ....       0.058 sec  (  0.0% of XC)
    Density eval.           ....       0.096 sec  (  0.0% of XC)
    XC-Functional eval.     ....       0.134 sec  (  0.0% of XC)
    XC-Potential eval.      ....       0.094 sec  (  0.0% of XC)
Diagonalization             ....       4.750 sec  (  1.3%)
Density matrix formation    ....       0.190 sec  (  0.1%)
Population analysis         ....       0.065 sec  (  0.0%)
Initial guess               ....       0.203 sec  (  0.1%)
Orbital Transformation      ....       0.000 sec  (  0.0%)
Orbital Orthonormalization  ....       0.000 sec  (  0.0%)
DIIS solution               ....       0.964 sec  (  0.3%)
Grid generation             ....       0.969 sec  (  0.3%)

-------------------------   --------------------
FINAL SINGLE POINT ENERGY     -1263.502374154926
-------------------------   --------------------


----------------------------------------------------------------------------
                           ORCA NUMERICAL GRADIENT
                              (28-process run)
----------------------------------------------------------------------------

I state                        ... 1
J state                        ... 0
Number of atoms                ... 1
Derivative's order of accuracy ... 2
Central differences            ... used
Number of displacements        ... 6
Numerical increment            ... 5.000e-03 bohr
Translation invariance         ... used

The output will be reduced. Please look at the following files:
SCF program output             ... >Fe.lastscf
Integral program output        ... >Fe.lastint
Gradient program output        ... >Fe.lastgrad


     Note:   There are more processes than displacements to do
     ===>:   Reducing number of processes to   0


------------------------------
CARTESIAN GRADIENT (NUMERICAL)
-------------------------------
   1   Fe  :    0.000000000    0.000000000    0.000000000

Norm of the cartesian gradient     ...    0.000000000
RMS gradient                       ...    0.000000000
MAX gradient                       ...    0.000000000
*** glibc detected *** /mnt/storage/software/apps/orca-4.2.0/orca_4_2_0_linux_x86-64_openmpi314/orca: free(): invalid next size (fast): 0x000000000cc8ce60 ***
======= Backtrace: =========
[0xb0928aa]
[0xb09567c]
[0x76d903]
[0x76fb95]
[0x915b4f]
[0x918f24]
[0x487649]
[0xb05c99e]
[0x4870d9]
======= Memory map: ========
00400000-0bf42000 r-xp 00000000 00:2b 4876154                            /mnt/storage/software/apps/orca-4.2.0/orca_4_2_0_linux_x86-64_openmpi314/orca
0c141000-0c203000 rw-p 0bb41000 00:2b 4876154                            /mnt/storage/software/apps/orca-4.2.0/orca_4_2_0_linux_x86-64_openmpi314/orca
0c203000-0c77a000 rw-p 00000000 00:00 0 
0ca49000-0ccb8000 rw-p 00000000 00:00 0                                  [heap]
2b52807d4000-2b5280fd5000 rw-p 00000000 00:00 0 
2b52817d4000-2b5283e97000 rw-p 00000000 00:00 0 
2b5284000000-2b52840b3000 rw-p 00000000 00:00 0 
2b52840b3000-2b5288000000 ---p 00000000 00:00 0 
7ffd705f6000-7ffd706f7000 rw-p 00000000 00:00 0                          [stack]
7ffd707d0000-7ffd707d2000 r-xp 00000000 00:00 0                          [vdso]
ffffffffff600000-ffffffffff601000 r-xp 00000000 00:00 0                  [vsyscall]
