
                                 *****************
                                 * O   R   C   A *
                                 *****************

           --- An Ab Initio, DFT and Semiempirical electronic structure package ---

                  #######################################################
                  #                        -***-                        #
                  #          Department of theory and spectroscopy      #
                  #               Directorship: Frank Neese             #
                  #        Max Planck Institute fuer Kohlenforschung    #
                  #                Kaiser Wilhelm Platz 1               #
                  #                 D-45470 Muelheim/Ruhr               #
                  #                      Germany                        #
                  #                                                     #
                  #                  All rights reserved                #
                  #                        -***-                        #
                  #######################################################


                         Program Version 4.2.0 -  RELEASE  -


 With contributions from (in alphabetic order):
   Daniel Aravena         : Magnetic Suceptibility
   Michael Atanasov       : Ab Initio Ligand Field Theory (pilot matlab implementation)
   Alexander A. Auer      : GIAO ZORA, VPT2
   Ute Becker             : Parallelization
   Giovanni Bistoni       : ED, misc. LED, open-shell LED, HFLED
   Martin Brehm           : Molecular dynamics
   Dmytro Bykov           : SCF Hessian
   Vijay G. Chilkuri      : MRCI spin determinant printing, contributions to CSF-ICE
   Dipayan Datta          : RHF DLPNO-CCSD density
   Achintya Kumar Dutta   : EOM-CC, STEOM-CC
   Dmitry Ganyushin       : Spin-Orbit,Spin-Spin,Magnetic field MRCI
   Miquel Garcia          : C-PCM Hessian, Gaussian charge scheme
   Yang Guo               : DLPNO-NEVPT2, CIM, IAO-localization
   Andreas Hansen         : Spin unrestricted coupled pair/coupled cluster methods
   Benjamin Helmich-Paris : CASSCF linear response (MC-RPA)
   Lee Huntington         : MR-EOM, pCC
   Robert Izsak           : Overlap fitted RIJCOSX, COSX-SCS-MP3, EOM
   Christian Kollmar      : KDIIS, OOCD, Brueckner-CCSD(T), CCSD density
   Simone Kossmann        : Meta GGA functionals, TD-DFT gradient, OOMP2, MP2 Hessian
   Martin Krupicka        : AUTO-CI
   Lucas Lang             : DCDCAS
   Dagmar Lenk            : GEPOL surface, SMD
   Dimitrios Liakos       : Extrapolation schemes; Compound Job, initial MDCI parallelization
   Dimitrios Manganas     : Further ROCIS development; embedding schemes
   Dimitrios Pantazis     : SARC Basis sets
   Taras Petrenko         : DFT Hessian,TD-DFT gradient, ASA, ECA, R-Raman, ABS, FL, XAS/XES, NRVS
   Peter Pinski           : DLPNO-MP2, DLPNO-MP2 Gradient
   Christoph Reimann      : Effective Core Potentials
   Marius Retegan         : Local ZFS, SOC
   Christoph Riplinger    : Optimizer, TS searches, QM/MM, DLPNO-CCSD(T), (RO)-DLPNO pert. Triples
   Tobias Risthaus        : Range-separated hybrids, TD-DFT gradient, RPA, STAB
   Michael Roemelt        : Original ROCIS implementation
   Masaaki Saitow         : Open-shell DLPNO-CCSD energy and density
   Barbara Sandhoefer     : DKH picture change effects
   Avijit Sen             : IP-ROCIS
   Kantharuban Sivalingam : CASSCF convergence, NEVPT2, FIC-MRCI
   Bernardo de Souza      : ESD, SOC TD-DFT
   Georgi Stoychev        : AutoAux, RI-MP2 NMR
   Willem Van den Heuvel  : Paramagnetic NMR
   Boris Wezisla          : Elementary symmetry handling
   Frank Wennmohs         : Technical directorship


 We gratefully acknowledge several colleagues who have allowed us to
 interface, adapt or use parts of their codes:
   Stefan Grimme, W. Hujo, H. Kruse,             : VdW corrections, initial TS optimization,
                  C. Bannwarth                     DFT functionals, gCP, sTDA/sTD-DF
   Ed Valeev, F. Pavosevic, A. Kumar             : LibInt (2-el integral package), F12 methods
   Garnet Chan, S. Sharma, J. Yang, R. Olivares  : DMRG
   Ulf Ekstrom                                   : XCFun DFT Library
   Mihaly Kallay                                 : mrcc  (arbitrary order and MRCC methods)
   Andreas Klamt, Michael Diedenhofen            : otool_cosmo (COSMO solvation model)
   Jiri Pittner, Ondrej Demel                    : Mk-CCSD
   Frank Weinhold                                : gennbo (NPA and NBO analysis)
   Christopher J. Cramer and Donald G. Truhlar   : smd solvation model
   Lars Goerigk                                  : TD-DFT with DH, B97 family of functionals
   V. Asgeirsson, H. Jonsson                     : NEB implementation
   FAccTs GmbH                                   : IRC, NEB, NEB-TS, Multilevel, MM, QM/MM, CI optimization
   S Lehtola, MJT Oliveira, MAL Marques          : LibXC Library


 Your calculation uses the libint2 library for the computation of 2-el integrals
 For citations please refer to: http://libint.valeyev.net

 Your ORCA version has been built with support for libXC version: 4.2.3
 For citations please refer to: https://tddft.org/programs/libxc/

 This ORCA versions uses:
   CBLAS   interface :  Fast vector & matrix operations
   LAPACKE interface :  Fast linear algebra routines
   SCALAPACK package :  Parallel linear algebra routines


Your calculation utilizes the DFT-NL dispersion correction.
Cite in your paper:
Vydrov, O. A.; Van Voorhis, T. J. Chem. Phys. 2010, 133, 244103
Hujo, W.; Grimme, S. J. Chem. Theory Comput. 2011, 7, 3866 
   

----- Orbital basis set information -----
Your calculation utilizes the basis: def2-TZVPPD
   F. Weigend and R. Ahlrichs, Phys. Chem. Chem. Phys. 7, 3297 (2005).
   D. Rappoport and F. Furche, J. Chem. Phys. 133 134105 (2010).

----- AuxJK basis set information -----
Your calculation utilizes the auxiliary basis: def2/JK
   H-Ba, Hf-Rn: F. Weigend, J. Comput. Chem. 29, 167 (2008).

================================================================================
                                        WARNINGS
                       Please study these warnings very carefully!
================================================================================

INFO   : Found keyword 'NumGrad' for Energy calculation
  ===> : Setting RunTyp to EnGrad

WARNING: Numerical Gradient with sloppy Convergence Criteria    
         Your results may be not reliable!                      
         Please choose at least TightSCF!                       

WARNING: your system is open-shell and RHF/RKS was chosen
  ===> : WILL SWITCH to UHF/UKS


INFO   : the flag for use of LIBINT has been found!

================================================================================
                                       INPUT FILE
================================================================================
NAME = FeH.in
|  1> #
|  2> # FeH wB97X-V/Def2-TZVPPD
|  3> #
|  4> ! wb97x-v def2-tzvppd def2/jk grid4 nofinalgrid numgrad
|  5> 
|  6> *xyz 0 4
|  7> Fe         0.00000        0.00000        0.00000
|  8> H          0.00000        0.00000        1.61000
|  9> *
| 10> 
| 11> %maxcore 5000
| 12> 
| 13> %pal
| 14> nprocs = 28
| 15> end
| 16> 
| 17> 
| 18>                          ****END OF INPUT****
================================================================================

                     *******************************
                     * Energy+Gradient Calculation *
                     *******************************

---------------------------------
CARTESIAN COORDINATES (ANGSTROEM)
---------------------------------
  Fe     0.000000    0.000000    0.000000
  H      0.000000    0.000000    1.610000

----------------------------
CARTESIAN COORDINATES (A.U.)
----------------------------
  NO LB      ZA    FRAG     MASS         X           Y           Z
   0 Fe   26.0000    0    55.850    0.000000    0.000000    0.000000
   1 H     1.0000    0     1.008    0.000000    0.000000    3.042459

--------------------------------
INTERNAL COORDINATES (ANGSTROEM)
--------------------------------
 Fe     0   0   0     0.000000000000     0.00000000     0.00000000
 H      1   0   0     1.610000000000     0.00000000     0.00000000

---------------------------
INTERNAL COORDINATES (A.U.)
---------------------------
 Fe     0   0   0     0.000000000000     0.00000000     0.00000000
 H      1   0   0     3.042459075613     0.00000000     0.00000000

---------------------
BASIS SET INFORMATION
---------------------
There are 2 groups of distinct atoms

 Group   1 Type Fe  : 17s13p7d2f1g contracted to 6s6p4d2f1g pattern {842111/631111/4111/11/1}
 Group   2 Type H   : 5s3p1d contracted to 3s3p1d pattern {311/111/1}

Atom   0Fe   basis set group =>   1
Atom   1H    basis set group =>   2
----------------------------------
AUXILIARY/JK BASIS SET INFORMATION
----------------------------------
There are 2 groups of distinct atoms

 Group   1 Type Fe  : 19s14p12d10f7g3h1i contracted to 16s13p11d9f5g3h1i pattern {4111111111111111/2111111111111/21111111111/211111111/31111/111/1}
 Group   2 Type H   : 4s2p2d contracted to 2s2p2d pattern {31/11/11}

Atom   0Fe   basis set group =>   1
Atom   1H    basis set group =>   2


           ************************************************************
           *        Program running with 28 parallel MPI-processes    *
           *              working on a common directory               *
           ************************************************************
------------------------------------------------------------------------------
                           ORCA GTO INTEGRAL CALCULATION
------------------------------------------------------------------------------

                         BASIS SET STATISTICS AND STARTUP INFO

 # of primitive gaussian shells          ...   49
 # of primitive gaussian functions       ...  133
 # of contracted shells                  ...   26
 # of contracted basis functions         ...   84
 Highest angular momentum                ...    4
 Maximum contraction depth               ...    8
 Integral package used                   ... LIBINT
 Integral threshhold            Thresh   ...  1.000e-10
 Primitive cut-off              TCut     ...  1.000e-11


------------------------------ INTEGRAL EVALUATION ----------------------------


 * One electron integrals 
 Pre-screening matrix                    ... done
 Shell pair data                         ... done (   0.000 sec)



           ************************************************************
           *        Program running with 28 parallel MPI-processes    *
           *              working on a common directory               *
           ************************************************************
-------------------------------------------------------------------------------
                                 ORCA SCF
-------------------------------------------------------------------------------

------------
SCF SETTINGS
------------
Hamiltonian:
 Density Functional     Method          .... DFT(GTOs)
 Exchange Functional    Exchange        .... WB97X-V
 Correlation Functional Correlation     .... WB97X-V
 Gradients option       PostSCFGGA      .... off
 Hybrid DFT is turned on
   Fraction HF Exchange ScalHFX         ....  0.167000
   Scaling of DF-GGA-X  ScalDFX         ....  0.000000
   Scaling of DF-GGA-C  ScalDFC         ....  1.000000
   Scaling of DF-LDA-C  ScalLDAC        ....  1.000000
   Perturbative correction              ....  0.000000
   Density functional embedding theory  .... OFF
 Long-range corrected/Screened/Range-Separated Hybrid DFT is turned on
   Amount of maximum screened exact exchange              ....  0.833000
   Range separation parameter mu (erf(mu*r12)/r12)        ....  0.300000
   NL short-range parameter             ....  6.000000
   NL long-range parameter              ....  0.010000


General Settings:
 Integral files         IntName         .... FeH
 Hartree-Fock type      HFTyp           .... UHF
 Total Charge           Charge          ....    0
 Multiplicity           Mult            ....    4
 Number of Electrons    NEL             ....   27
 Basis Dimension        Dim             ....   84
 Nuclear Repulsion      ENuc            ....      8.5457188918 Eh

Convergence Acceleration:
 DIIS                   CNVDIIS         .... on
   Start iteration      DIISMaxIt       ....    12
   Startup error        DIISStart       ....  0.200000
   # of expansion vecs  DIISMaxEq       ....     5
   Bias factor          DIISBfac        ....   1.050
   Max. coefficient     DIISMaxC        ....  10.000
 Newton-Raphson         CNVNR           .... off
 SOSCF                  CNVSOSCF        .... off
 Level Shifting         CNVShift        .... on
   Level shift para.    LevelShift      ....    0.2500
   Turn off err/grad.   ShiftErr        ....    0.0010
 Zerner damping         CNVZerner       .... off
 Static damping         CNVDamp         .... on
   Fraction old density DampFac         ....    0.7000
   Max. Damping (<1)    DampMax         ....    0.9800
   Min. Damping (>=0)   DampMin         ....    0.0000
   Turn off err/grad.   DampErr         ....    0.1000
 Fernandez-Rico         CNVRico         .... off

SCF Procedure:
 Maximum # iterations   MaxIter         ....   125
 SCF integral mode      SCFMode         .... Direct
   Integral package                     .... LIBINT
 Reset frequency        DirectResetFreq ....    20
 Integral Threshold     Thresh          ....  1.000e-10 Eh
 Primitive CutOff       TCut            ....  1.000e-11 Eh

Convergence Tolerance:
 Convergence Check Mode ConvCheckMode   .... Total+1el-Energy
 Convergence forced     ConvForced      .... 0
 Energy Change          TolE            ....  1.000e-06 Eh
 1-El. energy change                    ....  1.000e-03 Eh
 DIIS Error             TolErr          ....  1.000e-06


Diagonalization of the overlap matrix:
Smallest eigenvalue                        ... 3.098e-03
Time for diagonalization                   ...    0.002 sec
Threshold for overlap eigenvalues          ... 1.000e-08
Number of eigenvalues below threshold      ... 0
Time for construction of square roots      ...    0.008 sec
Total time needed                          ...    0.010 sec

-------------------
DFT GRID GENERATION
-------------------

General Integration Accuracy     IntAcc      ...  4.670
Radial Grid Type                 RadialGrid  ... Gauss-Chebyshev
Angular Grid (max. acc.)         AngularGrid ... Lebedev-302
Angular grid pruning method      GridPruning ... 3 (G Style)
Weight generation scheme         WeightScheme... Becke
Basis function cutoff            BFCut       ...    1.0000e-10
Integration weight cutoff        WCut        ...    1.0000e-14
Grids for H and He will be reduced by one unit

# of grid points (after initial pruning)     ...  13034 (   0.0 sec)
# of grid points (after weights+screening)   ...  12994 (   0.0 sec)
nearest neighbour list constructed           ...    0.0 sec
Grid point re-assignment to atoms done       ...    0.0 sec
Grid point division into batches done        ...    0.1 sec
Reduced shell lists constructed in    0.1 sec

Total number of grid points                  ...    12994
Total number of batches                      ...      204
Average number of points per batch           ...       63
Average number of grid points per atom       ...     6497
Average number of shells per batch           ...     5.22 (20.09%)
Average number of basis functions per batch  ...    13.89 (16.53%)
Average number of large shells per batch     ...     3.33 (63.83%)
Average number of large basis fcns per batch ...     9.78 (70.40%)
Maximum spatial batch extension              ...  31.41, 28.57, 17.22 au
Average spatial batch extension              ...   0.94,  0.82,  0.61 au

Time for grid setup =    0.116 sec

------------------------------
INITIAL GUESS: MODEL POTENTIAL
------------------------------
Loading Hartree-Fock densities                     ... done
Calculating cut-offs                               ... done
Setting up the integral package                    ... done
Initializing the effective Hamiltonian             ... done
Starting the Coulomb interaction                   ... done (   0.0 sec)
Reading the grid                                   ... done
Mapping shells                                     ... done
Starting the XC term evaluation                    ... done (   0.0 sec)
  promolecular density results
     # of electrons  =     26.999505627
     EX              =    -41.476574805
     EC              =     -1.556893981
     EX+EC           =    -43.033468786
Transforming the Hamiltonian                       ... done (   0.0 sec)
Diagonalizing the Hamiltonian                      ... done (   0.0 sec)
Back transforming the eigenvectors                 ... done (   0.0 sec)
Now organizing SCF variables                       ... done
                      ------------------
                      INITIAL GUESS DONE (   0.2 sec)
                      ------------------
--------------
SCF ITERATIONS
--------------
ITER       Energy         Delta-E        Max-DP      RMS-DP      [F,P]     Damp
               ***  Starting incremental Fock matrix formation  ***
  0  -1260.1764261506   0.000000000000 0.49910687  0.00945133  1.6644839 0.7000
  1  -1262.3806291870  -2.204203036381 0.27348111  0.00490799  0.4889154 0.7000
  2  -1262.9180656677  -0.537436480658 0.11709850  0.00332744  0.3909159 0.7000
  3  -1263.2144244637  -0.296358796033 0.15472652  0.00317720  0.3560476 0.7000
  4  -1263.4683823130  -0.253957849331 0.14409630  0.00248569  0.2260139 0.7000
                               ***Turning on DIIS***
  5  -1263.6584748115  -0.190092498480 0.11286569  0.00181991  0.1324065 0.7000
  6  -1263.7985508626  -0.140076051063 0.29693562  0.00458439  0.0838201 0.0000
  7  -1264.1634356414  -0.364884778804 0.05777139  0.00099076  0.0381094 0.0000
  8  -1264.1746179604  -0.011182318999 0.01924904  0.00048345  0.0475963 0.0000
  9  -1264.1785426887  -0.003924728256 0.01648143  0.00049020  0.0285266 0.0000
 10  -1264.1846868264  -0.006144137724 0.00726763  0.00027926  0.0121121 0.0000
 11  -1264.1867882879  -0.002101461565 0.00499698  0.00018177  0.0063370 0.0000
 12  -1264.1875194338  -0.000731145863 0.00238969  0.00009289  0.0033441 0.0000
 13  -1264.1877429538  -0.000223520012 0.00198869  0.00006469  0.0020568 0.0000
 14  -1264.1878646465  -0.000121692726 0.00193188  0.00005348  0.0019062 0.0000
 15  -1264.1879573163  -0.000092669723 0.00170321  0.00004480  0.0019507 0.0000
 16  -1264.1880336716  -0.000076355362 0.00112190  0.00002944  0.0019933 0.0000
 17  -1264.1880843071  -0.000050635460 0.00051620  0.00001237  0.0020209 0.0000
 18  -1264.1881046406  -0.000020333548 0.00025442  0.00000404  0.0020297 0.0000
 19  -1264.1881086185  -0.000003977886 0.00013983  0.00000275  0.0020479 0.0000
               *** Restarting incremental Fock matrix formation ***
                                   *** Resetting DIIS ***
 20  -1264.1881127787  -0.000004160177 0.00147010  0.00003613  0.0020550 0.0000
 21  -1264.1881782324  -0.000065453732 0.00117345  0.00002929  0.0021032 0.0000
 22  -1264.1882326316  -0.000054399189 0.00027378  0.00000408  0.0021416 0.0000
                 **** Energy Check signals convergence ****

               *****************************************************
               *                     SUCCESS                       *
               *           SCF CONVERGED AFTER  23 CYCLES          *
               *****************************************************


Setting up the DFT-NL grid :

General Integration Accuracy     IntAcc      ...  4.340
Radial Grid Type                 RadialGrid  ... Gauss-Chebyshev
Angular Grid (max. acc.)         AngularGrid ... Lebedev-110
Angular grid pruning method      GridPruning ... 3 (G Style)
Weight generation scheme         WeightScheme... Becke
Basis function cutoff            BFCut       ...    1.0000e-10
Integration weight cutoff        WCut        ...    1.0000e-14
Grids for H and He will be reduced by one unit

# of grid points (after initial pruning)     ...   3706 (   0.0 sec)
# of grid points (after weights+screening)   ...   3681 (   0.0 sec)
nearest neighbour list constructed           ...    0.0 sec
Grid point re-assignment to atoms done       ...    0.0 sec
Grid point division into batches done        ...    0.0 sec
Reduced shell lists constructed in    0.0 sec

Total number of grid points                  ...     3681
Total number of batches                      ...       58
Average number of points per batch           ...       63
Average number of grid points per atom       ...     1840
Average number of shells per batch           ...     8.50 (32.69%)
Average number of basis functions per batch  ...    22.50 (26.79%)
Average number of large shells per batch     ...     6.75 (79.41%)
Average number of large basis fcns per batch ...    18.75 (83.33%)
Maximum spatial batch extension              ...  37.20, 28.73, 20.01 au
Average spatial batch extension              ...   1.32,  1.34,  0.89 au

Final grid set up in    0.1 sec

-------------------------------------------------------------------------------
                         DFT-NL dispersion correction                          
-------------------------------------------------------------------------------

SC Energy -1264.188233009 
NL    Energy 0.114454765 
SC+NL Energy -1264.073778244 
NL done in    0.1 sec
-------------------------------------------------------------------------------

----------------
TOTAL SCF ENERGY
----------------

Total Energy       :        -1264.07377824 Eh          -34397.19623 eV

Components:
Nuclear Repulsion  :            8.54571889 Eh             232.54083 eV
Electronic Energy  :        -1272.61949714 Eh          -34629.73706 eV
One Electron Energy:        -1765.84078732 Eh          -48050.97069 eV
Two Electron Energy:          493.22129019 Eh           13421.23363 eV

Virial components:
Potential Energy   :        -2526.24985994 Eh          -68742.75350 eV
Kinetic Energy     :         1262.17608170 Eh           34345.55728 eV
Virial Ratio       :            2.00150351


DFT components:
N(Alpha)           :       15.000000296910 electrons
N(Beta)            :       12.000000201247 electrons
N(Total)           :       27.000000498157 electrons
E(X)               :      -41.702922308244 Eh       
E(C)               :       -1.545466374335 Eh       
NL Energy, E(C,NL) :        0.114454765414 Eh       
E(XC)              :      -43.133933917165 Eh       
DFET-embed. en.    :        0.000000000000 Eh       

---------------
SCF CONVERGENCE
---------------

  Last Energy change         ...   -3.7745e-07  Tolerance :   1.0000e-06
  Last MAX-Density change    ...    1.9948e-04  Tolerance :   1.0000e-05
  Last RMS-Density change    ...    4.8258e-06  Tolerance :   1.0000e-06
  Last DIIS Error            ...    2.1676e-03  Tolerance :   1.0000e-06

             **** THE GBW FILE WAS UPDATED (FeH.gbw) ****
             **** DENSITY FILE WAS UPDATED (FeH.scfp) ****
             **** ENERGY FILE WAS UPDATED (FeH.en.tmp) ****
----------------------
UHF SPIN CONTAMINATION
----------------------

Warning: in a DFT calculation there is little theoretical justification to 
         calculate <S**2> as in Hartree-Fock theory. We will do it anyways
         but you should keep in mind that the values have only limited relevance

Expectation value of <S**2>     :     3.771352
Ideal value S*(S+1) for S=1.5   :     3.750000
Deviation                       :     0.021352

             **** THE GBW FILE WAS UPDATED (FeH.gbw) ****
             **** DENSITY FILE WAS UPDATED (FeH.scfp) ****
----------------
ORBITAL ENERGIES
----------------
                 SPIN UP ORBITALS
  NO   OCC          E(Eh)            E(eV) 
   0   1.0000    -255.889713     -6963.1131 
   1   1.0000     -30.001569      -816.3842 
   2   1.0000     -25.862162      -703.7452 
   3   1.0000     -25.861754      -703.7341 
   4   1.0000     -25.836369      -703.0433 
   5   1.0000      -3.529531       -96.0434 
   6   1.0000      -2.326386       -63.3042 
   7   1.0000      -2.326200       -63.2991 
   8   1.0000      -2.271134       -61.8007 
   9   1.0000      -0.397919       -10.8279 
  10   1.0000      -0.372766       -10.1435 
  11   1.0000      -0.348717        -9.4891 
  12   1.0000      -0.320539        -8.7223 
  13   1.0000      -0.318732        -8.6731 
  14   1.0000      -0.303809        -8.2671 
  15   0.0000      -0.008815        -0.2399 
  16   0.0000       0.036794         1.0012 
  17   0.0000       0.040373         1.0986 
  18   0.0000       0.108816         2.9610 
  19   0.0000       0.131631         3.5819 
  20   0.0000       0.168941         4.5971 
  21   0.0000       0.174707         4.7540 
  22   0.0000       0.217676         5.9233 
  23   0.0000       0.249045         6.7769 
  24   0.0000       0.254529         6.9261 
  25   0.0000       0.265854         7.2343 
  26   0.0000       0.267259         7.2725 
  27   0.0000       0.358606         9.7582 
  28   0.0000       0.360228         9.8023 
  29   0.0000       0.362577         9.8662 
  30   0.0000       0.431516        11.7422 
  31   0.0000       0.578435        15.7400 
  32   0.0000       0.643396        17.5077 
  33   0.0000       0.656411        17.8618 
  34   0.0000       0.689032        18.7495 
  35   0.0000       0.914061        24.8729 
  36   0.0000       0.926549        25.2127 
  37   0.0000       1.014881        27.6163 
  38   0.0000       1.023176        27.8420 
  39   0.0000       1.123270        30.5657 
  40   0.0000       1.186299        32.2808 
  41   0.0000       1.197762        32.5928 
  42   0.0000       1.345002        36.5994 
  43   0.0000       2.380911        64.7879 
  44   0.0000       2.432437        66.1900 
  45   0.0000       2.457455        66.8707 
  46   0.0000       2.461278        66.9748 
  47   0.0000       2.472601        67.2829 
  48   0.0000       2.478898        67.4542 
  49   0.0000       2.482020        67.5392 
  50   0.0000       2.537770        69.0562 
  51   0.0000       2.565812        69.8193 
  52   0.0000       2.637272        71.7638 
  53   0.0000       2.890455        78.6533 
  54   0.0000       2.999534        81.6215 
  55   0.0000       3.397418        92.4485 
  56   0.0000       3.398389        92.4749 
  57   0.0000       3.500387        95.2504 
  58   0.0000       3.609010        98.2061 
  59   0.0000       3.614654        98.3597 
  60   0.0000       3.633943        98.8846 
  61   0.0000       3.644332        99.1673 
  62   0.0000       3.730957       101.5245 
  63   0.0000       3.743299       101.8604 
  64   0.0000       4.079548       111.0101 
  65   0.0000       4.082745       111.0971 
  66   0.0000       4.165321       113.3442 
  67   0.0000       4.897691       133.2730 
  68   0.0000       8.631511       234.8753 
  69   0.0000       8.632589       234.9047 
  70   0.0000       8.656258       235.5488 
  71   0.0000       8.657532       235.5834 
  72   0.0000       8.660937       235.6761 
  73   0.0000       8.662881       235.7290 
  74   0.0000       8.671798       235.9716 
  75   0.0000       8.690308       236.4753 
  76   0.0000       8.718528       237.2432 
  77   0.0000       9.334166       253.9956 
  78   0.0000       9.349850       254.4224 
  79   0.0000       9.353926       254.5333 
  80   0.0000       9.360795       254.7202 
  81   0.0000       9.402425       255.8530 
  82   0.0000       9.450622       257.1645 
  83   0.0000       9.711529       264.2641 

                 SPIN DOWN ORBITALS
  NO   OCC          E(Eh)            E(eV) 
   0   1.0000    -255.888905     -6963.0911 
   1   1.0000     -29.952014      -815.0357 
   2   1.0000     -25.819221      -702.5767 
   3   1.0000     -25.816502      -702.5027 
   4   1.0000     -25.804639      -702.1799 
   5   1.0000      -3.406806       -92.7039 
   6   1.0000      -2.178906       -59.2911 
   7   1.0000      -2.176186       -59.2170 
   8   1.0000      -2.169431       -59.0332 
   9   1.0000      -0.364232        -9.9113 
  10   1.0000      -0.261121        -7.1055 
  11   1.0000      -0.260354        -7.0846 
  12   0.0000      -0.011704        -0.3185 
  13   0.0000       0.045081         1.2267 
  14   0.0000       0.047199         1.2844 
  15   0.0000       0.067974         1.8497 
  16   0.0000       0.099817         2.7162 
  17   0.0000       0.121281         3.3002 
  18   0.0000       0.131987         3.5915 
  19   0.0000       0.149657         4.0724 
  20   0.0000       0.180493         4.9115 
  21   0.0000       0.183440         4.9917 
  22   0.0000       0.238414         6.4876 
  23   0.0000       0.258656         7.0384 
  24   0.0000       0.271185         7.3793 
  25   0.0000       0.273596         7.4449 
  26   0.0000       0.294655         8.0180 
  27   0.0000       0.362465         9.8632 
  28   0.0000       0.363486         9.8910 
  29   0.0000       0.368138        10.0175 
  30   0.0000       0.442564        12.0428 
  31   0.0000       0.581856        15.8331 
  32   0.0000       0.665289        18.1034 
  33   0.0000       0.671968        18.2852 
  34   0.0000       0.705381        19.1944 
  35   0.0000       0.933719        25.4078 
  36   0.0000       0.940368        25.5887 
  37   0.0000       1.046243        28.4697 
  38   0.0000       1.065523        28.9943 
  39   0.0000       1.157277        31.4911 
  40   0.0000       1.206928        32.8422 
  41   0.0000       1.210386        32.9363 
  42   0.0000       1.353021        36.8176 
  43   0.0000       2.424778        65.9816 
  44   0.0000       2.489312        67.7376 
  45   0.0000       2.503925        68.1353 
  46   0.0000       2.514741        68.4296 
  47   0.0000       2.537454        69.0476 
  48   0.0000       2.550115        69.3922 
  49   0.0000       2.552200        69.4489 
  50   0.0000       2.602516        70.8181 
  51   0.0000       2.622267        71.3555 
  52   0.0000       2.663368        72.4739 
  53   0.0000       2.919715        79.4495 
  54   0.0000       3.059566        83.2550 
  55   0.0000       3.391491        92.2872 
  56   0.0000       3.392609        92.3176 
  57   0.0000       3.580324        97.4256 
  58   0.0000       3.677447       100.0684 
  59   0.0000       3.679577       100.1264 
  60   0.0000       3.688528       100.3700 
  61   0.0000       3.722865       101.3043 
  62   0.0000       3.754859       102.1749 
  63   0.0000       3.763824       102.4189 
  64   0.0000       4.069014       110.7235 
  65   0.0000       4.070353       110.7599 
  66   0.0000       4.167628       113.4069 
  67   0.0000       4.922802       133.9563 
  68   0.0000       8.719623       237.2730 
  69   0.0000       8.726697       237.4655 
  70   0.0000       8.734474       237.6771 
  71   0.0000       8.736000       237.7186 
  72   0.0000       8.747079       238.0201 
  73   0.0000       8.754669       238.2267 
  74   0.0000       8.758419       238.3287 
  75   0.0000       8.766580       238.5508 
  76   0.0000       8.808495       239.6913 
  77   0.0000       9.439410       256.8594 
  78   0.0000       9.455044       257.2848 
  79   0.0000       9.460876       257.4435 
  80   0.0000       9.465339       257.5650 
  81   0.0000       9.544647       259.7231 
  82   0.0000       9.551720       259.9155 
  83   0.0000       9.836841       267.6741 

                    ********************************
                    * MULLIKEN POPULATION ANALYSIS *
                    ********************************

--------------------------------------------
MULLIKEN ATOMIC CHARGES AND SPIN POPULATIONS
--------------------------------------------
   0 Fe:    0.131256    3.124610
   1 H :   -0.131256   -0.124610
Sum of atomic charges         :    0.0000000
Sum of atomic spin populations:    3.0000000

-----------------------------------------------------
MULLIKEN REDUCED ORBITAL CHARGES AND SPIN POPULATIONS
-----------------------------------------------------
CHARGE
  0 Fes       :     6.749239  s :     6.749239
      pz      :     4.118839  p :    12.122949
      px      :     4.000680
      py      :     4.003430
      dz2     :     1.013218  d :     6.995565
      dxz     :     1.021314
      dyz     :     1.971414
      dx2y2   :     0.999526
      dxy     :     1.990094
      f0      :     0.000530  f :     0.000930
      f+1     :     0.000042
      f-1     :     0.000108
      f+2     :     0.000069
      f-2     :     0.000083
      f+3     :     0.000048
      f-3     :     0.000051
      g0      :     0.000011  g :     0.000061
      g+1     :     0.000001
      g-1     :     0.000005
      g+2     :     0.000006
      g-2     :     0.000002
      g+3     :     0.000012
      g-3     :     0.000004
      g+4     :     0.000012
      g-4     :     0.000007
  1 H s       :     1.135513  s :     1.135513
      pz      :    -0.007746  p :    -0.005388
      px      :     0.000661
      py      :     0.001697
      dz2     :     0.000570  d :     0.001130
      dxz     :     0.000164
      dyz     :     0.000370
      dx2y2   :     0.000007
      dxy     :     0.000020

SPIN
  0 Fes       :     0.291975  s :     0.291975
      pz      :    -0.002141  p :    -0.002352
      px      :     0.000659
      py      :    -0.000870
      dz2     :     0.826194  d :     2.834942
      dxz     :     0.975512
      dyz     :     0.024316
      dx2y2   :     0.999124
      dxy     :     0.009796
      f0      :    -0.000030  f :     0.000011
      f+1     :     0.000036
      f-1     :    -0.000029
      f+2     :     0.000056
      f-2     :    -0.000001
      f+3     :     0.000026
      f-3     :    -0.000047
      g0      :     0.000005  g :     0.000034
      g+1     :     0.000001
      g-1     :     0.000001
      g+2     :     0.000003
      g-2     :     0.000001
      g+3     :     0.000012
      g-3     :     0.000001
      g+4     :     0.000006
      g-4     :     0.000003
  1 H s       :    -0.123044  s :    -0.123044
      pz      :    -0.002231  p :    -0.001971
      px      :     0.000683
      py      :    -0.000423
      dz2     :     0.000281  d :     0.000405
      dxz     :     0.000149
      dyz     :    -0.000028
      dx2y2   :     0.000007
      dxy     :    -0.000005


                     *******************************
                     * LOEWDIN POPULATION ANALYSIS *
                     *******************************

-------------------------------------------
LOEWDIN ATOMIC CHARGES AND SPIN POPULATIONS
-------------------------------------------
   0 Fe:    0.233072    3.007736
   1 H :   -0.233072   -0.007736

----------------------------------------------------
LOEWDIN REDUCED ORBITAL CHARGES AND SPIN POPULATIONS
----------------------------------------------------
CHARGE
  0 Fes       :     6.616672  s :     6.616672
      pz      :     4.153001  p :    12.157452
      px      :     3.999917
      py      :     4.004534
      dz2     :     1.043588  d :     6.990770
      dxz     :     1.011859
      dyz     :     1.946030
      dx2y2   :     0.999433
      dxy     :     1.989859
      f0      :     0.001393  f :     0.001974
      f+1     :     0.000096
      f-1     :     0.000232
      f+2     :     0.000070
      f-2     :     0.000085
      f+3     :     0.000048
      f-3     :     0.000051
      g0      :     0.000015  g :     0.000060
      g+1     :     0.000001
      g-1     :     0.000002
      g+2     :     0.000006
      g-2     :     0.000002
      g+3     :     0.000012
      g-3     :     0.000004
      g+4     :     0.000012
      g-4     :     0.000007
  1 H s       :     1.115202  s :     1.115202
      pz      :     0.075927  p :     0.108215
      px      :     0.009404
      py      :     0.022884
      dz2     :     0.004377  d :     0.009654
      dxz     :     0.001585
      dyz     :     0.003341
      dx2y2   :     0.000099
      dxy     :     0.000253

SPIN
  0 Fes       :     0.222594  s :     0.222594
      pz      :    -0.025540  p :    -0.025902
      px      :     0.001187
      py      :    -0.001549
      dz2     :     0.808032  d :     2.811124
      dxz     :     0.966702
      dyz     :     0.027539
      dx2y2   :     0.999032
      dxy     :     0.009819
      f0      :    -0.000193  f :    -0.000108
      f+1     :     0.000087
      f-1     :    -0.000036
      f+2     :     0.000057
      f-2     :    -0.000001
      f+3     :     0.000026
      f-3     :    -0.000047
      g0      :     0.000001  g :     0.000028
      g+1     :     0.000000
      g-1     :     0.000001
      g+2     :     0.000003
      g-2     :     0.000001
      g+3     :     0.000012
      g-3     :     0.000001
      g+4     :     0.000006
      g-4     :     0.000003
  1 H s       :    -0.037774  s :    -0.037774
      pz      :     0.022267  p :     0.026977
      px      :     0.007601
      py      :    -0.002891
      dz2     :     0.001621  d :     0.003061
      dxz     :     0.001465
      dyz     :    -0.000096
      dx2y2   :     0.000099
      dxy     :    -0.000027


                      *****************************
                      * MAYER POPULATION ANALYSIS *
                      *****************************

  NA   - Mulliken gross atomic population
  ZA   - Total nuclear charge
  QA   - Mulliken gross atomic charge
  VA   - Mayer's total valence
  BVA  - Mayer's bonded valence
  FA   - Mayer's free valence

  ATOM       NA         ZA         QA         VA         BVA        FA
  0 Fe    25.8687    26.0000     0.1313     3.9624     0.9514     3.0110
  1 H      1.1313     1.0000    -0.1313     0.9661     0.9514     0.0146

  Mayer bond orders larger than 0.100000
B(  0-Fe,  1-H ) :   0.9514 

-------
TIMINGS
-------

Total SCF time: 0 days 0 hours 0 min 17 sec 

Total time                  ....      17.597 sec
Sum of individual times     ....      16.902 sec  ( 96.1%)

Fock matrix formation       ....      16.101 sec  ( 91.5%)
  XC integration            ....       9.818 sec  ( 61.0% of F)
    Basis function eval.    ....       0.024 sec  (  0.2% of XC)
    Density eval.           ....       0.032 sec  (  0.3% of XC)
    XC-Functional eval.     ....       0.036 sec  (  0.4% of XC)
    XC-Potential eval.      ....       0.050 sec  (  0.5% of XC)
Diagonalization             ....       0.267 sec  (  1.5%)
Density matrix formation    ....       0.009 sec  (  0.1%)
Population analysis         ....       0.063 sec  (  0.4%)
Initial guess               ....       0.118 sec  (  0.7%)
Orbital Transformation      ....       0.000 sec  (  0.0%)
Orbital Orthonormalization  ....       0.000 sec  (  0.0%)
DIIS solution               ....       0.177 sec  (  1.0%)
Grid generation             ....       0.166 sec  (  0.9%)

-------------------------   --------------------
FINAL SINGLE POINT ENERGY     -1264.073778243654
-------------------------   --------------------


----------------------------------------------------------------------------
                           ORCA NUMERICAL GRADIENT
                              (28-process run)
----------------------------------------------------------------------------

I state                        ... 1
J state                        ... 0
Number of atoms                ... 2
Derivative's order of accuracy ... 2
Central differences            ... used
Number of displacements        ... 12
Numerical increment            ... 5.000e-03 bohr
Translation invariance         ... used

The output will be reduced. Please look at the following files:
SCF program output             ... >FeH.lastscf
Integral program output        ... >FeH.lastint
Gradient program output        ... >FeH.lastgrad


     Note:   There are more processes than displacements to do
     ===>:   Reducing number of processes to   3

             <<<Displacing   2/coordinate 2 (+)>>>
             <<<Displacing   2/coordinate 3 (+)>>>
             <<<Displacing   2/coordinate 1 (+)>>>
             <<<Displacing   2/coordinate 2 (-)>>>
             <<<Displacing   2/coordinate 1 (-)>>>
             <<<Displacing   2/coordinate 3 (-)>>>

------------------------------
CARTESIAN GRADIENT (NUMERICAL)
-------------------------------
   1   Fe  :   -0.000000001   -0.000000000    1.342149312
   2   H   :    0.000000001    0.000000000   -1.342149312

Norm of the cartesian gradient     ...    1.898085760
RMS gradient                       ...    0.774890267
MAX gradient                       ...    1.342149312

-------
TIMINGS
-------

Total numerical gradient time      ...      152.309 sec


                            ***************************************
                            *     ORCA property calculations      *
                            ***************************************

                                    ---------------------
                                    Active property flags
                                    ---------------------
   (+) Dipole Moment


------------------------------------------------------------------------------
                       ORCA ELECTRIC PROPERTIES CALCULATION
------------------------------------------------------------------------------

Dipole Moment Calculation                       ... on
Quadrupole Moment Calculation                   ... off
Polarizability Calculation                      ... off
GBWName                                         ... FeH.gbw
Electron density file                           ... FeH.scfp
The origin for moment calculation is the CENTER OF MASS  = ( 0.000000,  0.000000  0.053938)

-------------
DIPOLE MOMENT
-------------
                                X             Y             Z
Electronic contribution:      0.00000      -0.00000      -3.05232
Nuclear contribution   :      0.00000       0.00000       1.58614
                        -----------------------------------------
Total Dipole Moment    :      0.00000      -0.00000      -1.46618
                        -----------------------------------------
Magnitude (a.u.)       :      1.46618
Magnitude (Debye)      :      3.72673



--------------------
Rotational spectrum 
--------------------
 
Rotational constants in cm-1:     0.000000     6.568301     6.568301 
Rotational constants in MHz :     0.000000 196912.697447 196912.697447 

 Dipole components along the rotational axes: 
x,y,z [a.u.] :    -1.466179    -0.000000     0.000000 
x,y,z [Debye]:    -3.726730    -0.000000     0.000000 

 

Timings for individual modules:

Sum of individual times         ...      171.574 sec (=   2.860 min)
GTO integral calculation        ...        1.092 sec (=   0.018 min)   0.6 %
SCF iterations                  ...       18.173 sec (=   0.303 min)  10.6 %
SCF Gradient evaluation         ...      152.309 sec (=   2.538 min)  88.8 %
                             ****ORCA TERMINATED NORMALLY****
TOTAL RUN TIME: 0 days 0 hours 2 minutes 52 seconds 309 msec
