
                                 *****************
                                 * O   R   C   A *
                                 *****************

           --- An Ab Initio, DFT and Semiempirical electronic structure package ---

                  #######################################################
                  #                        -***-                        #
                  #          Department of theory and spectroscopy      #
                  #               Directorship: Frank Neese             #
                  #        Max Planck Institute fuer Kohlenforschung    #
                  #                Kaiser Wilhelm Platz 1               #
                  #                 D-45470 Muelheim/Ruhr               #
                  #                      Germany                        #
                  #                                                     #
                  #                  All rights reserved                #
                  #                        -***-                        #
                  #######################################################


                         Program Version 4.2.0 -  RELEASE  -


 With contributions from (in alphabetic order):
   Daniel Aravena         : Magnetic Suceptibility
   Michael Atanasov       : Ab Initio Ligand Field Theory (pilot matlab implementation)
   Alexander A. Auer      : GIAO ZORA, VPT2
   Ute Becker             : Parallelization
   Giovanni Bistoni       : ED, misc. LED, open-shell LED, HFLED
   Martin Brehm           : Molecular dynamics
   Dmytro Bykov           : SCF Hessian
   Vijay G. Chilkuri      : MRCI spin determinant printing, contributions to CSF-ICE
   Dipayan Datta          : RHF DLPNO-CCSD density
   Achintya Kumar Dutta   : EOM-CC, STEOM-CC
   Dmitry Ganyushin       : Spin-Orbit,Spin-Spin,Magnetic field MRCI
   Miquel Garcia          : C-PCM Hessian, Gaussian charge scheme
   Yang Guo               : DLPNO-NEVPT2, CIM, IAO-localization
   Andreas Hansen         : Spin unrestricted coupled pair/coupled cluster methods
   Benjamin Helmich-Paris : CASSCF linear response (MC-RPA)
   Lee Huntington         : MR-EOM, pCC
   Robert Izsak           : Overlap fitted RIJCOSX, COSX-SCS-MP3, EOM
   Christian Kollmar      : KDIIS, OOCD, Brueckner-CCSD(T), CCSD density
   Simone Kossmann        : Meta GGA functionals, TD-DFT gradient, OOMP2, MP2 Hessian
   Martin Krupicka        : AUTO-CI
   Lucas Lang             : DCDCAS
   Dagmar Lenk            : GEPOL surface, SMD
   Dimitrios Liakos       : Extrapolation schemes; Compound Job, initial MDCI parallelization
   Dimitrios Manganas     : Further ROCIS development; embedding schemes
   Dimitrios Pantazis     : SARC Basis sets
   Taras Petrenko         : DFT Hessian,TD-DFT gradient, ASA, ECA, R-Raman, ABS, FL, XAS/XES, NRVS
   Peter Pinski           : DLPNO-MP2, DLPNO-MP2 Gradient
   Christoph Reimann      : Effective Core Potentials
   Marius Retegan         : Local ZFS, SOC
   Christoph Riplinger    : Optimizer, TS searches, QM/MM, DLPNO-CCSD(T), (RO)-DLPNO pert. Triples
   Tobias Risthaus        : Range-separated hybrids, TD-DFT gradient, RPA, STAB
   Michael Roemelt        : Original ROCIS implementation
   Masaaki Saitow         : Open-shell DLPNO-CCSD energy and density
   Barbara Sandhoefer     : DKH picture change effects
   Avijit Sen             : IP-ROCIS
   Kantharuban Sivalingam : CASSCF convergence, NEVPT2, FIC-MRCI
   Bernardo de Souza      : ESD, SOC TD-DFT
   Georgi Stoychev        : AutoAux, RI-MP2 NMR
   Willem Van den Heuvel  : Paramagnetic NMR
   Boris Wezisla          : Elementary symmetry handling
   Frank Wennmohs         : Technical directorship


 We gratefully acknowledge several colleagues who have allowed us to
 interface, adapt or use parts of their codes:
   Stefan Grimme, W. Hujo, H. Kruse,             : VdW corrections, initial TS optimization,
                  C. Bannwarth                     DFT functionals, gCP, sTDA/sTD-DF
   Ed Valeev, F. Pavosevic, A. Kumar             : LibInt (2-el integral package), F12 methods
   Garnet Chan, S. Sharma, J. Yang, R. Olivares  : DMRG
   Ulf Ekstrom                                   : XCFun DFT Library
   Mihaly Kallay                                 : mrcc  (arbitrary order and MRCC methods)
   Andreas Klamt, Michael Diedenhofen            : otool_cosmo (COSMO solvation model)
   Jiri Pittner, Ondrej Demel                    : Mk-CCSD
   Frank Weinhold                                : gennbo (NPA and NBO analysis)
   Christopher J. Cramer and Donald G. Truhlar   : smd solvation model
   Lars Goerigk                                  : TD-DFT with DH, B97 family of functionals
   V. Asgeirsson, H. Jonsson                     : NEB implementation
   FAccTs GmbH                                   : IRC, NEB, NEB-TS, Multilevel, MM, QM/MM, CI optimization
   S Lehtola, MJT Oliveira, MAL Marques          : LibXC Library


 Your calculation uses the libint2 library for the computation of 2-el integrals
 For citations please refer to: http://libint.valeyev.net

 Your ORCA version has been built with support for libXC version: 4.2.3
 For citations please refer to: https://tddft.org/programs/libxc/

 This ORCA versions uses:
   CBLAS   interface :  Fast vector & matrix operations
   LAPACKE interface :  Fast linear algebra routines
   SCALAPACK package :  Parallel linear algebra routines


Your calculation utilizes the DFT-NL dispersion correction.
Cite in your paper:
Vydrov, O. A.; Van Voorhis, T. J. Chem. Phys. 2010, 133, 244103
Hujo, W.; Grimme, S. J. Chem. Theory Comput. 2011, 7, 3866 
   

----- Orbital basis set information -----
Your calculation utilizes the basis: def2-TZVPPD
   F. Weigend and R. Ahlrichs, Phys. Chem. Chem. Phys. 7, 3297 (2005).
   D. Rappoport and F. Furche, J. Chem. Phys. 133 134105 (2010).

----- AuxJK basis set information -----
Your calculation utilizes the auxiliary basis: def2/JK
   H-Ba, Hf-Rn: F. Weigend, J. Comput. Chem. 29, 167 (2008).

================================================================================
                                        WARNINGS
                       Please study these warnings very carefully!
================================================================================

INFO   : Found keyword 'NumGrad' for Energy calculation
  ===> : Setting RunTyp to EnGrad

WARNING: Numerical Gradient with sloppy Convergence Criteria    
         Your results may be not reliable!                      
         Please choose at least TightSCF!                       

INFO   : the flag for use of LIBINT has been found!

================================================================================
                                       INPUT FILE
================================================================================
NAME = LiCl.in
|  1> #
|  2> # LiCl wB97X-V/Def2-TZVPPD
|  3> #
|  4> ! wb97x-v def2-tzvppd def2/jk grid4 nofinalgrid numgrad
|  5> 
|  6> *xyz 0 1
|  7> Li         0.00000        0.00000        0.00000
|  8> Cl         0.00000        0.00000        2.02067
|  9> *
| 10> 
| 11> %maxcore 5000
| 12> 
| 13> %pal
| 14> nprocs = 28
| 15> end
| 16> 
| 17> 
| 18>                          ****END OF INPUT****
================================================================================

                     *******************************
                     * Energy+Gradient Calculation *
                     *******************************

---------------------------------
CARTESIAN COORDINATES (ANGSTROEM)
---------------------------------
  Li     0.000000    0.000000    0.000000
  Cl     0.000000    0.000000    2.020670

----------------------------
CARTESIAN COORDINATES (A.U.)
----------------------------
  NO LB      ZA    FRAG     MASS         X           Y           Z
   0 Li    3.0000    0     6.941    0.000000    0.000000    0.000000
   1 Cl   17.0000    0    35.453    0.000000    0.000000    3.818513

--------------------------------
INTERNAL COORDINATES (ANGSTROEM)
--------------------------------
 Li     0   0   0     0.000000000000     0.00000000     0.00000000
 Cl     1   0   0     2.020670000000     0.00000000     0.00000000

---------------------------
INTERNAL COORDINATES (A.U.)
---------------------------
 Li     0   0   0     0.000000000000     0.00000000     0.00000000
 Cl     1   0   0     3.818512907031     0.00000000     0.00000000

---------------------
BASIS SET INFORMATION
---------------------
There are 2 groups of distinct atoms

 Group   1 Type Li  : 11s4p1d contracted to 5s4p1d pattern {62111/1111/1}
 Group   2 Type Cl  : 15s10p4d1f contracted to 6s6p4d1f pattern {732111/511111/1111/1}

Atom   0Li   basis set group =>   1
Atom   1Cl   basis set group =>   2
----------------------------------
AUXILIARY/JK BASIS SET INFORMATION
----------------------------------
There are 2 groups of distinct atoms

 Group   1 Type Li  : 10s7p4d2f contracted to 7s5p3d2f pattern {4111111/31111/211/11}
 Group   2 Type Cl  : 16s12p10d4f1g contracted to 13s11p9d4f1g pattern {4111111111111/21111111111/211111111/1111/1}

Atom   0Li   basis set group =>   1
Atom   1Cl   basis set group =>   2


           ************************************************************
           *        Program running with 28 parallel MPI-processes    *
           *              working on a common directory               *
           ************************************************************
------------------------------------------------------------------------------
                           ORCA GTO INTEGRAL CALCULATION
------------------------------------------------------------------------------

                         BASIS SET STATISTICS AND STARTUP INFO

 # of primitive gaussian shells          ...   46
 # of primitive gaussian functions       ...  100
 # of contracted shells                  ...   27
 # of contracted basis functions         ...   73
 Highest angular momentum                ...    3
 Maximum contraction depth               ...    7
 Integral package used                   ... LIBINT
 Integral threshhold            Thresh   ...  1.000e-10
 Primitive cut-off              TCut     ...  1.000e-11


------------------------------ INTEGRAL EVALUATION ----------------------------


 * One electron integrals 
 Pre-screening matrix                    ... done
 Shell pair data                         ... done (   0.000 sec)



           ************************************************************
           *        Program running with 28 parallel MPI-processes    *
           *              working on a common directory               *
           ************************************************************
-------------------------------------------------------------------------------
                                 ORCA SCF
-------------------------------------------------------------------------------

------------
SCF SETTINGS
------------
Hamiltonian:
 Density Functional     Method          .... DFT(GTOs)
 Exchange Functional    Exchange        .... WB97X-V
 Correlation Functional Correlation     .... WB97X-V
 Gradients option       PostSCFGGA      .... off
 Hybrid DFT is turned on
   Fraction HF Exchange ScalHFX         ....  0.167000
   Scaling of DF-GGA-X  ScalDFX         ....  0.000000
   Scaling of DF-GGA-C  ScalDFC         ....  1.000000
   Scaling of DF-LDA-C  ScalLDAC        ....  1.000000
   Perturbative correction              ....  0.000000
   Density functional embedding theory  .... OFF
 Long-range corrected/Screened/Range-Separated Hybrid DFT is turned on
   Amount of maximum screened exact exchange              ....  0.833000
   Range separation parameter mu (erf(mu*r12)/r12)        ....  0.300000
   NL short-range parameter             ....  6.000000
   NL long-range parameter              ....  0.010000


General Settings:
 Integral files         IntName         .... LiCl
 Hartree-Fock type      HFTyp           .... RHF
 Total Charge           Charge          ....    0
 Multiplicity           Mult            ....    1
 Number of Electrons    NEL             ....   20
 Basis Dimension        Dim             ....   73
 Nuclear Repulsion      ENuc            ....     13.3559847097 Eh

Convergence Acceleration:
 DIIS                   CNVDIIS         .... on
   Start iteration      DIISMaxIt       ....    12
   Startup error        DIISStart       ....  0.200000
   # of expansion vecs  DIISMaxEq       ....     5
   Bias factor          DIISBfac        ....   1.050
   Max. coefficient     DIISMaxC        ....  10.000
 Newton-Raphson         CNVNR           .... off
 SOSCF                  CNVSOSCF        .... on
   Start iteration      SOSCFMaxIt      ....   150
   Startup grad/error   SOSCFStart      ....  0.003300
 Level Shifting         CNVShift        .... on
   Level shift para.    LevelShift      ....    0.2500
   Turn off err/grad.   ShiftErr        ....    0.0010
 Zerner damping         CNVZerner       .... off
 Static damping         CNVDamp         .... on
   Fraction old density DampFac         ....    0.7000
   Max. Damping (<1)    DampMax         ....    0.9800
   Min. Damping (>=0)   DampMin         ....    0.0000
   Turn off err/grad.   DampErr         ....    0.1000
 Fernandez-Rico         CNVRico         .... off

SCF Procedure:
 Maximum # iterations   MaxIter         ....   125
 SCF integral mode      SCFMode         .... Direct
   Integral package                     .... LIBINT
 Reset frequency        DirectResetFreq ....    20
 Integral Threshold     Thresh          ....  1.000e-10 Eh
 Primitive CutOff       TCut            ....  1.000e-11 Eh

Convergence Tolerance:
 Convergence Check Mode ConvCheckMode   .... Total+1el-Energy
 Convergence forced     ConvForced      .... 0
 Energy Change          TolE            ....  1.000e-06 Eh
 1-El. energy change                    ....  1.000e-03 Eh
 Orbital Gradient       TolG            ....  5.000e-05
 Orbital Rotation angle TolX            ....  5.000e-05
 DIIS Error             TolErr          ....  1.000e-06


Diagonalization of the overlap matrix:
Smallest eigenvalue                        ... 3.984e-03
Time for diagonalization                   ...    0.001 sec
Threshold for overlap eigenvalues          ... 1.000e-08
Number of eigenvalues below threshold      ... 0
Time for construction of square roots      ...    0.011 sec
Total time needed                          ...    0.012 sec

-------------------
DFT GRID GENERATION
-------------------

General Integration Accuracy     IntAcc      ...  4.670
Radial Grid Type                 RadialGrid  ... Gauss-Chebyshev
Angular Grid (max. acc.)         AngularGrid ... Lebedev-302
Angular grid pruning method      GridPruning ... 3 (G Style)
Weight generation scheme         WeightScheme... Becke
Basis function cutoff            BFCut       ...    1.0000e-10
Integration weight cutoff        WCut        ...    1.0000e-14
Grids for H and He will be reduced by one unit

# of grid points (after initial pruning)     ...  12614 (   0.0 sec)
# of grid points (after weights+screening)   ...  12585 (   0.0 sec)
nearest neighbour list constructed           ...    0.0 sec
Grid point re-assignment to atoms done       ...    0.0 sec
Grid point division into batches done        ...    0.1 sec
Reduced shell lists constructed in    0.1 sec

Total number of grid points                  ...    12585
Total number of batches                      ...      198
Average number of points per batch           ...       63
Average number of grid points per atom       ...     6292
Average number of shells per batch           ...     3.89 (14.40%)
Average number of basis functions per batch  ...     8.78 (12.02%)
Average number of large shells per batch     ...     2.56 (65.71%)
Average number of large basis fcns per batch ...     6.11 (69.62%)
Maximum spatial batch extension              ...  43.84, 39.87, 24.07 au
Average spatial batch extension              ...   1.35,  1.20,  0.90 au

Time for grid setup =    0.107 sec

------------------------------
INITIAL GUESS: MODEL POTENTIAL
------------------------------
Loading Hartree-Fock densities                     ... done
Calculating cut-offs                               ... done
Setting up the integral package                    ... done
Initializing the effective Hamiltonian             ... done
Starting the Coulomb interaction                   ... done (   0.0 sec)
Reading the grid                                   ... done
Mapping shells                                     ... done
Starting the XC term evaluation                    ... done (   0.0 sec)
  promolecular density results
     # of electrons  =     20.000059835
     EX              =    -21.561538538
     EC              =     -0.976462214
     EX+EC           =    -22.538000752
Transforming the Hamiltonian                       ... done (   0.0 sec)
Diagonalizing the Hamiltonian                      ... done (   0.0 sec)
Back transforming the eigenvectors                 ... done (   0.0 sec)
Now organizing SCF variables                       ... done
                      ------------------
                      INITIAL GUESS DONE (   0.2 sec)
                      ------------------
--------------
SCF ITERATIONS
--------------
ITER       Energy         Delta-E        Max-DP      RMS-DP      [F,P]     Damp
               ***  Starting incremental Fock matrix formation  ***
  0   -467.7832292664   0.000000000000 0.03429224  0.00115878  0.2914015 0.7000
  1   -467.7965415332  -0.013312266782 0.02019705  0.00079829  0.1769623 0.7000
                               ***Turning on DIIS***
  2   -467.8044251383  -0.007883605099 0.01015760  0.00047931  0.1054855 0.7000
  3   -467.8094284402  -0.005003301882 0.02222121  0.00096262  0.0646171 0.0000
  4   -467.8206350127  -0.011206572450 0.00457224  0.00016521  0.0042425 0.0000
                      *** Initiating the SOSCF procedure ***
                           *** Shutting down DIIS ***
                      *** Re-Reading the Fockian *** 
                      *** Removing any level shift *** 
ITER      Energy       Delta-E        Grad      Rot      Max-DP    RMS-DP
  5   -467.82068748  -0.0000524682  0.000837  0.000837  0.001589  0.000081
               *** Restarting incremental Fock matrix formation ***
  6   -467.82070224  -0.0000147560  0.000405  0.000825  0.001203  0.000049
  7   -467.82070653  -0.0000042926  0.000144  0.000559  0.000745  0.000029
  8   -467.82070723  -0.0000006985  0.000064  0.000078  0.000168  0.000005
                 **** Energy Check signals convergence ****
              ***Rediagonalizing the Fockian in SOSCF/NRSCF***

               *****************************************************
               *                     SUCCESS                       *
               *           SCF CONVERGED AFTER   9 CYCLES          *
               *****************************************************


Setting up the DFT-NL grid :

General Integration Accuracy     IntAcc      ...  4.340
Radial Grid Type                 RadialGrid  ... Gauss-Chebyshev
Angular Grid (max. acc.)         AngularGrid ... Lebedev-110
Angular grid pruning method      GridPruning ... 3 (G Style)
Weight generation scheme         WeightScheme... Becke
Basis function cutoff            BFCut       ...    1.0000e-10
Integration weight cutoff        WCut        ...    1.0000e-14
Grids for H and He will be reduced by one unit

# of grid points (after initial pruning)     ...   3484 (   0.0 sec)
# of grid points (after weights+screening)   ...   3459 (   0.0 sec)
nearest neighbour list constructed           ...    0.0 sec
Grid point re-assignment to atoms done       ...    0.0 sec
Grid point division into batches done        ...    0.0 sec
Reduced shell lists constructed in    0.0 sec

Total number of grid points                  ...     3459
Total number of batches                      ...       55
Average number of points per batch           ...       62
Average number of grid points per atom       ...     1730
Average number of shells per batch           ...     6.67 (24.69%)
Average number of basis functions per batch  ...    17.33 (23.74%)
Average number of large shells per batch     ...     6.00 (90.00%)
Average number of large basis fcns per batch ...    16.67 (96.15%)
Maximum spatial batch extension              ...  28.07, 51.31, 27.48 au
Average spatial batch extension              ...   1.02,  1.87,  1.00 au

Final grid set up in    0.2 sec

-------------------------------------------------------------------------------
                         DFT-NL dispersion correction                          
-------------------------------------------------------------------------------

SC Energy -467.820707264 
NL    Energy 0.084975105 
SC+NL Energy -467.735732159 
NL done in    0.0 sec
-------------------------------------------------------------------------------

----------------
TOTAL SCF ENERGY
----------------

Total Energy       :         -467.73573216 Eh          -12727.73634 eV

Components:
Nuclear Repulsion  :           13.35598471 Eh             363.43482 eV
Electronic Energy  :         -481.09171687 Eh          -13091.17116 eV
One Electron Energy:         -673.73045430 Eh          -18333.13770 eV
Two Electron Energy:          192.63873743 Eh            5241.96654 eV

Virial components:
Potential Energy   :         -934.75844151 Eh          -25436.07034 eV
Kinetic Energy     :          467.02270935 Eh           12708.33400 eV
Virial Ratio       :            2.00152674


DFT components:
N(Alpha)           :       10.000027069595 electrons
N(Beta)            :       10.000027069595 electrons
N(Total)           :       20.000054139189 electrons
E(X)               :      -21.644179486312 Eh       
E(C)               :       -0.991750872225 Eh       
NL Energy, E(C,NL) :        0.084975105197 Eh       
E(XC)              :      -22.550955253340 Eh       
DFET-embed. en.    :        0.000000000000 Eh       

---------------
SCF CONVERGENCE
---------------

  Last Energy change         ...   -3.6280e-08  Tolerance :   1.0000e-06
  Last MAX-Density change    ...    6.5296e-05  Tolerance :   1.0000e-05
  Last RMS-Density change    ...    1.8928e-06  Tolerance :   1.0000e-06
  Last Orbital Gradient      ...    1.9063e-05  Tolerance :   5.0000e-05
  Last Orbital Rotation      ...    1.4564e-05  Tolerance :   5.0000e-05

             **** THE GBW FILE WAS UPDATED (LiCl.gbw) ****
             **** DENSITY FILE WAS UPDATED (LiCl.scfp) ****
             **** ENERGY FILE WAS UPDATED (LiCl.en.tmp) ****
             **** THE GBW FILE WAS UPDATED (LiCl.gbw) ****
             **** DENSITY FILE WAS UPDATED (LiCl.scfp) ****
----------------
ORBITAL ENERGIES
----------------

  NO   OCC          E(Eh)            E(eV) 
   0   2.0000    -101.416494     -2759.6831 
   1   2.0000      -9.457526      -257.3524 
   2   2.0000      -7.206770      -196.1062 
   3   2.0000      -7.206174      -196.0900 
   4   2.0000      -7.206174      -196.0900 
   5   2.0000      -2.147738       -58.4429 
   6   2.0000      -0.840851       -22.8807 
   7   2.0000      -0.380407       -10.3514 
   8   2.0000      -0.355631        -9.6772 
   9   2.0000      -0.355631        -9.6772 
  10   0.0000      -0.014870        -0.4046 
  11   0.0000       0.030192         0.8216 
  12   0.0000       0.030192         0.8216 
  13   0.0000       0.050797         1.3822 
  14   0.0000       0.088495         2.4081 
  15   0.0000       0.113966         3.1012 
  16   0.0000       0.113966         3.1012 
  17   0.0000       0.135520         3.6877 
  18   0.0000       0.140951         3.8355 
  19   0.0000       0.140951         3.8355 
  20   0.0000       0.221808         6.0357 
  21   0.0000       0.277929         7.5628 
  22   0.0000       0.277930         7.5629 
  23   0.0000       0.280545         7.6340 
  24   0.0000       0.323943         8.8149 
  25   0.0000       0.323943         8.8149 
  26   0.0000       0.333034         9.0623 
  27   0.0000       0.411113        11.1870 
  28   0.0000       0.411113        11.1870 
  29   0.0000       0.461949        12.5703 
  30   0.0000       0.478327        13.0159 
  31   0.0000       0.478327        13.0159 
  32   0.0000       0.604334        16.4448 
  33   0.0000       0.604334        16.4448 
  34   0.0000       0.644099        17.5268 
  35   0.0000       0.711272        19.3547 
  36   0.0000       0.711272        19.3547 
  37   0.0000       0.753708        20.5094 
  38   0.0000       0.753711        20.5095 
  39   0.0000       0.783649        21.3242 
  40   0.0000       0.783649        21.3242 
  41   0.0000       0.789036        21.4708 
  42   0.0000       0.967407        26.3245 
  43   0.0000       1.198139        32.6030 
  44   0.0000       1.545005        42.0417 
  45   0.0000       2.078816        56.5675 
  46   0.0000       2.078820        56.5676 
  47   0.0000       2.103018        57.2260 
  48   0.0000       2.103018        57.2260 
  49   0.0000       2.165312        58.9211 
  50   0.0000       2.278759        62.0082 
  51   0.0000       2.278759        62.0082 
  52   0.0000       2.281055        62.0707 
  53   0.0000       2.281059        62.0708 
  54   0.0000       2.308611        62.8205 
  55   0.0000       2.308611        62.8205 
  56   0.0000       2.512891        68.3792 
  57   0.0000       2.512891        68.3792 
  58   0.0000       2.532345        68.9086 
  59   0.0000       2.627840        71.5072 
  60   0.0000       5.923558       161.1882 
  61   0.0000       5.923558       161.1882 
  62   0.0000       6.202564       168.7804 
  63   0.0000       8.320522       226.4129 
  64   0.0000       8.320645       226.4163 
  65   0.0000       8.338106       226.8914 
  66   0.0000       8.338106       226.8914 
  67   0.0000       8.400388       228.5862 
  68   0.0000      10.976215       298.6780 
  69   0.0000      10.976215       298.6780 
  70   0.0000      11.070193       301.2353 
  71   0.0000      14.308737       389.3605 
  72   0.0000      24.979879       679.7371 

                    ********************************
                    * MULLIKEN POPULATION ANALYSIS *
                    ********************************

-----------------------
MULLIKEN ATOMIC CHARGES
-----------------------
   0 Li:    0.766359
   1 Cl:   -0.766359
Sum of atomic charges:   -0.0000000

--------------------------------
MULLIKEN REDUCED ORBITAL CHARGES
--------------------------------
  0 Lis       :     2.035729  s :     2.035729
      pz      :     0.071040  p :     0.160627
      px      :     0.044793
      py      :     0.044793
      dz2     :     0.002496  d :     0.037286
      dxz     :     0.017395
      dyz     :     0.017395
      dx2y2   :     0.000000
      dxy     :     0.000000
  1 Cls       :     5.980027  s :     5.980027
      pz      :     3.904609  p :    11.771547
      px      :     3.933469
      py      :     3.933469
      dz2     :     0.005901  d :     0.014414
      dxz     :     0.004257
      dyz     :     0.004257
      dx2y2   :     0.000000
      dxy     :     0.000000
      f0      :     0.000199  f :     0.000370
      f+1     :     0.000086
      f-1     :     0.000086
      f+2     :     0.000000
      f-2     :     0.000000
      f+3     :     0.000000
      f-3     :     0.000000


                     *******************************
                     * LOEWDIN POPULATION ANALYSIS *
                     *******************************

----------------------
LOEWDIN ATOMIC CHARGES
----------------------
   0 Li:    0.257621
   1 Cl:   -0.257621

-------------------------------
LOEWDIN REDUCED ORBITAL CHARGES
-------------------------------
  0 Lis       :     2.081500  s :     2.081500
      pz      :     0.227608  p :     0.385475
      px      :     0.078933
      py      :     0.078933
      dz2     :     0.112868  d :     0.275404
      dxz     :     0.081268
      dyz     :     0.081268
      dx2y2   :     0.000000
      dxy     :     0.000000
  1 Cls       :     5.700642  s :     5.700642
      pz      :     3.849624  p :    11.526220
      px      :     3.838298
      py      :     3.838298
      dz2     :     0.027545  d :     0.030493
      dxz     :     0.001474
      dyz     :     0.001474
      dx2y2   :     0.000000
      dxy     :     0.000000
      f0      :     0.000213  f :     0.000267
      f+1     :     0.000027
      f-1     :     0.000027
      f+2     :     0.000000
      f-2     :     0.000000
      f+3     :     0.000000
      f-3     :     0.000000


                      *****************************
                      * MAYER POPULATION ANALYSIS *
                      *****************************

  NA   - Mulliken gross atomic population
  ZA   - Total nuclear charge
  QA   - Mulliken gross atomic charge
  VA   - Mayer's total valence
  BVA  - Mayer's bonded valence
  FA   - Mayer's free valence

  ATOM       NA         ZA         QA         VA         BVA        FA
  0 Li     2.2336     3.0000     0.7664     0.4454     0.4454    -0.0000
  1 Cl    17.7664    17.0000    -0.7664     0.4454     0.4454    -0.0000

  Mayer bond orders larger than 0.100000
B(  0-Li,  1-Cl) :   0.4454 

-------
TIMINGS
-------

Total SCF time: 0 days 0 hours 0 min 10 sec 

Total time                  ....      10.522 sec
Sum of individual times     ....       9.898 sec  ( 94.1%)

Fock matrix formation       ....       9.327 sec  ( 88.6%)
  XC integration            ....       7.444 sec  ( 79.8% of F)
    Basis function eval.    ....       0.009 sec  (  0.1% of XC)
    Density eval.           ....       0.008 sec  (  0.1% of XC)
    XC-Functional eval.     ....       0.015 sec  (  0.2% of XC)
    XC-Potential eval.      ....       0.006 sec  (  0.1% of XC)
Diagonalization             ....       0.071 sec  (  0.7%)
Density matrix formation    ....       0.003 sec  (  0.0%)
Population analysis         ....       0.097 sec  (  0.9%)
Initial guess               ....       0.103 sec  (  1.0%)
Orbital Transformation      ....       0.000 sec  (  0.0%)
Orbital Orthonormalization  ....       0.000 sec  (  0.0%)
DIIS solution               ....       0.022 sec  (  0.2%)
SOSCF solution              ....       0.014 sec  (  0.1%)
Grid generation             ....       0.261 sec  (  2.5%)

-------------------------   --------------------
FINAL SINGLE POINT ENERGY      -467.735732159029
-------------------------   --------------------


----------------------------------------------------------------------------
                           ORCA NUMERICAL GRADIENT
                              (28-process run)
----------------------------------------------------------------------------

I state                        ... 1
J state                        ... 0
Number of atoms                ... 2
Derivative's order of accuracy ... 2
Central differences            ... used
Number of displacements        ... 12
Numerical increment            ... 5.000e-03 bohr
Translation invariance         ... used

The output will be reduced. Please look at the following files:
SCF program output             ... >LiCl.lastscf
Integral program output        ... >LiCl.lastint
Gradient program output        ... >LiCl.lastgrad


     Note:   There are more processes than displacements to do
     ===>:   Reducing number of processes to   3

             <<<Displacing   2/coordinate 3 (+)>>>
             <<<Displacing   2/coordinate 1 (+)>>>
             <<<Displacing   2/coordinate 2 (+)>>>
             <<<Displacing   2/coordinate 1 (-)>>>
             <<<Displacing   2/coordinate 2 (-)>>>
             <<<Displacing   2/coordinate 3 (-)>>>

------------------------------
CARTESIAN GRADIENT (NUMERICAL)
-------------------------------
   1   Li  :    0.000000000   -0.000000000    0.001186997
   2   Cl  :   -0.000000000    0.000000000   -0.001186997

Norm of the cartesian gradient     ...    0.001678668
RMS gradient                       ...    0.000685313
MAX gradient                       ...    0.001186997

-------
TIMINGS
-------

Total numerical gradient time      ...        7.892 sec


                            ***************************************
                            *     ORCA property calculations      *
                            ***************************************

                                    ---------------------
                                    Active property flags
                                    ---------------------
   (+) Dipole Moment


------------------------------------------------------------------------------
                       ORCA ELECTRIC PROPERTIES CALCULATION
------------------------------------------------------------------------------

Dipole Moment Calculation                       ... on
Quadrupole Moment Calculation                   ... off
Polarizability Calculation                      ... off
GBWName                                         ... LiCl.gbw
Electron density file                           ... LiCl.scfp
The origin for moment calculation is the CENTER OF MASS  = ( 0.000000,  0.000000  3.193323)

-------------
DIPOLE MOMENT
-------------
                                X             Y             Z
Electronic contribution:      0.00000      -0.00000      -3.84183
Nuclear contribution   :      0.00000       0.00000       1.04826
                        -----------------------------------------
Total Dipole Moment    :      0.00000      -0.00000      -2.79357
                        -----------------------------------------
Magnitude (a.u.)       :      2.79357
Magnitude (Debye)      :      7.10069



--------------------
Rotational spectrum 
--------------------
 
Rotational constants in cm-1:     0.000000     0.711272     0.711272 
Rotational constants in MHz :     0.000000 21323.386404 21323.386404 

 Dipole components along the rotational axes: 
x,y,z [a.u.] :    -2.793568    -0.000000     0.000000 
x,y,z [Debye]:    -7.100686    -0.000000     0.000000 

 

Timings for individual modules:

Sum of individual times         ...       20.296 sec (=   0.338 min)
GTO integral calculation        ...        1.264 sec (=   0.021 min)   6.2 %
SCF iterations                  ...       11.140 sec (=   0.186 min)  54.9 %
SCF Gradient evaluation         ...        7.892 sec (=   0.132 min)  38.9 %
                             ****ORCA TERMINATED NORMALLY****
TOTAL RUN TIME: 0 days 0 hours 0 minutes 21 seconds 32 msec
