
                                 *****************
                                 * O   R   C   A *
                                 *****************

           --- An Ab Initio, DFT and Semiempirical electronic structure package ---

                  #######################################################
                  #                        -***-                        #
                  #          Department of theory and spectroscopy      #
                  #               Directorship: Frank Neese             #
                  #        Max Planck Institute fuer Kohlenforschung    #
                  #                Kaiser Wilhelm Platz 1               #
                  #                 D-45470 Muelheim/Ruhr               #
                  #                      Germany                        #
                  #                                                     #
                  #                  All rights reserved                #
                  #                        -***-                        #
                  #######################################################


                         Program Version 4.2.0 -  RELEASE  -


 With contributions from (in alphabetic order):
   Daniel Aravena         : Magnetic Suceptibility
   Michael Atanasov       : Ab Initio Ligand Field Theory (pilot matlab implementation)
   Alexander A. Auer      : GIAO ZORA, VPT2
   Ute Becker             : Parallelization
   Giovanni Bistoni       : ED, misc. LED, open-shell LED, HFLED
   Martin Brehm           : Molecular dynamics
   Dmytro Bykov           : SCF Hessian
   Vijay G. Chilkuri      : MRCI spin determinant printing, contributions to CSF-ICE
   Dipayan Datta          : RHF DLPNO-CCSD density
   Achintya Kumar Dutta   : EOM-CC, STEOM-CC
   Dmitry Ganyushin       : Spin-Orbit,Spin-Spin,Magnetic field MRCI
   Miquel Garcia          : C-PCM Hessian, Gaussian charge scheme
   Yang Guo               : DLPNO-NEVPT2, CIM, IAO-localization
   Andreas Hansen         : Spin unrestricted coupled pair/coupled cluster methods
   Benjamin Helmich-Paris : CASSCF linear response (MC-RPA)
   Lee Huntington         : MR-EOM, pCC
   Robert Izsak           : Overlap fitted RIJCOSX, COSX-SCS-MP3, EOM
   Christian Kollmar      : KDIIS, OOCD, Brueckner-CCSD(T), CCSD density
   Simone Kossmann        : Meta GGA functionals, TD-DFT gradient, OOMP2, MP2 Hessian
   Martin Krupicka        : AUTO-CI
   Lucas Lang             : DCDCAS
   Dagmar Lenk            : GEPOL surface, SMD
   Dimitrios Liakos       : Extrapolation schemes; Compound Job, initial MDCI parallelization
   Dimitrios Manganas     : Further ROCIS development; embedding schemes
   Dimitrios Pantazis     : SARC Basis sets
   Taras Petrenko         : DFT Hessian,TD-DFT gradient, ASA, ECA, R-Raman, ABS, FL, XAS/XES, NRVS
   Peter Pinski           : DLPNO-MP2, DLPNO-MP2 Gradient
   Christoph Reimann      : Effective Core Potentials
   Marius Retegan         : Local ZFS, SOC
   Christoph Riplinger    : Optimizer, TS searches, QM/MM, DLPNO-CCSD(T), (RO)-DLPNO pert. Triples
   Tobias Risthaus        : Range-separated hybrids, TD-DFT gradient, RPA, STAB
   Michael Roemelt        : Original ROCIS implementation
   Masaaki Saitow         : Open-shell DLPNO-CCSD energy and density
   Barbara Sandhoefer     : DKH picture change effects
   Avijit Sen             : IP-ROCIS
   Kantharuban Sivalingam : CASSCF convergence, NEVPT2, FIC-MRCI
   Bernardo de Souza      : ESD, SOC TD-DFT
   Georgi Stoychev        : AutoAux, RI-MP2 NMR
   Willem Van den Heuvel  : Paramagnetic NMR
   Boris Wezisla          : Elementary symmetry handling
   Frank Wennmohs         : Technical directorship


 We gratefully acknowledge several colleagues who have allowed us to
 interface, adapt or use parts of their codes:
   Stefan Grimme, W. Hujo, H. Kruse,             : VdW corrections, initial TS optimization,
                  C. Bannwarth                     DFT functionals, gCP, sTDA/sTD-DF
   Ed Valeev, F. Pavosevic, A. Kumar             : LibInt (2-el integral package), F12 methods
   Garnet Chan, S. Sharma, J. Yang, R. Olivares  : DMRG
   Ulf Ekstrom                                   : XCFun DFT Library
   Mihaly Kallay                                 : mrcc  (arbitrary order and MRCC methods)
   Andreas Klamt, Michael Diedenhofen            : otool_cosmo (COSMO solvation model)
   Jiri Pittner, Ondrej Demel                    : Mk-CCSD
   Frank Weinhold                                : gennbo (NPA and NBO analysis)
   Christopher J. Cramer and Donald G. Truhlar   : smd solvation model
   Lars Goerigk                                  : TD-DFT with DH, B97 family of functionals
   V. Asgeirsson, H. Jonsson                     : NEB implementation
   FAccTs GmbH                                   : IRC, NEB, NEB-TS, Multilevel, MM, QM/MM, CI optimization
   S Lehtola, MJT Oliveira, MAL Marques          : LibXC Library


 Your calculation uses the libint2 library for the computation of 2-el integrals
 For citations please refer to: http://libint.valeyev.net

 Your ORCA version has been built with support for libXC version: 4.2.3
 For citations please refer to: https://tddft.org/programs/libxc/

 This ORCA versions uses:
   CBLAS   interface :  Fast vector & matrix operations
   LAPACKE interface :  Fast linear algebra routines
   SCALAPACK package :  Parallel linear algebra routines


Your calculation utilizes the DFT-NL dispersion correction.
Cite in your paper:
Vydrov, O. A.; Van Voorhis, T. J. Chem. Phys. 2010, 133, 244103
Hujo, W.; Grimme, S. J. Chem. Theory Comput. 2011, 7, 3866 
   

----- Orbital basis set information -----
Your calculation utilizes the basis: def2-TZVPPD
   F. Weigend and R. Ahlrichs, Phys. Chem. Chem. Phys. 7, 3297 (2005).
   D. Rappoport and F. Furche, J. Chem. Phys. 133 134105 (2010).

----- AuxJK basis set information -----
Your calculation utilizes the auxiliary basis: def2/JK
   H-Ba, Hf-Rn: F. Weigend, J. Comput. Chem. 29, 167 (2008).

================================================================================
                                        WARNINGS
                       Please study these warnings very carefully!
================================================================================

INFO   : Found keyword 'NumGrad' for Energy calculation
  ===> : Setting RunTyp to EnGrad

WARNING: Numerical Gradient with sloppy Convergence Criteria    
         Your results may be not reliable!                      
         Please choose at least TightSCF!                       

WARNING: your system is open-shell and RHF/RKS was chosen
  ===> : WILL SWITCH to UHF/UKS


INFO   : the flag for use of LIBINT has been found!

================================================================================
                                       INPUT FILE
================================================================================
NAME = LiO.in
|  1> #
|  2> # LiO wB97X-V/Def2-TZVPPD
|  3> #
|  4> ! wb97x-v def2-tzvppd def2/jk grid4 nofinalgrid numgrad
|  5> 
|  6> *xyz 0 2
|  7> Li         0.00000        0.00000        0.00000
|  8> O          0.00000        0.00000        1.68900
|  9> *
| 10> 
| 11> %maxcore 5000
| 12> 
| 13> %pal
| 14> nprocs = 28
| 15> end
| 16> 
| 17> 
| 18>                          ****END OF INPUT****
================================================================================

                     *******************************
                     * Energy+Gradient Calculation *
                     *******************************

---------------------------------
CARTESIAN COORDINATES (ANGSTROEM)
---------------------------------
  Li     0.000000    0.000000    0.000000
  O      0.000000    0.000000    1.689000

----------------------------
CARTESIAN COORDINATES (A.U.)
----------------------------
  NO LB      ZA    FRAG     MASS         X           Y           Z
   0 Li    3.0000    0     6.941    0.000000    0.000000    0.000000
   1 O     8.0000    0    15.999    0.000000    0.000000    3.191747

--------------------------------
INTERNAL COORDINATES (ANGSTROEM)
--------------------------------
 Li     0   0   0     0.000000000000     0.00000000     0.00000000
 O      1   0   0     1.689000000000     0.00000000     0.00000000

---------------------------
INTERNAL COORDINATES (A.U.)
---------------------------
 Li     0   0   0     0.000000000000     0.00000000     0.00000000
 O      1   0   0     3.191747440193     0.00000000     0.00000000

---------------------
BASIS SET INFORMATION
---------------------
There are 2 groups of distinct atoms

 Group   1 Type Li  : 11s4p1d contracted to 5s4p1d pattern {62111/1111/1}
 Group   2 Type O   : 12s7p3d1f contracted to 6s4p3d1f pattern {621111/4111/111/1}

Atom   0Li   basis set group =>   1
Atom   1O    basis set group =>   2
----------------------------------
AUXILIARY/JK BASIS SET INFORMATION
----------------------------------
There are 2 groups of distinct atoms

 Group   1 Type Li  : 10s7p4d2f contracted to 7s5p3d2f pattern {4111111/31111/211/11}
 Group   2 Type O   : 14s10p6d2f1g contracted to 10s8p4d2f1g pattern {5111111111/31111111/3111/11/1}

Atom   0Li   basis set group =>   1
Atom   1O    basis set group =>   2


           ************************************************************
           *        Program running with 28 parallel MPI-processes    *
           *              working on a common directory               *
           ************************************************************
------------------------------------------------------------------------------
                           ORCA GTO INTEGRAL CALCULATION
------------------------------------------------------------------------------

                         BASIS SET STATISTICS AND STARTUP INFO

 # of primitive gaussian shells          ...   39
 # of primitive gaussian functions       ...   83
 # of contracted shells                  ...   24
 # of contracted basis functions         ...   62
 Highest angular momentum                ...    3
 Maximum contraction depth               ...    6
 Integral package used                   ... LIBINT
 Integral threshhold            Thresh   ...  1.000e-10
 Primitive cut-off              TCut     ...  1.000e-11


------------------------------ INTEGRAL EVALUATION ----------------------------


 * One electron integrals 
 Pre-screening matrix                    ... done
 Shell pair data                         ... done (   0.000 sec)



           ************************************************************
           *        Program running with 28 parallel MPI-processes    *
           *              working on a common directory               *
           ************************************************************
-------------------------------------------------------------------------------
                                 ORCA SCF
-------------------------------------------------------------------------------

------------
SCF SETTINGS
------------
Hamiltonian:
 Density Functional     Method          .... DFT(GTOs)
 Exchange Functional    Exchange        .... WB97X-V
 Correlation Functional Correlation     .... WB97X-V
 Gradients option       PostSCFGGA      .... off
 Hybrid DFT is turned on
   Fraction HF Exchange ScalHFX         ....  0.167000
   Scaling of DF-GGA-X  ScalDFX         ....  0.000000
   Scaling of DF-GGA-C  ScalDFC         ....  1.000000
   Scaling of DF-LDA-C  ScalLDAC        ....  1.000000
   Perturbative correction              ....  0.000000
   Density functional embedding theory  .... OFF
 Long-range corrected/Screened/Range-Separated Hybrid DFT is turned on
   Amount of maximum screened exact exchange              ....  0.833000
   Range separation parameter mu (erf(mu*r12)/r12)        ....  0.300000
   NL short-range parameter             ....  6.000000
   NL long-range parameter              ....  0.010000


General Settings:
 Integral files         IntName         .... LiO
 Hartree-Fock type      HFTyp           .... UHF
 Total Charge           Charge          ....    0
 Multiplicity           Mult            ....    2
 Number of Electrons    NEL             ....   11
 Basis Dimension        Dim             ....   62
 Nuclear Repulsion      ENuc            ....      7.5193919474 Eh

Convergence Acceleration:
 DIIS                   CNVDIIS         .... on
   Start iteration      DIISMaxIt       ....    12
   Startup error        DIISStart       ....  0.200000
   # of expansion vecs  DIISMaxEq       ....     5
   Bias factor          DIISBfac        ....   1.050
   Max. coefficient     DIISMaxC        ....  10.000
 Newton-Raphson         CNVNR           .... off
 SOSCF                  CNVSOSCF        .... off
 Level Shifting         CNVShift        .... on
   Level shift para.    LevelShift      ....    0.2500
   Turn off err/grad.   ShiftErr        ....    0.0010
 Zerner damping         CNVZerner       .... off
 Static damping         CNVDamp         .... on
   Fraction old density DampFac         ....    0.7000
   Max. Damping (<1)    DampMax         ....    0.9800
   Min. Damping (>=0)   DampMin         ....    0.0000
   Turn off err/grad.   DampErr         ....    0.1000
 Fernandez-Rico         CNVRico         .... off

SCF Procedure:
 Maximum # iterations   MaxIter         ....   125
 SCF integral mode      SCFMode         .... Direct
   Integral package                     .... LIBINT
 Reset frequency        DirectResetFreq ....    20
 Integral Threshold     Thresh          ....  1.000e-10 Eh
 Primitive CutOff       TCut            ....  1.000e-11 Eh

Convergence Tolerance:
 Convergence Check Mode ConvCheckMode   .... Total+1el-Energy
 Convergence forced     ConvForced      .... 0
 Energy Change          TolE            ....  1.000e-06 Eh
 1-El. energy change                    ....  1.000e-03 Eh
 DIIS Error             TolErr          ....  1.000e-06


Diagonalization of the overlap matrix:
Smallest eigenvalue                        ... 2.607e-03
Time for diagonalization                   ...    0.001 sec
Threshold for overlap eigenvalues          ... 1.000e-08
Number of eigenvalues below threshold      ... 0
Time for construction of square roots      ...    0.034 sec
Total time needed                          ...    0.035 sec

-------------------
DFT GRID GENERATION
-------------------

General Integration Accuracy     IntAcc      ...  4.670
Radial Grid Type                 RadialGrid  ... Gauss-Chebyshev
Angular Grid (max. acc.)         AngularGrid ... Lebedev-302
Angular grid pruning method      GridPruning ... 3 (G Style)
Weight generation scheme         WeightScheme... Becke
Basis function cutoff            BFCut       ...    1.0000e-10
Integration weight cutoff        WCut        ...    1.0000e-14
Grids for H and He will be reduced by one unit

# of grid points (after initial pruning)     ...  12088 (   0.0 sec)
# of grid points (after weights+screening)   ...  12047 (   0.0 sec)
nearest neighbour list constructed           ...    0.0 sec
Grid point re-assignment to atoms done       ...    0.0 sec
Grid point division into batches done        ...    0.1 sec
Reduced shell lists constructed in    0.1 sec

Total number of grid points                  ...    12047
Total number of batches                      ...      190
Average number of points per batch           ...       63
Average number of grid points per atom       ...     6024
Average number of shells per batch           ...     3.75 (15.62%)
Average number of basis functions per batch  ...     8.50 (13.71%)
Average number of large shells per batch     ...     2.12 (56.67%)
Average number of large basis fcns per batch ...     4.88 (57.35%)
Maximum spatial batch extension              ...  43.84, 39.87, 23.89 au
Average spatial batch extension              ...   1.29,  1.08,  0.81 au

Time for grid setup =    0.077 sec

------------------------------
INITIAL GUESS: MODEL POTENTIAL
------------------------------
Loading Hartree-Fock densities                     ... done
Calculating cut-offs                               ... done
Setting up the integral package                    ... done
Initializing the effective Hamiltonian             ... done
Starting the Coulomb interaction                   ... done (   0.0 sec)
Reading the grid                                   ... done
Mapping shells                                     ... done
Starting the XC term evaluation                    ... done (   0.0 sec)
  promolecular density results
     # of electrons  =     11.000010517
     EX              =     -6.737135139
     EC              =     -0.428913675
     EX+EC           =     -7.166048814
Transforming the Hamiltonian                       ... done (   0.0 sec)
Diagonalizing the Hamiltonian                      ... done (   0.0 sec)
Back transforming the eigenvectors                 ... done (   0.0 sec)
Now organizing SCF variables                       ... done
                      ------------------
                      INITIAL GUESS DONE (   0.2 sec)
                      ------------------
--------------
SCF ITERATIONS
--------------
ITER       Energy         Delta-E        Max-DP      RMS-DP      [F,P]     Damp
               ***  Starting incremental Fock matrix formation  ***
  0    -82.7143545288   0.000000000000 0.00866638  0.00032867  0.3415226 0.7000
  1    -82.7187677611  -0.004413232302 0.00674874  0.00026048  0.2329736 0.7000
                               ***Turning on DIIS***
  2    -82.7218724743  -0.003104713234 0.00473223  0.00019292  0.1586848 0.7000
  3    -82.7240955962  -0.002223121845 0.00330014  0.00015365  0.1083956 0.7000
  4    -82.7257142869  -0.001618690735 0.00859883  0.00040796  0.0756074 0.0000
  5    -82.7298802965  -0.004166009593 0.00174577  0.00006033  0.0039686 0.0000
  6    -82.7299554062  -0.000075109656 0.00118085  0.00005133  0.0019982 0.0000
  7    -82.7299924725  -0.000037066293 0.00086126  0.00003259  0.0013624 0.0000
  8    -82.7300059327  -0.000013460211 0.00062792  0.00002737  0.0005595 0.0000
  9    -82.7300104556  -0.000004522917 0.00022592  0.00000795  0.0001437 0.0000
                 **** Energy Check signals convergence ****

               *****************************************************
               *                     SUCCESS                       *
               *           SCF CONVERGED AFTER  10 CYCLES          *
               *****************************************************


Setting up the DFT-NL grid :

General Integration Accuracy     IntAcc      ...  4.340
Radial Grid Type                 RadialGrid  ... Gauss-Chebyshev
Angular Grid (max. acc.)         AngularGrid ... Lebedev-110
Angular grid pruning method      GridPruning ... 3 (G Style)
Weight generation scheme         WeightScheme... Becke
Basis function cutoff            BFCut       ...    1.0000e-10
Integration weight cutoff        WCut        ...    1.0000e-14
Grids for H and He will be reduced by one unit

# of grid points (after initial pruning)     ...   3356 (   0.0 sec)
# of grid points (after weights+screening)   ...   3331 (   0.0 sec)
nearest neighbour list constructed           ...    0.0 sec
Grid point re-assignment to atoms done       ...    0.0 sec
Grid point division into batches done        ...    0.0 sec
Reduced shell lists constructed in    0.0 sec

Total number of grid points                  ...     3331
Total number of batches                      ...       53
Average number of points per batch           ...       62
Average number of grid points per atom       ...     1666
Average number of shells per batch           ...     6.67 (27.78%)
Average number of basis functions per batch  ...    17.33 (27.96%)
Average number of large shells per batch     ...     6.00 (90.00%)
Average number of large basis fcns per batch ...    16.67 (96.15%)
Maximum spatial batch extension              ...  28.10, 51.31, 27.23 au
Average spatial batch extension              ...   1.06,  1.94,  1.03 au

Final grid set up in    0.0 sec

-------------------------------------------------------------------------------
                         DFT-NL dispersion correction                          
-------------------------------------------------------------------------------

SC Energy -82.730010840 
NL    Energy 0.047623655 
SC+NL Energy -82.682387185 
NL done in    0.1 sec
-------------------------------------------------------------------------------

----------------
TOTAL SCF ENERGY
----------------

Total Energy       :          -82.68238719 Eh           -2249.90214 eV

Components:
Nuclear Repulsion  :            7.51939195 Eh             204.61306 eV
Electronic Energy  :          -90.20177913 Eh           -2454.51520 eV
One Electron Energy:         -129.48471993 Eh           -3523.45836 eV
Two Electron Energy:           39.28294080 Eh            1068.94316 eV

Virial components:
Potential Energy   :         -165.11561093 Eh           -4493.02419 eV
Kinetic Energy     :           82.43322375 Eh            2243.12206 eV
Virial Ratio       :            2.00302261


DFT components:
N(Alpha)           :        6.000007874596 electrons
N(Beta)            :        5.000006529356 electrons
N(Total)           :       11.000014403952 electrons
E(X)               :       -6.913041838615 Eh       
E(C)               :       -0.436165430929 Eh       
NL Energy, E(C,NL) :        0.047623654969 Eh       
E(XC)              :       -7.301583614576 Eh       
DFET-embed. en.    :        0.000000000000 Eh       

---------------
SCF CONVERGENCE
---------------

  Last Energy change         ...   -3.8449e-07  Tolerance :   1.0000e-06
  Last MAX-Density change    ...    8.0483e-05  Tolerance :   1.0000e-05
  Last RMS-Density change    ...    2.4632e-06  Tolerance :   1.0000e-06
  Last DIIS Error            ...    4.0647e-05  Tolerance :   1.0000e-06

             **** THE GBW FILE WAS UPDATED (LiO.gbw) ****
             **** DENSITY FILE WAS UPDATED (LiO.scfp) ****
             **** ENERGY FILE WAS UPDATED (LiO.en.tmp) ****
----------------------
UHF SPIN CONTAMINATION
----------------------

Warning: in a DFT calculation there is little theoretical justification to 
         calculate <S**2> as in Hartree-Fock theory. We will do it anyways
         but you should keep in mind that the values have only limited relevance

Expectation value of <S**2>     :     0.753617
Ideal value S*(S+1) for S=0.5   :     0.750000
Deviation                       :     0.003617

             **** THE GBW FILE WAS UPDATED (LiO.gbw) ****
             **** DENSITY FILE WAS UPDATED (LiO.scfp) ****
----------------
ORBITAL ENERGIES
----------------
                 SPIN UP ORBITALS
  NO   OCC          E(Eh)            E(eV) 
   0   1.0000     -19.140734      -520.8458 
   1   1.0000      -2.109939       -57.4144 
   2   1.0000      -0.954568       -25.9751 
   3   1.0000      -0.400668       -10.9027 
   4   1.0000      -0.354761        -9.6536 
   5   1.0000      -0.338103        -9.2003 
   6   0.0000      -0.009161        -0.2493 
   7   0.0000       0.032762         0.8915 
   8   0.0000       0.035347         0.9618 
   9   0.0000       0.052442         1.4270 
  10   0.0000       0.098808         2.6887 
  11   0.0000       0.128222         3.4891 
  12   0.0000       0.131303         3.5729 
  13   0.0000       0.181344         4.9346 
  14   0.0000       0.183720         4.9993 
  15   0.0000       0.191476         5.2103 
  16   0.0000       0.220197         5.9919 
  17   0.0000       0.319751         8.7009 
  18   0.0000       0.362082         9.8528 
  19   0.0000       0.362108         9.8535 
  20   0.0000       0.417994        11.3742 
  21   0.0000       0.443237        12.0611 
  22   0.0000       0.446429        12.1480 
  23   0.0000       0.486119        13.2280 
  24   0.0000       0.492922        13.4131 
  25   0.0000       0.551725        15.0132 
  26   0.0000       0.551769        15.0144 
  27   0.0000       0.635446        17.2914 
  28   0.0000       0.711720        19.3669 
  29   0.0000       0.729878        19.8610 
  30   0.0000       0.778538        21.1851 
  31   0.0000       0.917966        24.9791 
  32   0.0000       0.930055        25.3081 
  33   0.0000       0.957595        26.0575 
  34   0.0000       1.021951        27.8087 
  35   0.0000       1.702818        46.3360 
  36   0.0000       1.871137        50.9162 
  37   0.0000       1.871650        50.9302 
  38   0.0000       1.880308        51.1658 
  39   0.0000       1.916586        52.1530 
  40   0.0000       2.206937        60.0538 
  41   0.0000       2.851462        77.5922 
  42   0.0000       2.901175        78.9450 
  43   0.0000       2.951639        80.3182 
  44   0.0000       3.221352        87.6575 
  45   0.0000       5.280202       143.6816 
  46   0.0000       5.291529       143.9898 
  47   0.0000       5.301280       144.2552 
  48   0.0000       5.308582       144.4539 
  49   0.0000       5.309160       144.4696 
  50   0.0000       5.341117       145.3392 
  51   0.0000       5.411415       147.2521 
  52   0.0000       6.030257       164.0916 
  53   0.0000       6.032820       164.1614 
  54   0.0000       6.285165       171.0280 
  55   0.0000       6.509509       177.1328 
  56   0.0000       6.511618       177.1901 
  57   0.0000       6.526936       177.6070 
  58   0.0000       6.577803       178.9911 
  59   0.0000       6.732283       183.1947 
  60   0.0000      14.576598       396.6494 
  61   0.0000      43.391018      1180.7296 

                 SPIN DOWN ORBITALS
  NO   OCC          E(Eh)            E(eV) 
   0   1.0000     -19.121580      -520.3246 
   1   1.0000      -2.110186       -57.4211 
   2   1.0000      -0.879703       -23.9379 
   3   1.0000      -0.328505        -8.9391 
   4   1.0000      -0.310762        -8.4563 
   5   0.0000      -0.009076        -0.2470 
   6   0.0000       0.011661         0.3173 
   7   0.0000       0.035165         0.9569 
   8   0.0000       0.046984         1.2785 
   9   0.0000       0.053175         1.4470 
  10   0.0000       0.099140         2.6977 
  11   0.0000       0.131594         3.5808 
  12   0.0000       0.136717         3.7203 
  13   0.0000       0.182399         4.9633 
  14   0.0000       0.193611         5.2684 
  15   0.0000       0.204929         5.5764 
  16   0.0000       0.222466         6.0536 
  17   0.0000       0.322497         8.7756 
  18   0.0000       0.363166         9.8823 
  19   0.0000       0.363561         9.8930 
  20   0.0000       0.419017        11.4020 
  21   0.0000       0.446193        12.1415 
  22   0.0000       0.446360        12.1461 
  23   0.0000       0.492654        13.4058 
  24   0.0000       0.493430        13.4269 
  25   0.0000       0.555523        15.1165 
  26   0.0000       0.556142        15.1334 
  27   0.0000       0.637838        17.3564 
  28   0.0000       0.735886        20.0245 
  29   0.0000       0.742516        20.2049 
  30   0.0000       0.789605        21.4862 
  31   0.0000       0.932048        25.3623 
  32   0.0000       0.932850        25.3841 
  33   0.0000       0.970124        26.3984 
  34   0.0000       1.023267        27.8445 
  35   0.0000       1.709050        46.5056 
  36   0.0000       1.918167        52.1960 
  37   0.0000       1.920781        52.2671 
  38   0.0000       1.924816        52.3769 
  39   0.0000       1.926492        52.4225 
  40   0.0000       2.222330        60.4727 
  41   0.0000       2.923343        79.5482 
  42   0.0000       2.948461        80.2317 
  43   0.0000       2.974128        80.9301 
  44   0.0000       3.262232        88.7699 
  45   0.0000       5.345373       145.4550 
  46   0.0000       5.348089       145.5289 
  47   0.0000       5.351161       145.6125 
  48   0.0000       5.353887       145.6867 
  49   0.0000       5.359604       145.8423 
  50   0.0000       5.360071       145.8549 
  51   0.0000       5.432497       147.8258 
  52   0.0000       6.031841       164.1347 
  53   0.0000       6.033046       164.1675 
  54   0.0000       6.290625       171.1766 
  55   0.0000       6.598104       179.5435 
  56   0.0000       6.599395       179.5787 
  57   0.0000       6.606788       179.7798 
  58   0.0000       6.611989       179.9214 
  59   0.0000       6.771274       184.2557 
  60   0.0000      14.576282       396.6408 
  61   0.0000      43.415066      1181.3840 

                    ********************************
                    * MULLIKEN POPULATION ANALYSIS *
                    ********************************

--------------------------------------------
MULLIKEN ATOMIC CHARGES AND SPIN POPULATIONS
--------------------------------------------
   0 Li:    0.836110   -0.002120
   1 O :   -0.836110    1.002120
Sum of atomic charges         :   -0.0000000
Sum of atomic spin populations:    1.0000000

-----------------------------------------------------
MULLIKEN REDUCED ORBITAL CHARGES AND SPIN POPULATIONS
-----------------------------------------------------
CHARGE
  0 Lis       :     2.010874  s :     2.010874
      pz      :     0.076279  p :     0.140158
      px      :     0.051686
      py      :     0.012192
      dz2     :     0.004769  d :     0.012857
      dxz     :     0.006080
      dyz     :     0.002002
      dx2y2   :     0.000006
      dxy     :     0.000000
  1 O s       :     3.971469  s :     3.971469
      pz      :     1.933155  p :     4.852342
      px      :     1.927625
      py      :     0.991562
      dz2     :     0.003095  d :     0.012181
      dxz     :     0.006543
      dyz     :     0.002239
      dx2y2   :     0.000294
      dxy     :     0.000010
      f0      :     0.000028  f :     0.000118
      f+1     :     0.000009
      f-1     :     0.000002
      f+2     :     0.000020
      f-2     :     0.000001
      f+3     :     0.000029
      f-3     :     0.000030

SPIN
  0 Lis       :    -0.003524  s :    -0.003524
      pz      :    -0.003703  p :     0.000091
      px      :    -0.007916
      py      :     0.011710
      dz2     :    -0.000332  d :     0.001312
      dxz     :    -0.000306
      dyz     :     0.001951
      dx2y2   :    -0.000000
      dxy     :    -0.000000
  1 O s       :     0.001688  s :     0.001688
      pz      :     0.005717  p :     0.998673
      px      :     0.016858
      py      :     0.976099
      dz2     :    -0.000026  d :     0.001692
      dxz     :    -0.000630
      dyz     :     0.002181
      dx2y2   :     0.000162
      dxy     :     0.000005
      f0      :    -0.000007  f :     0.000067
      f+1     :    -0.000007
      f-1     :     0.000002
      f+2     :     0.000020
      f-2     :     0.000001
      f+3     :     0.000029
      f-3     :     0.000030


                     *******************************
                     * LOEWDIN POPULATION ANALYSIS *
                     *******************************

-------------------------------------------
LOEWDIN ATOMIC CHARGES AND SPIN POPULATIONS
-------------------------------------------
   0 Li:    0.512553    0.032599
   1 O :   -0.512553    0.967401

----------------------------------------------------
LOEWDIN REDUCED ORBITAL CHARGES AND SPIN POPULATIONS
----------------------------------------------------
CHARGE
  0 Lis       :     2.008469  s :     2.008469
      pz      :     0.181138  p :     0.293765
      px      :     0.086401
      py      :     0.026225
      dz2     :     0.090387  d :     0.185214
      dxz     :     0.065263
      dyz     :     0.029557
      dx2y2   :     0.000007
      dxy     :     0.000000
  1 O s       :     3.786594  s :     3.786594
      pz      :     1.894948  p :     4.683774
      px      :     1.837447
      py      :     0.951380
      dz2     :     0.038068  d :     0.042027
      dxz     :     0.002828
      dyz     :     0.000829
      dx2y2   :     0.000292
      dxy     :     0.000010
      f0      :     0.000068  f :     0.000158
      f+1     :     0.000004
      f-1     :     0.000007
      f+2     :     0.000020
      f-2     :     0.000001
      f+3     :     0.000029
      f-3     :     0.000030

SPIN
  0 Lis       :    -0.004316  s :    -0.004316
      pz      :    -0.005495  p :     0.010190
      px      :    -0.009762
      py      :     0.025447
      dz2     :    -0.000929  d :     0.026725
      dxz     :    -0.001363
      dyz     :     0.029018
      dx2y2   :    -0.000001
      dxy     :    -0.000000
  1 O s       :     0.005358  s :     0.005358
      pz      :     0.005303  p :     0.961476
      px      :     0.019505
      py      :     0.936668
      dz2     :    -0.000123  d :     0.000472
      dxz     :    -0.000377
      dyz     :     0.000803
      dx2y2   :     0.000163
      dxy     :     0.000005
      f0      :     0.000014  f :     0.000095
      f+1     :    -0.000004
      f-1     :     0.000007
      f+2     :     0.000020
      f-2     :     0.000001
      f+3     :     0.000029
      f-3     :     0.000030


                      *****************************
                      * MAYER POPULATION ANALYSIS *
                      *****************************

  NA   - Mulliken gross atomic population
  ZA   - Total nuclear charge
  QA   - Mulliken gross atomic charge
  VA   - Mayer's total valence
  BVA  - Mayer's bonded valence
  FA   - Mayer's free valence

  ATOM       NA         ZA         QA         VA         BVA        FA
  0 Li     2.1639     3.0000     0.8361     0.3276     0.3273     0.0003
  1 O      8.8361     8.0000    -0.8361     1.3054     0.3273     0.9782

  Mayer bond orders larger than 0.100000
B(  0-Li,  1-O ) :   0.3273 

-------
TIMINGS
-------

Total SCF time: 0 days 0 hours 0 min 4 sec 

Total time                  ....       4.692 sec
Sum of individual times     ....       4.103 sec  ( 87.5%)

Fock matrix formation       ....       3.668 sec  ( 78.2%)
  XC integration            ....       1.384 sec  ( 37.7% of F)
    Basis function eval.    ....       0.006 sec  (  0.4% of XC)
    Density eval.           ....       0.008 sec  (  0.6% of XC)
    XC-Functional eval.     ....       0.015 sec  (  1.1% of XC)
    XC-Potential eval.      ....       0.008 sec  (  0.6% of XC)
Diagonalization             ....       0.058 sec  (  1.2%)
Density matrix formation    ....       0.004 sec  (  0.1%)
Population analysis         ....       0.077 sec  (  1.7%)
Initial guess               ....       0.118 sec  (  2.5%)
Orbital Transformation      ....       0.000 sec  (  0.0%)
Orbital Orthonormalization  ....       0.000 sec  (  0.0%)
DIIS solution               ....       0.073 sec  (  1.5%)
Grid generation             ....       0.106 sec  (  2.2%)

-------------------------   --------------------
FINAL SINGLE POINT ENERGY       -82.682387185117
-------------------------   --------------------


----------------------------------------------------------------------------
                           ORCA NUMERICAL GRADIENT
                              (28-process run)
----------------------------------------------------------------------------

I state                        ... 1
J state                        ... 0
Number of atoms                ... 2
Derivative's order of accuracy ... 2
Central differences            ... used
Number of displacements        ... 12
Numerical increment            ... 5.000e-03 bohr
Translation invariance         ... used

The output will be reduced. Please look at the following files:
SCF program output             ... >LiO.lastscf
Integral program output        ... >LiO.lastint
Gradient program output        ... >LiO.lastgrad


     Note:   There are more processes than displacements to do
     ===>:   Reducing number of processes to   3

             <<<Displacing   2/coordinate 2 (+)>>>
             <<<Displacing   2/coordinate 1 (+)>>>
             <<<Displacing   2/coordinate 3 (+)>>>
             <<<Displacing   2/coordinate 2 (-)>>>
             <<<Displacing   2/coordinate 3 (-)>>>
             <<<Displacing   2/coordinate 1 (-)>>>

------------------------------
CARTESIAN GRADIENT (NUMERICAL)
-------------------------------
   1   Li  :   -0.000000000    0.000000000    0.001140992
   2   O   :    0.000000000   -0.000000000   -0.001140992

Norm of the cartesian gradient     ...    0.001613606
RMS gradient                       ...    0.000658752
MAX gradient                       ...    0.001140992

-------
TIMINGS
-------

Total numerical gradient time      ...        5.048 sec


                            ***************************************
                            *     ORCA property calculations      *
                            ***************************************

                                    ---------------------
                                    Active property flags
                                    ---------------------
   (+) Dipole Moment


------------------------------------------------------------------------------
                       ORCA ELECTRIC PROPERTIES CALCULATION
------------------------------------------------------------------------------

Dipole Moment Calculation                       ... on
Quadrupole Moment Calculation                   ... off
Polarizability Calculation                      ... off
GBWName                                         ... LiO.gbw
Electron density file                           ... LiO.scfp
The origin for moment calculation is the CENTER OF MASS  = ( 0.000000,  0.000000  2.226014)

-------------
DIPOLE MOMENT
-------------
                                X             Y             Z
Electronic contribution:     -0.00000      -0.00000      -3.65059
Nuclear contribution   :      0.00000       0.00000       1.04782
                        -----------------------------------------
Total Dipole Moment    :     -0.00000      -0.00000      -2.60277
                        -----------------------------------------
Magnitude (a.u.)       :      2.60277
Magnitude (Debye)      :      6.61572



--------------------
Rotational spectrum 
--------------------
 
Rotational constants in cm-1:     0.000000     1.220720     1.220720 
Rotational constants in MHz :     0.000000 36596.271053 36596.271053 

 Dipole components along the rotational axes: 
x,y,z [a.u.] :    -2.602770    -0.000000    -0.000000 
x,y,z [Debye]:    -6.615716    -0.000000    -0.000000 

 

Timings for individual modules:

Sum of individual times         ...       11.257 sec (=   0.188 min)
GTO integral calculation        ...        0.952 sec (=   0.016 min)   8.5 %
SCF iterations                  ...        5.257 sec (=   0.088 min)  46.7 %
SCF Gradient evaluation         ...        5.048 sec (=   0.084 min)  44.8 %
                             ****ORCA TERMINATED NORMALLY****
TOTAL RUN TIME: 0 days 0 hours 0 minutes 11 seconds 923 msec
