
                                 *****************
                                 * O   R   C   A *
                                 *****************

           --- An Ab Initio, DFT and Semiempirical electronic structure package ---

                  #######################################################
                  #                        -***-                        #
                  #          Department of theory and spectroscopy      #
                  #               Directorship: Frank Neese             #
                  #        Max Planck Institute fuer Kohlenforschung    #
                  #                Kaiser Wilhelm Platz 1               #
                  #                 D-45470 Muelheim/Ruhr               #
                  #                      Germany                        #
                  #                                                     #
                  #                  All rights reserved                #
                  #                        -***-                        #
                  #######################################################


                         Program Version 4.2.0 -  RELEASE  -


 With contributions from (in alphabetic order):
   Daniel Aravena         : Magnetic Suceptibility
   Michael Atanasov       : Ab Initio Ligand Field Theory (pilot matlab implementation)
   Alexander A. Auer      : GIAO ZORA, VPT2
   Ute Becker             : Parallelization
   Giovanni Bistoni       : ED, misc. LED, open-shell LED, HFLED
   Martin Brehm           : Molecular dynamics
   Dmytro Bykov           : SCF Hessian
   Vijay G. Chilkuri      : MRCI spin determinant printing, contributions to CSF-ICE
   Dipayan Datta          : RHF DLPNO-CCSD density
   Achintya Kumar Dutta   : EOM-CC, STEOM-CC
   Dmitry Ganyushin       : Spin-Orbit,Spin-Spin,Magnetic field MRCI
   Miquel Garcia          : C-PCM Hessian, Gaussian charge scheme
   Yang Guo               : DLPNO-NEVPT2, CIM, IAO-localization
   Andreas Hansen         : Spin unrestricted coupled pair/coupled cluster methods
   Benjamin Helmich-Paris : CASSCF linear response (MC-RPA)
   Lee Huntington         : MR-EOM, pCC
   Robert Izsak           : Overlap fitted RIJCOSX, COSX-SCS-MP3, EOM
   Christian Kollmar      : KDIIS, OOCD, Brueckner-CCSD(T), CCSD density
   Simone Kossmann        : Meta GGA functionals, TD-DFT gradient, OOMP2, MP2 Hessian
   Martin Krupicka        : AUTO-CI
   Lucas Lang             : DCDCAS
   Dagmar Lenk            : GEPOL surface, SMD
   Dimitrios Liakos       : Extrapolation schemes; Compound Job, initial MDCI parallelization
   Dimitrios Manganas     : Further ROCIS development; embedding schemes
   Dimitrios Pantazis     : SARC Basis sets
   Taras Petrenko         : DFT Hessian,TD-DFT gradient, ASA, ECA, R-Raman, ABS, FL, XAS/XES, NRVS
   Peter Pinski           : DLPNO-MP2, DLPNO-MP2 Gradient
   Christoph Reimann      : Effective Core Potentials
   Marius Retegan         : Local ZFS, SOC
   Christoph Riplinger    : Optimizer, TS searches, QM/MM, DLPNO-CCSD(T), (RO)-DLPNO pert. Triples
   Tobias Risthaus        : Range-separated hybrids, TD-DFT gradient, RPA, STAB
   Michael Roemelt        : Original ROCIS implementation
   Masaaki Saitow         : Open-shell DLPNO-CCSD energy and density
   Barbara Sandhoefer     : DKH picture change effects
   Avijit Sen             : IP-ROCIS
   Kantharuban Sivalingam : CASSCF convergence, NEVPT2, FIC-MRCI
   Bernardo de Souza      : ESD, SOC TD-DFT
   Georgi Stoychev        : AutoAux, RI-MP2 NMR
   Willem Van den Heuvel  : Paramagnetic NMR
   Boris Wezisla          : Elementary symmetry handling
   Frank Wennmohs         : Technical directorship


 We gratefully acknowledge several colleagues who have allowed us to
 interface, adapt or use parts of their codes:
   Stefan Grimme, W. Hujo, H. Kruse,             : VdW corrections, initial TS optimization,
                  C. Bannwarth                     DFT functionals, gCP, sTDA/sTD-DF
   Ed Valeev, F. Pavosevic, A. Kumar             : LibInt (2-el integral package), F12 methods
   Garnet Chan, S. Sharma, J. Yang, R. Olivares  : DMRG
   Ulf Ekstrom                                   : XCFun DFT Library
   Mihaly Kallay                                 : mrcc  (arbitrary order and MRCC methods)
   Andreas Klamt, Michael Diedenhofen            : otool_cosmo (COSMO solvation model)
   Jiri Pittner, Ondrej Demel                    : Mk-CCSD
   Frank Weinhold                                : gennbo (NPA and NBO analysis)
   Christopher J. Cramer and Donald G. Truhlar   : smd solvation model
   Lars Goerigk                                  : TD-DFT with DH, B97 family of functionals
   V. Asgeirsson, H. Jonsson                     : NEB implementation
   FAccTs GmbH                                   : IRC, NEB, NEB-TS, Multilevel, MM, QM/MM, CI optimization
   S Lehtola, MJT Oliveira, MAL Marques          : LibXC Library


 Your calculation uses the libint2 library for the computation of 2-el integrals
 For citations please refer to: http://libint.valeyev.net

 Your ORCA version has been built with support for libXC version: 4.2.3
 For citations please refer to: https://tddft.org/programs/libxc/

 This ORCA versions uses:
   CBLAS   interface :  Fast vector & matrix operations
   LAPACKE interface :  Fast linear algebra routines
   SCALAPACK package :  Parallel linear algebra routines


Your calculation utilizes the DFT-NL dispersion correction.
Cite in your paper:
Vydrov, O. A.; Van Voorhis, T. J. Chem. Phys. 2010, 133, 244103
Hujo, W.; Grimme, S. J. Chem. Theory Comput. 2011, 7, 3866 
   

----- Orbital basis set information -----
Your calculation utilizes the basis: def2-TZVPPD
   F. Weigend and R. Ahlrichs, Phys. Chem. Chem. Phys. 7, 3297 (2005).
   D. Rappoport and F. Furche, J. Chem. Phys. 133 134105 (2010).

----- AuxJK basis set information -----
Your calculation utilizes the auxiliary basis: def2/JK
   H-Ba, Hf-Rn: F. Weigend, J. Comput. Chem. 29, 167 (2008).

================================================================================
                                        WARNINGS
                       Please study these warnings very carefully!
================================================================================

INFO   : Found keyword 'NumGrad' for Energy calculation
  ===> : Setting RunTyp to EnGrad

WARNING: Numerical Gradient with sloppy Convergence Criteria    
         Your results may be not reliable!                      
         Please choose at least TightSCF!                       

WARNING: your system is open-shell and RHF/RKS was chosen
  ===> : WILL SWITCH to UHF/UKS


INFO   : the flag for use of LIBINT has been found!

================================================================================
                                       INPUT FILE
================================================================================
NAME = V+.in
|  1> #
|  2> # V+ wB97X-V/Def2-TZVPPD
|  3> #
|  4> ! wb97x-v def2-tzvppd def2/jk grid4 nofinalgrid numgrad
|  5> 
|  6> *xyz 1 5
|  7> V          0.00000        0.00000        0.00000
|  8> *
|  9> 
| 10> %maxcore 5000
| 11> 
| 12> %pal
| 13> nprocs = 28
| 14> end
| 15> 
| 16> 
| 17>                          ****END OF INPUT****
================================================================================

                     *******************************
                     * Energy+Gradient Calculation *
                     *******************************

---------------------------------
CARTESIAN COORDINATES (ANGSTROEM)
---------------------------------
  V      0.000000    0.000000    0.000000

----------------------------
CARTESIAN COORDINATES (A.U.)
----------------------------
  NO LB      ZA    FRAG     MASS         X           Y           Z
   0 V    23.0000    0    50.940    0.000000    0.000000    0.000000

--------------------------------
INTERNAL COORDINATES (ANGSTROEM)
--------------------------------
 V      0   0   0     0.000000000000     0.00000000     0.00000000

---------------------------
INTERNAL COORDINATES (A.U.)
---------------------------
 V      0   0   0     0.000000000000     0.00000000     0.00000000

---------------------
BASIS SET INFORMATION
---------------------
There are 1 groups of distinct atoms

 Group   1 Type V   : 17s13p7d2f1g contracted to 6s6p4d2f1g pattern {842111/631111/4111/11/1}

Atom   0V    basis set group =>   1
----------------------------------
AUXILIARY/JK BASIS SET INFORMATION
----------------------------------
There are 1 groups of distinct atoms

 Group   1 Type V   : 19s14p12d10f7g3h1i contracted to 16s13p11d9f5g3h1i pattern {4111111111111111/2111111111111/21111111111/211111111/31111/111/1}

Atom   0V    basis set group =>   1


           ************************************************************
           *        Program running with 28 parallel MPI-processes    *
           *              working on a common directory               *
           ************************************************************
------------------------------------------------------------------------------
                           ORCA GTO INTEGRAL CALCULATION
------------------------------------------------------------------------------

                         BASIS SET STATISTICS AND STARTUP INFO

 # of primitive gaussian shells          ...   40
 # of primitive gaussian functions       ...  114
 # of contracted shells                  ...   19
 # of contracted basis functions         ...   67
 Highest angular momentum                ...    4
 Maximum contraction depth               ...    8
 Integral package used                   ... LIBINT
 Integral threshhold            Thresh   ...  1.000e-10
 Primitive cut-off              TCut     ...  1.000e-11


------------------------------ INTEGRAL EVALUATION ----------------------------


 * One electron integrals 
 Pre-screening matrix                    ... done
 Shell pair data                         ... done (   0.000 sec)



           ************************************************************
           *        Program running with 28 parallel MPI-processes    *
           *              working on a common directory               *
           ************************************************************
-------------------------------------------------------------------------------
                                 ORCA SCF
-------------------------------------------------------------------------------

------------
SCF SETTINGS
------------
Hamiltonian:
 Density Functional     Method          .... DFT(GTOs)
 Exchange Functional    Exchange        .... WB97X-V
 Correlation Functional Correlation     .... WB97X-V
 Gradients option       PostSCFGGA      .... off
 Hybrid DFT is turned on
   Fraction HF Exchange ScalHFX         ....  0.167000
   Scaling of DF-GGA-X  ScalDFX         ....  0.000000
   Scaling of DF-GGA-C  ScalDFC         ....  1.000000
   Scaling of DF-LDA-C  ScalLDAC        ....  1.000000
   Perturbative correction              ....  0.000000
   Density functional embedding theory  .... OFF
 Long-range corrected/Screened/Range-Separated Hybrid DFT is turned on
   Amount of maximum screened exact exchange              ....  0.833000
   Range separation parameter mu (erf(mu*r12)/r12)        ....  0.300000
   NL short-range parameter             ....  6.000000
   NL long-range parameter              ....  0.010000


General Settings:
 Integral files         IntName         .... V+
 Hartree-Fock type      HFTyp           .... UHF
 Total Charge           Charge          ....    1
 Multiplicity           Mult            ....    5
 Number of Electrons    NEL             ....   22
 Basis Dimension        Dim             ....   67
 Nuclear Repulsion      ENuc            ....      0.0000000000 Eh

Convergence Acceleration:
 DIIS                   CNVDIIS         .... on
   Start iteration      DIISMaxIt       ....    12
   Startup error        DIISStart       ....  0.200000
   # of expansion vecs  DIISMaxEq       ....     5
   Bias factor          DIISBfac        ....   1.050
   Max. coefficient     DIISMaxC        ....  10.000
 Newton-Raphson         CNVNR           .... off
 SOSCF                  CNVSOSCF        .... off
 Level Shifting         CNVShift        .... on
   Level shift para.    LevelShift      ....    0.2500
   Turn off err/grad.   ShiftErr        ....    0.0010
 Zerner damping         CNVZerner       .... off
 Static damping         CNVDamp         .... on
   Fraction old density DampFac         ....    0.7000
   Max. Damping (<1)    DampMax         ....    0.9800
   Min. Damping (>=0)   DampMin         ....    0.0000
   Turn off err/grad.   DampErr         ....    0.1000
 Fernandez-Rico         CNVRico         .... off

SCF Procedure:
 Maximum # iterations   MaxIter         ....   125
 SCF integral mode      SCFMode         .... Direct
   Integral package                     .... LIBINT
 Reset frequency        DirectResetFreq ....    20
 Integral Threshold     Thresh          ....  1.000e-10 Eh
 Primitive CutOff       TCut            ....  1.000e-11 Eh

Convergence Tolerance:
 Convergence Check Mode ConvCheckMode   .... Total+1el-Energy
 Convergence forced     ConvForced      .... 0
 Energy Change          TolE            ....  1.000e-06 Eh
 1-El. energy change                    ....  1.000e-03 Eh
 DIIS Error             TolErr          ....  1.000e-06


Diagonalization of the overlap matrix:
Smallest eigenvalue                        ... 3.674e-02
Time for diagonalization                   ...    0.001 sec
Threshold for overlap eigenvalues          ... 1.000e-08
Number of eigenvalues below threshold      ... 0
Time for construction of square roots      ...    0.004 sec
Total time needed                          ...    0.006 sec

-------------------
DFT GRID GENERATION
-------------------

General Integration Accuracy     IntAcc      ...  4.670
Radial Grid Type                 RadialGrid  ... Gauss-Chebyshev
Angular Grid (max. acc.)         AngularGrid ... Lebedev-302
Angular grid pruning method      GridPruning ... 3 (G Style)
Weight generation scheme         WeightScheme... Becke
Basis function cutoff            BFCut       ...    1.0000e-10
Integration weight cutoff        WCut        ...    1.0000e-14
Grids for H and He will be reduced by one unit

# of grid points (after initial pruning)     ...   9664 (   0.0 sec)
# of grid points (after weights+screening)   ...   9664 (   0.0 sec)
Grid point division into batches done        ...    0.1 sec
Reduced shell lists constructed in    0.1 sec

Total number of grid points                  ...     9664
Total number of batches                      ...      152
Average number of points per batch           ...       63
Average number of grid points per atom       ...     9664
Average number of shells per batch           ...     3.43 (18.05%)
Average number of basis functions per batch  ...    10.29 (15.35%)
Average number of large shells per batch     ...     3.43 (100.00%)
Average number of large basis fcns per batch ...    10.29 (100.00%)
Maximum spatial batch extension              ...  22.27, 22.27, 22.27 au
Average spatial batch extension              ...   0.77,  0.76,  0.74 au

Time for grid setup =    0.127 sec

------------------------------
INITIAL GUESS: MODEL POTENTIAL
------------------------------
Loading Hartree-Fock densities                     ... done
Calculating cut-offs                               ... done
Setting up the integral package                    ... done
Initializing the effective Hamiltonian             ... done
Starting the Coulomb interaction                   ... done (   0.0 sec)
Reading the grid                                   ... done
Mapping shells                                     ... done
Starting the XC term evaluation                    ... done (   0.0 sec)
  promolecular density results
     # of electrons  =     23.000003052
     EX              =    -33.382266879
     EC              =     -1.282215785
     EX+EC           =    -34.664482664
Transforming the Hamiltonian                       ... done (   0.0 sec)
Diagonalizing the Hamiltonian                      ... done (   0.0 sec)
Back transforming the eigenvectors                 ... done (   0.0 sec)
Now organizing SCF variables                       ... done
                      ------------------
                      INITIAL GUESS DONE (   0.2 sec)
                      ------------------
--------------
SCF ITERATIONS
--------------
ITER       Energy         Delta-E        Max-DP      RMS-DP      [F,P]     Damp
               ***  Starting incremental Fock matrix formation  ***
  0   -940.4192825032   0.000000000000 0.29727455  0.00809214  0.6045359 0.7000
  1   -941.9099497336  -1.490667230383 0.20809368  0.00498695  0.1607867 0.7000
                               ***Turning on DIIS***
  2   -942.5335391190  -0.623589385375 0.14566195  0.00332695  0.1134470 0.7000
  3   -942.8628601698  -0.329321050780 0.10196416  0.00232070  0.1304408 0.7000
  4   -943.0418906232  -0.179030453437 0.07137526  0.00163063  0.1893030 0.7000
  5   -943.1338747432  -0.091984119984 0.04996276  0.00114032  0.2375745 0.7000
  6   -943.1852293288  -0.051354585647 0.03497393  0.00079579  0.2704104 0.7000
  7   -943.2176875536  -0.032458224736 0.02448157  0.00056078  0.2912648 0.7000
  8   -943.2473031688  -0.029615615207 0.01713641  0.00046894  0.2995672 0.7000
  9   -943.2870090186  -0.039705849817 0.01581819  0.00070484  0.2920836 0.7000
 10   -943.3512687548  -0.064259736203 0.03838954  0.00167825  0.2572872 0.7000
 11   -943.4511616824  -0.099892927605 0.02005307  0.00082051  0.1385309 0.7000
 12   -943.5067074901  -0.055545807717 0.04205769  0.00172576  0.0914243 0.0000
 13   -943.6218124506  -0.115104960461 0.00394057  0.00012447  0.0093908 0.0000
 14   -943.6220187134  -0.000206262818 0.00225578  0.00007127  0.0037330 0.0000
 15   -943.6220639361  -0.000045222710 0.00093032  0.00003216  0.0005956 0.0000
 16   -943.6220722578  -0.000008321742 0.00036048  0.00001324  0.0004132 0.0000
 17   -943.6220752188  -0.000002960967 0.00038494  0.00001282  0.0004126 0.0000
 18   -943.6220781594  -0.000002940575 0.00039549  0.00001312  0.0004126 0.0000
 19   -943.6220811716  -0.000003012241 0.00046332  0.00001532  0.0004126 0.0000
               *** Restarting incremental Fock matrix formation ***
                                   *** Resetting DIIS ***
 20   -943.6220846944  -0.000003522768 0.00038043  0.00001252  0.0004125 0.0000
 21   -943.6220875709  -0.000002876459 0.00038397  0.00001256  0.0004124 0.0000
 22   -943.6220904566  -0.000002885752 0.00039920  0.00001304  0.0004122 0.0000
 23   -943.6220934523  -0.000002995687 0.00043279  0.00001404  0.0004119 0.0000
 24   -943.6220966793  -0.000003227018 0.00053507  0.00001732  0.0004116 0.0000
 25   -943.6221006554  -0.000003976085 0.00062038  0.00001993  0.0004110 0.0000
 26   -943.6221052289  -0.000004573470 0.00078272  0.00002502  0.0004103 0.0000
 27   -943.6221109596  -0.000005730753 0.00109376  0.00003462  0.0004091 0.0000
 28   -943.6221188684  -0.000007908783 0.00182699  0.00005715  0.0004070 0.0000
 29   -943.6221318421  -0.000012973741 0.00378244  0.00011558  0.0004025 0.0000
 30   -943.6221576145  -0.000025772339 0.00467088  0.00013831  0.0003892 0.0000
 31   -943.6221872268  -0.000029612347 0.00303316  0.00008719  0.0003745 0.0000
 32   -943.6222049863  -0.000017759465 0.01961399  0.00053258  0.0003525 0.0000
 33   -943.6222883770  -0.000083390666 0.00874867  0.00022964  0.0011311 0.0000
 34   -943.6222549325   0.000033444488 0.00507477  0.00013920  0.0021833 0.0000
 35   -943.6222339613   0.000020971170 0.00322145  0.00009063  0.0015042 0.0000
 36   -943.6222184905   0.000015470795 0.00127555  0.00003702  0.0010213 0.0000
 37   -943.6222121480   0.000006342521 0.00087211  0.00002382  0.0005255 0.0000
 38   -943.6222169001  -0.000004752071 0.00034132  0.00000962  0.0003391 0.0000
 39   -943.6222187113  -0.000001811235 0.00024322  0.00000673  0.0003359 0.0000
               *** Restarting incremental Fock matrix formation ***
                                   *** Resetting DIIS ***
 40   -943.6222199879  -0.000001276654 0.00034978  0.00000983  0.0003342 0.0000
 41   -943.6222218510  -0.000001863090 0.00045263  0.00001261  0.0003310 0.0000
 42   -943.6222242190  -0.000002367951 0.00078444  0.00002178  0.0003276 0.0000
 43   -943.6222282578  -0.000004038811 0.00217990  0.00005995  0.0003226 0.0000
 44   -943.6222390248  -0.000010766992 0.00872210  0.00023384  0.0003068 0.0000
 45   -943.6222754283  -0.000036403507 0.00186916  0.00004971  0.0002509 0.0000
 46   -943.6222685381   0.000006890242 0.01324161  0.00034215  0.0002531 0.0000
 47   -943.6223060591  -0.000037521052 0.00222251  0.00005656  0.0005075 0.0000
 48   -943.6223016643   0.000004394845 0.00006377  0.00000182  0.0003194 0.0000
                 **** Energy Check signals convergence ****

               *****************************************************
               *                     SUCCESS                       *
               *           SCF CONVERGED AFTER  49 CYCLES          *
               *****************************************************


Setting up the DFT-NL grid :

General Integration Accuracy     IntAcc      ...  4.340
Radial Grid Type                 RadialGrid  ... Gauss-Chebyshev
Angular Grid (max. acc.)         AngularGrid ... Lebedev-110
Angular grid pruning method      GridPruning ... 3 (G Style)
Weight generation scheme         WeightScheme... Becke
Basis function cutoff            BFCut       ...    1.0000e-10
Integration weight cutoff        WCut        ...    1.0000e-14
Grids for H and He will be reduced by one unit

# of grid points (after initial pruning)     ...   2972 (   0.0 sec)
# of grid points (after weights+screening)   ...   2972 (   0.0 sec)
Grid point division into batches done        ...    0.0 sec
Reduced shell lists constructed in    0.0 sec

Total number of grid points                  ...     2972
Total number of batches                      ...       47
Average number of points per batch           ...       63
Average number of grid points per atom       ...     2972
Average number of shells per batch           ...     5.33 (28.07%)
Average number of basis functions per batch  ...    18.67 (27.86%)
Average number of large shells per batch     ...     4.67 (87.50%)
Average number of large basis fcns per batch ...    14.00 (75.00%)
Maximum spatial batch extension              ...  18.71, 28.73, 28.73 au
Average spatial batch extension              ...   0.80,  1.22,  1.22 au

Final grid set up in    0.0 sec

-------------------------------------------------------------------------------
                         DFT-NL dispersion correction                          
-------------------------------------------------------------------------------

SC Energy -943.622301855 
NL    Energy 0.095088456 
SC+NL Energy -943.527213398 
NL done in    0.1 sec
-------------------------------------------------------------------------------

----------------
TOTAL SCF ENERGY
----------------

Total Energy       :         -943.52721340 Eh          -25674.68075 eV

Components:
Nuclear Repulsion  :            0.00000000 Eh               0.00000 eV
Electronic Energy  :         -943.52721340 Eh          -25674.68075 eV
One Electron Energy:        -1292.05036537 Eh          -35158.47786 eV
Two Electron Energy:          348.52315197 Eh            9483.79711 eV

Virial components:
Potential Energy   :        -1885.57200775 Eh          -51309.02283 eV
Kinetic Energy     :          942.04479435 Eh           25634.34208 eV
Virial Ratio       :            2.00157362


DFT components:
N(Alpha)           :       12.999999662317 electrons
N(Beta)            :        8.999999663105 electrons
N(Total)           :       21.999999325422 electrons
E(X)               :      -33.614337704632 Eh       
E(C)               :       -1.237527784510 Eh       
NL Energy, E(C,NL) :        0.095088456370 Eh       
E(XC)              :      -34.756777032772 Eh       
DFET-embed. en.    :        0.000000000000 Eh       

---------------
SCF CONVERGENCE
---------------

  Last Energy change         ...   -1.9056e-07  Tolerance :   1.0000e-06
  Last MAX-Density change    ...    5.0888e-03  Tolerance :   1.0000e-05
  Last RMS-Density change    ...    1.2795e-04  Tolerance :   1.0000e-06
  Last DIIS Error            ...    1.9280e-04  Tolerance :   1.0000e-06

             **** THE GBW FILE WAS UPDATED (V+.gbw) ****
             **** DENSITY FILE WAS UPDATED (V+.scfp) ****
             **** ENERGY FILE WAS UPDATED (V+.en.tmp) ****
----------------------
UHF SPIN CONTAMINATION
----------------------

Warning: in a DFT calculation there is little theoretical justification to 
         calculate <S**2> as in Hartree-Fock theory. We will do it anyways
         but you should keep in mind that the values have only limited relevance

Expectation value of <S**2>     :     6.000401
Ideal value S*(S+1) for S=2.0   :     6.000000
Deviation                       :     0.000401

             **** THE GBW FILE WAS UPDATED (V+.gbw) ****
             **** DENSITY FILE WAS UPDATED (V+.scfp) ****
----------------
ORBITAL ENERGIES
----------------
                 SPIN UP ORBITALS
  NO   OCC          E(Eh)            E(eV) 
   0   1.0000    -196.938917     -5358.9804 
   1   1.0000     -22.431098      -610.3812 
   2   1.0000     -18.935953      -515.2735 
   3   1.0000     -18.925506      -514.9892 
   4   1.0000     -18.923497      -514.9345 
   5   1.0000      -2.930693       -79.7482 
   6   1.0000      -1.975877       -53.7663 
   7   1.0000      -1.969854       -53.6025 
   8   1.0000      -1.968504       -53.5657 
   9   1.0000      -0.525439       -14.2979 
  10   1.0000      -0.521519       -14.1913 
  11   1.0000      -0.499200       -13.5839 
  12   1.0000      -0.498613       -13.5679 
  13   0.0000      -0.235093        -6.3972 
  14   0.0000      -0.163693        -4.4543 
  15   0.0000      -0.133661        -3.6371 
  16   0.0000      -0.131952        -3.5906 
  17   0.0000      -0.131412        -3.5759 
  18   0.0000      -0.020237        -0.5507 
  19   0.0000      -0.018909        -0.5145 
  20   0.0000      -0.018590        -0.5059 
  21   0.0000      -0.013176        -0.3585 
  22   0.0000       0.015485         0.4214 
  23   0.0000       0.016012         0.4357 
  24   0.0000       0.019804         0.5389 
  25   0.0000       0.019808         0.5390 
  26   0.0000       0.026362         0.7174 
  27   0.0000       0.282153         7.6778 
  28   0.0000       0.285137         7.7590 
  29   0.0000       0.285852         7.7784 
  30   0.0000       0.512678        13.9507 
  31   0.0000       0.514569        14.0021 
  32   0.0000       0.525684        14.3046 
  33   0.0000       0.525716        14.3055 
  34   0.0000       0.534692        14.5497 
  35   0.0000       0.989554        26.9271 
  36   0.0000       0.989603        26.9285 
  37   0.0000       1.002652        27.2836 
  38   0.0000       1.003796        27.3147 
  39   0.0000       1.005496        27.3609 
  40   0.0000       1.005629        27.3646 
  41   0.0000       1.014302        27.6005 
  42   0.0000       1.609911        43.8079 
  43   0.0000       1.618251        44.0349 
  44   0.0000       1.619949        44.0811 
  45   0.0000       1.778513        48.3958 
  46   0.0000       2.311290        62.8934 
  47   0.0000       2.314488        62.9804 
  48   0.0000       2.333221        63.4902 
  49   0.0000       2.333297        63.4922 
  50   0.0000       2.343216        63.7621 
  51   0.0000       3.990913       108.5983 
  52   0.0000       3.990949       108.5992 
  53   0.0000       3.992184       108.6329 
  54   0.0000       3.992197       108.6332 
  55   0.0000       3.996493       108.7501 
  56   0.0000       3.999122       108.8216 
  57   0.0000       4.006546       109.0236 
  58   0.0000       4.011671       109.1631 
  59   0.0000       4.011672       109.1632 
  60   0.0000       4.480115       121.9101 
  61   0.0000       4.480171       121.9117 
  62   0.0000       4.484975       122.0424 
  63   0.0000       4.487708       122.1167 
  64   0.0000       4.496486       122.3556 
  65   0.0000       4.503509       122.5467 
  66   0.0000       4.503512       122.5468 

                 SPIN DOWN ORBITALS
  NO   OCC          E(Eh)            E(eV) 
   0   1.0000    -196.938825     -5358.9779 
   1   1.0000     -22.388358      -609.2182 
   2   1.0000     -18.906821      -514.4808 
   3   1.0000     -18.887753      -513.9619 
   4   1.0000     -18.884404      -513.8708 
   5   1.0000      -2.797394       -76.1210 
   6   1.0000      -1.855257       -50.4841 
   7   1.0000      -1.810015       -49.2530 
   8   1.0000      -1.802356       -49.0446 
   9   0.0000      -0.186125        -5.0647 
  10   0.0000      -0.107203        -2.9171 
  11   0.0000      -0.101926        -2.7735 
  12   0.0000      -0.094859        -2.5813 
  13   0.0000      -0.094338        -2.5671 
  14   0.0000      -0.085672        -2.3313 
  15   0.0000      -0.083608        -2.2751 
  16   0.0000      -0.069810        -1.8996 
  17   0.0000      -0.069696        -1.8965 
  18   0.0000       0.000328         0.0089 
  19   0.0000       0.007422         0.2020 
  20   0.0000       0.008057         0.2192 
  21   0.0000       0.014611         0.3976 
  22   0.0000       0.058044         1.5795 
  23   0.0000       0.067594         1.8393 
  24   0.0000       0.068162         1.8548 
  25   0.0000       0.074194         2.0189 
  26   0.0000       0.074218         2.0196 
  27   0.0000       0.314216         8.5503 
  28   0.0000       0.325546         8.8586 
  29   0.0000       0.327040         8.8992 
  30   0.0000       0.574253        15.6262 
  31   0.0000       0.589297        16.0356 
  32   0.0000       0.590616        16.0715 
  33   0.0000       0.600970        16.3532 
  34   0.0000       0.601043        16.3552 
  35   0.0000       1.054160        28.6851 
  36   0.0000       1.055931        28.7333 
  37   0.0000       1.057364        28.7723 
  38   0.0000       1.066643        29.0248 
  39   0.0000       1.066718        29.0269 
  40   0.0000       1.074086        29.2274 
  41   0.0000       1.074089        29.2275 
  42   0.0000       1.677158        45.6378 
  43   0.0000       1.703460        46.3535 
  44   0.0000       1.707513        46.4638 
  45   0.0000       1.868077        50.8330 
  46   0.0000       2.399527        65.2944 
  47   0.0000       2.419599        65.8406 
  48   0.0000       2.422034        65.9069 
  49   0.0000       2.437501        66.3278 
  50   0.0000       2.437663        66.3322 
  51   0.0000       4.063618       110.5767 
  52   0.0000       4.066304       110.6498 
  53   0.0000       4.068859       110.7193 
  54   0.0000       4.079244       111.0019 
  55   0.0000       4.079441       111.0072 
  56   0.0000       4.093525       111.3905 
  57   0.0000       4.093530       111.3906 
  58   0.0000       4.099424       111.5510 
  59   0.0000       4.099425       111.5510 
  60   0.0000       4.575073       124.4941 
  61   0.0000       4.586458       124.8039 
  62   0.0000       4.590195       124.9056 
  63   0.0000       4.618191       125.6674 
  64   0.0000       4.618354       125.6718 
  65   0.0000       4.628494       125.9477 
  66   0.0000       4.628503       125.9480 

                    ********************************
                    * MULLIKEN POPULATION ANALYSIS *
                    ********************************

--------------------------------------------
MULLIKEN ATOMIC CHARGES AND SPIN POPULATIONS
--------------------------------------------
   0 V :    1.000000    4.000000
Sum of atomic charges         :    1.0000000
Sum of atomic spin populations:    4.0000000

-----------------------------------------------------
MULLIKEN REDUCED ORBITAL CHARGES AND SPIN POPULATIONS
-----------------------------------------------------
CHARGE
  0 V s       :     5.999985  s :     5.999985
      pz      :     3.999953  p :    11.999789
      px      :     3.999882
      py      :     3.999954
      dz2     :     0.744342  d :     3.999981
      dxz     :     0.980262
      dyz     :     0.997407
      dx2y2   :     0.306874
      dxy     :     0.971097
      f0      :     0.000017  f :     0.000211
      f+1     :     0.000043
      f-1     :     0.000003
      f+2     :     0.000031
      f-2     :     0.000002
      f+3     :     0.000070
      f-3     :     0.000045
      g0      :     0.000004  g :     0.000034
      g+1     :     0.000002
      g-1     :     0.000001
      g+2     :     0.000005
      g-2     :     0.000001
      g+3     :     0.000002
      g-3     :     0.000009
      g+4     :     0.000007
      g-4     :     0.000003

SPIN
  0 V s       :     0.000400  s :     0.000400
      pz      :    -0.000023  p :     0.000007
      px      :     0.000048
      py      :    -0.000019
      dz2     :     0.744257  d :     3.999570
      dxz     :     0.980256
      dyz     :     0.997399
      dx2y2   :     0.306572
      dxy     :     0.971086
      f0      :     0.000008  f :    -0.000007
      f+1     :    -0.000014
      f-1     :     0.000001
      f+2     :     0.000012
      f-2     :     0.000001
      f+3     :    -0.000028
      f-3     :     0.000014
      g0      :     0.000004  g :     0.000029
      g+1     :     0.000001
      g-1     :     0.000001
      g+2     :     0.000003
      g-2     :     0.000001
      g+3     :     0.000002
      g-3     :     0.000009
      g+4     :     0.000005
      g-4     :     0.000002


                     *******************************
                     * LOEWDIN POPULATION ANALYSIS *
                     *******************************

-------------------------------------------
LOEWDIN ATOMIC CHARGES AND SPIN POPULATIONS
-------------------------------------------
   0 V :    1.000000    4.000000

----------------------------------------------------
LOEWDIN REDUCED ORBITAL CHARGES AND SPIN POPULATIONS
----------------------------------------------------
CHARGE
  0 V s       :     5.999985  s :     5.999985
      pz      :     3.999953  p :    11.999789
      px      :     3.999882
      py      :     3.999954
      dz2     :     0.744342  d :     3.999981
      dxz     :     0.980262
      dyz     :     0.997407
      dx2y2   :     0.306874
      dxy     :     0.971097
      f0      :     0.000017  f :     0.000211
      f+1     :     0.000043
      f-1     :     0.000003
      f+2     :     0.000031
      f-2     :     0.000002
      f+3     :     0.000070
      f-3     :     0.000045
      g0      :     0.000004  g :     0.000034
      g+1     :     0.000002
      g-1     :     0.000001
      g+2     :     0.000005
      g-2     :     0.000001
      g+3     :     0.000002
      g-3     :     0.000009
      g+4     :     0.000007
      g-4     :     0.000003

SPIN
  0 V s       :     0.000400  s :     0.000400
      pz      :    -0.000023  p :     0.000007
      px      :     0.000048
      py      :    -0.000019
      dz2     :     0.744257  d :     3.999570
      dxz     :     0.980256
      dyz     :     0.997399
      dx2y2   :     0.306572
      dxy     :     0.971086
      f0      :     0.000008  f :    -0.000007
      f+1     :    -0.000014
      f-1     :     0.000001
      f+2     :     0.000012
      f-2     :     0.000001
      f+3     :    -0.000028
      f-3     :     0.000014
      g0      :     0.000004  g :     0.000029
      g+1     :     0.000001
      g-1     :     0.000001
      g+2     :     0.000003
      g-2     :     0.000001
      g+3     :     0.000002
      g-3     :     0.000009
      g+4     :     0.000005
      g-4     :     0.000002


                      *****************************
                      * MAYER POPULATION ANALYSIS *
                      *****************************

  NA   - Mulliken gross atomic population
  ZA   - Total nuclear charge
  QA   - Mulliken gross atomic charge
  VA   - Mayer's total valence
  BVA  - Mayer's bonded valence
  FA   - Mayer's free valence

  ATOM       NA         ZA         QA         VA         BVA        FA
  0 V     22.0000    23.0000     1.0000     4.0008     0.0000     4.0008

  Mayer bond orders larger than 0.100000


-------
TIMINGS
-------

Total SCF time: 0 days 0 hours 0 min 24 sec 

Total time                  ....      24.803 sec
Sum of individual times     ....      23.697 sec  ( 95.5%)

Fock matrix formation       ....      22.618 sec  ( 91.2%)
  XC integration            ....      10.716 sec  ( 47.4% of F)
    Basis function eval.    ....       0.032 sec  (  0.3% of XC)
    Density eval.           ....       0.051 sec  (  0.5% of XC)
    XC-Functional eval.     ....       0.066 sec  (  0.6% of XC)
    XC-Potential eval.      ....       0.052 sec  (  0.5% of XC)
Diagonalization             ....       0.217 sec  (  0.9%)
Density matrix formation    ....       0.014 sec  (  0.1%)
Population analysis         ....       0.070 sec  (  0.3%)
Initial guess               ....       0.104 sec  (  0.4%)
Orbital Transformation      ....       0.000 sec  (  0.0%)
Orbital Orthonormalization  ....       0.000 sec  (  0.0%)
DIIS solution               ....       0.500 sec  (  2.0%)
Grid generation             ....       0.174 sec  (  0.7%)

-------------------------   --------------------
FINAL SINGLE POINT ENERGY      -943.527213398450
-------------------------   --------------------


----------------------------------------------------------------------------
                           ORCA NUMERICAL GRADIENT
                              (28-process run)
----------------------------------------------------------------------------

I state                        ... 1
J state                        ... 0
Number of atoms                ... 1
Derivative's order of accuracy ... 2
Central differences            ... used
Number of displacements        ... 6
Numerical increment            ... 5.000e-03 bohr
Translation invariance         ... used

The output will be reduced. Please look at the following files:
SCF program output             ... >V+.lastscf
Integral program output        ... >V+.lastint
Gradient program output        ... >V+.lastgrad


     Note:   There are more processes than displacements to do
     ===>:   Reducing number of processes to   0


------------------------------
CARTESIAN GRADIENT (NUMERICAL)
-------------------------------
   1   V   :    0.000000000    0.000000000    0.000000000

Norm of the cartesian gradient     ...    0.000000000
RMS gradient                       ...    0.000000000
MAX gradient                       ...    0.000000000
*** glibc detected *** /mnt/storage/software/apps/orca-4.2.0/orca_4_2_0_linux_x86-64_openmpi314/orca: free(): invalid next size (fast): 0x000000000d464e60 ***
======= Backtrace: =========
[0xb0928aa]
[0xb09567c]
[0x76d903]
[0x76fb95]
[0x915b4f]
[0x918f24]
[0x487649]
[0xb05c99e]
[0x4870d9]
======= Memory map: ========
00400000-0bf42000 r-xp 00000000 00:2b 4876154                            /mnt/storage/software/apps/orca-4.2.0/orca_4_2_0_linux_x86-64_openmpi314/orca
0c141000-0c203000 rw-p 0bb41000 00:2b 4876154                            /mnt/storage/software/apps/orca-4.2.0/orca_4_2_0_linux_x86-64_openmpi314/orca
0c203000-0c77a000 rw-p 00000000 00:00 0 
0d221000-0d490000 rw-p 00000000 00:00 0                                  [heap]
2b148ca2b000-2b148d22c000 rw-p 00000000 00:00 0 
2b148da2b000-2b14900ee000 rw-p 00000000 00:00 0 
2b1494000000-2b14940b3000 rw-p 00000000 00:00 0 
2b14940b3000-2b1498000000 ---p 00000000 00:00 0 
7ffdef25a000-7ffdef35c000 rw-p 00000000 00:00 0                          [stack]
7ffdef38c000-7ffdef38e000 r-xp 00000000 00:00 0                          [vdso]
ffffffffff600000-ffffffffff601000 r-xp 00000000 00:00 0                  [vsyscall]
