
                                 *****************
                                 * O   R   C   A *
                                 *****************

           --- An Ab Initio, DFT and Semiempirical electronic structure package ---

                  #######################################################
                  #                        -***-                        #
                  #          Department of theory and spectroscopy      #
                  #               Directorship: Frank Neese             #
                  #        Max Planck Institute fuer Kohlenforschung    #
                  #                Kaiser Wilhelm Platz 1               #
                  #                 D-45470 Muelheim/Ruhr               #
                  #                      Germany                        #
                  #                                                     #
                  #                  All rights reserved                #
                  #                        -***-                        #
                  #######################################################


                         Program Version 4.2.0 -  RELEASE  -


 With contributions from (in alphabetic order):
   Daniel Aravena         : Magnetic Suceptibility
   Michael Atanasov       : Ab Initio Ligand Field Theory (pilot matlab implementation)
   Alexander A. Auer      : GIAO ZORA, VPT2
   Ute Becker             : Parallelization
   Giovanni Bistoni       : ED, misc. LED, open-shell LED, HFLED
   Martin Brehm           : Molecular dynamics
   Dmytro Bykov           : SCF Hessian
   Vijay G. Chilkuri      : MRCI spin determinant printing, contributions to CSF-ICE
   Dipayan Datta          : RHF DLPNO-CCSD density
   Achintya Kumar Dutta   : EOM-CC, STEOM-CC
   Dmitry Ganyushin       : Spin-Orbit,Spin-Spin,Magnetic field MRCI
   Miquel Garcia          : C-PCM Hessian, Gaussian charge scheme
   Yang Guo               : DLPNO-NEVPT2, CIM, IAO-localization
   Andreas Hansen         : Spin unrestricted coupled pair/coupled cluster methods
   Benjamin Helmich-Paris : CASSCF linear response (MC-RPA)
   Lee Huntington         : MR-EOM, pCC
   Robert Izsak           : Overlap fitted RIJCOSX, COSX-SCS-MP3, EOM
   Christian Kollmar      : KDIIS, OOCD, Brueckner-CCSD(T), CCSD density
   Simone Kossmann        : Meta GGA functionals, TD-DFT gradient, OOMP2, MP2 Hessian
   Martin Krupicka        : AUTO-CI
   Lucas Lang             : DCDCAS
   Dagmar Lenk            : GEPOL surface, SMD
   Dimitrios Liakos       : Extrapolation schemes; Compound Job, initial MDCI parallelization
   Dimitrios Manganas     : Further ROCIS development; embedding schemes
   Dimitrios Pantazis     : SARC Basis sets
   Taras Petrenko         : DFT Hessian,TD-DFT gradient, ASA, ECA, R-Raman, ABS, FL, XAS/XES, NRVS
   Peter Pinski           : DLPNO-MP2, DLPNO-MP2 Gradient
   Christoph Reimann      : Effective Core Potentials
   Marius Retegan         : Local ZFS, SOC
   Christoph Riplinger    : Optimizer, TS searches, QM/MM, DLPNO-CCSD(T), (RO)-DLPNO pert. Triples
   Tobias Risthaus        : Range-separated hybrids, TD-DFT gradient, RPA, STAB
   Michael Roemelt        : Original ROCIS implementation
   Masaaki Saitow         : Open-shell DLPNO-CCSD energy and density
   Barbara Sandhoefer     : DKH picture change effects
   Avijit Sen             : IP-ROCIS
   Kantharuban Sivalingam : CASSCF convergence, NEVPT2, FIC-MRCI
   Bernardo de Souza      : ESD, SOC TD-DFT
   Georgi Stoychev        : AutoAux, RI-MP2 NMR
   Willem Van den Heuvel  : Paramagnetic NMR
   Boris Wezisla          : Elementary symmetry handling
   Frank Wennmohs         : Technical directorship


 We gratefully acknowledge several colleagues who have allowed us to
 interface, adapt or use parts of their codes:
   Stefan Grimme, W. Hujo, H. Kruse,             : VdW corrections, initial TS optimization,
                  C. Bannwarth                     DFT functionals, gCP, sTDA/sTD-DF
   Ed Valeev, F. Pavosevic, A. Kumar             : LibInt (2-el integral package), F12 methods
   Garnet Chan, S. Sharma, J. Yang, R. Olivares  : DMRG
   Ulf Ekstrom                                   : XCFun DFT Library
   Mihaly Kallay                                 : mrcc  (arbitrary order and MRCC methods)
   Andreas Klamt, Michael Diedenhofen            : otool_cosmo (COSMO solvation model)
   Jiri Pittner, Ondrej Demel                    : Mk-CCSD
   Frank Weinhold                                : gennbo (NPA and NBO analysis)
   Christopher J. Cramer and Donald G. Truhlar   : smd solvation model
   Lars Goerigk                                  : TD-DFT with DH, B97 family of functionals
   V. Asgeirsson, H. Jonsson                     : NEB implementation
   FAccTs GmbH                                   : IRC, NEB, NEB-TS, Multilevel, MM, QM/MM, CI optimization
   S Lehtola, MJT Oliveira, MAL Marques          : LibXC Library


 Your calculation uses the libint2 library for the computation of 2-el integrals
 For citations please refer to: http://libint.valeyev.net

 Your ORCA version has been built with support for libXC version: 4.2.3
 For citations please refer to: https://tddft.org/programs/libxc/

 This ORCA versions uses:
   CBLAS   interface :  Fast vector & matrix operations
   LAPACKE interface :  Fast linear algebra routines
   SCALAPACK package :  Parallel linear algebra routines


Your calculation utilizes the DFT-NL dispersion correction.
Cite in your paper:
Vydrov, O. A.; Van Voorhis, T. J. Chem. Phys. 2010, 133, 244103
Hujo, W.; Grimme, S. J. Chem. Theory Comput. 2011, 7, 3866 
   

----- Orbital basis set information -----
Your calculation utilizes the basis: def2-TZVPPD
   F. Weigend and R. Ahlrichs, Phys. Chem. Chem. Phys. 7, 3297 (2005).
   D. Rappoport and F. Furche, J. Chem. Phys. 133 134105 (2010).

----- AuxJK basis set information -----
Your calculation utilizes the auxiliary basis: def2/JK
   H-Ba, Hf-Rn: F. Weigend, J. Comput. Chem. 29, 167 (2008).

cite the ECPs for Zr [Def2-ECP] as follows:
Ce-Yb(ecp-28): M. Dolg, H. Stoll, H.Preuss, J. Chem. Phys., 1989, 90, 1730-1734.
Y-Cd(ecp-28), Hf-Hg(ecp-46): D. Andrae,U. Haeussermann, M. Dolg, H. Stoll, H. Preuss, Theor. Chim. Acta, 1990, 77, 123-141.
In-Sb(ecp-28), Tl-Bi(ecp-46): B. Metz, H. Stoll, M. Dolg, J. Chem. Phys., 2000, 113, 2563-2569.
Te-Xe(ecp-28), Po-Rn(ecp-46): K. A. Peterson, D. Figgen, E. Goll, H. Stoll, M. Dolg, J. Chem. Phys., 2003, 119, 11113-11123.
Rb(ecp-28), Cs(ecp-46): T. Leininger, A. Nicklass, W. Kuechle, H. Stoll, M. Dolg, A. Bergner, Chem. Phys. Lett., 1996, 255, 274-280.
Sr(ecp-28), Ba(ecp-46): M. Kaupp, P. V. Schleyer, H. Stoll and H. Preuss, J. Chem. Phys., 1991, 94, 1360-1366.
La(ecp-46): M. Dolg, H. Stoll, A. Savin, H. Preuss, Theor. Chim. Acta, 1989, 75, 173-194.
Lu(ecp-28): X. Cao, M. Dolg, J. Chem. Phys., 2001, 115, 7348-7355.

ECP parameters for Zr [Def2-ECP] have been obtained from:
TURBOMOLE (7.0.2)

================================================================================
                                        WARNINGS
                       Please study these warnings very carefully!
================================================================================

INFO   : Found keyword 'NumGrad' for Energy calculation
  ===> : Setting RunTyp to EnGrad

WARNING: Numerical Gradient with sloppy Convergence Criteria    
         Your results may be not reliable!                      
         Please choose at least TightSCF!                       

WARNING: your system is open-shell and RHF/RKS was chosen
  ===> : WILL SWITCH to UHF/UKS


INFO   : the flag for use of LIBINT has been found!

================================================================================
                                       INPUT FILE
================================================================================
NAME = Zr.in
|  1> #
|  2> # Zr wB97X-V/Def2-TZVPPD
|  3> #
|  4> ! wb97x-v def2-tzvppd def2/jk grid4 nofinalgrid numgrad
|  5> 
|  6> *xyz 0 3
|  7> Zr         0.00000        0.00000        0.00000
|  8> *
|  9> 
| 10> %maxcore 5000
| 11> 
| 12> %pal
| 13> nprocs = 28
| 14> end
| 15> 
| 16> 
| 17>                          ****END OF INPUT****
================================================================================

                     *******************************
                     * Energy+Gradient Calculation *
                     *******************************

---------------------------------
CARTESIAN COORDINATES (ANGSTROEM)
---------------------------------
  Zr     0.000000    0.000000    0.000000

----------------------------
CARTESIAN COORDINATES (A.U.)
----------------------------
  NO LB      ZA    FRAG     MASS         X           Y           Z
   0 Zr   12.0000*   0    91.220    0.000000    0.000000    0.000000
* core charge reduced due to ECP

--------------------------------
INTERNAL COORDINATES (ANGSTROEM)
--------------------------------
 Zr     0   0   0     0.000000000000     0.00000000     0.00000000

---------------------------
INTERNAL COORDINATES (A.U.)
---------------------------
 Zr     0   0   0     0.000000000000     0.00000000     0.00000000

---------------------
BASIS SET INFORMATION
---------------------
There are 1 groups of distinct atoms

 Group   1 Type Zr  : 7s7p5d2f1g contracted to 6s4p3d2f1g pattern {211111/4111/311/11/1}

Atom   0Zr   basis set group =>   1
----------------------------------
AUXILIARY/JK BASIS SET INFORMATION
----------------------------------
There are 1 groups of distinct atoms

 Group   1 Type Zr  : 13s12p10d9f6g3h2i contracted to 11s10p9d8f6g3h2i pattern {31111111111/3111111111/211111111/21111111/111111/111/11}

Atom   0Zr   basis set group =>   1
-------------------------
ECP PARAMETER INFORMATION
-------------------------

 Group 1, Type Zr ECP Def2-ECP (replacing 28 core electrons, lmax=3)

Atom   0Zr   ECP group =>   1



           ************************************************************
           *        Program running with 28 parallel MPI-processes    *
           *              working on a common directory               *
           ************************************************************
------------------------------------------------------------------------------
                           ORCA GTO INTEGRAL CALCULATION
------------------------------------------------------------------------------

                         BASIS SET STATISTICS AND STARTUP INFO

 # of primitive gaussian shells          ...   22
 # of primitive gaussian functions       ...   76
 # of contracted shells                  ...   16
 # of contracted basis functions         ...   56
 Highest angular momentum                ...    4
 Maximum contraction depth               ...    4
 Integral package used                   ... LIBINT
 Integral threshhold            Thresh   ...  1.000e-10
 Primitive cut-off              TCut     ...  1.000e-11


------------------------------ INTEGRAL EVALUATION ----------------------------


 * One electron integrals 

   ECP integrals                         ... done
 Pre-screening matrix                    ... done
 Shell pair data                         ... done (   0.000 sec)



           ************************************************************
           *        Program running with 28 parallel MPI-processes    *
           *              working on a common directory               *
           ************************************************************
-------------------------------------------------------------------------------
                                 ORCA SCF
-------------------------------------------------------------------------------

------------
SCF SETTINGS
------------
Hamiltonian:
 Density Functional     Method          .... DFT(GTOs)
 Exchange Functional    Exchange        .... WB97X-V
 Correlation Functional Correlation     .... WB97X-V
 Gradients option       PostSCFGGA      .... off
 Hybrid DFT is turned on
   Fraction HF Exchange ScalHFX         ....  0.167000
   Scaling of DF-GGA-X  ScalDFX         ....  0.000000
   Scaling of DF-GGA-C  ScalDFC         ....  1.000000
   Scaling of DF-LDA-C  ScalLDAC        ....  1.000000
   Perturbative correction              ....  0.000000
   Density functional embedding theory  .... OFF
 Long-range corrected/Screened/Range-Separated Hybrid DFT is turned on
   Amount of maximum screened exact exchange              ....  0.833000
   Range separation parameter mu (erf(mu*r12)/r12)        ....  0.300000
   NL short-range parameter             ....  6.000000
   NL long-range parameter              ....  0.010000


General Settings:
 Integral files         IntName         .... Zr
 Hartree-Fock type      HFTyp           .... UHF
 Total Charge           Charge          ....    0
 Multiplicity           Mult            ....    3
 Number of Electrons    NEL             ....   12
 Basis Dimension        Dim             ....   56
 Nuclear Repulsion      ENuc            ....      0.0000000000 Eh

Convergence Acceleration:
 DIIS                   CNVDIIS         .... on
   Start iteration      DIISMaxIt       ....    12
   Startup error        DIISStart       ....  0.200000
   # of expansion vecs  DIISMaxEq       ....     5
   Bias factor          DIISBfac        ....   1.050
   Max. coefficient     DIISMaxC        ....  10.000
 Newton-Raphson         CNVNR           .... off
 SOSCF                  CNVSOSCF        .... off
 Level Shifting         CNVShift        .... on
   Level shift para.    LevelShift      ....    0.2500
   Turn off err/grad.   ShiftErr        ....    0.0010
 Zerner damping         CNVZerner       .... off
 Static damping         CNVDamp         .... on
   Fraction old density DampFac         ....    0.7000
   Max. Damping (<1)    DampMax         ....    0.9800
   Min. Damping (>=0)   DampMin         ....    0.0000
   Turn off err/grad.   DampErr         ....    0.1000
 Fernandez-Rico         CNVRico         .... off

SCF Procedure:
 Maximum # iterations   MaxIter         ....   125
 SCF integral mode      SCFMode         .... Direct
   Integral package                     .... LIBINT
 Reset frequency        DirectResetFreq ....    20
 Integral Threshold     Thresh          ....  1.000e-10 Eh
 Primitive CutOff       TCut            ....  1.000e-11 Eh

Convergence Tolerance:
 Convergence Check Mode ConvCheckMode   .... Total+1el-Energy
 Convergence forced     ConvForced      .... 0
 Energy Change          TolE            ....  1.000e-06 Eh
 1-El. energy change                    ....  1.000e-03 Eh
 DIIS Error             TolErr          ....  1.000e-06


Diagonalization of the overlap matrix:
Smallest eigenvalue                        ... 2.006e-02
Time for diagonalization                   ...    0.001 sec
Threshold for overlap eigenvalues          ... 1.000e-08
Number of eigenvalues below threshold      ... 0
Time for construction of square roots      ...    0.054 sec
Total time needed                          ...    0.055 sec

-------------------
DFT GRID GENERATION
-------------------

General Integration Accuracy     IntAcc      ...  4.670
Radial Grid Type                 RadialGrid  ... Gauss-Chebyshev
Angular Grid (max. acc.)         AngularGrid ... Lebedev-302
Angular grid pruning method      GridPruning ... 3 (G Style)
Weight generation scheme         WeightScheme... Becke
Basis function cutoff            BFCut       ...    1.0000e-10
Integration weight cutoff        WCut        ...    1.0000e-14
Grids for H and He will be reduced by one unit

# of grid points (after initial pruning)     ...  10682 (   0.0 sec)
# of grid points (after weights+screening)   ...  10682 (   0.0 sec)
Grid point division into batches done        ...    0.1 sec
Reduced shell lists constructed in    0.1 sec

Total number of grid points                  ...    10682
Total number of batches                      ...      167
Average number of points per batch           ...       63
Average number of grid points per atom       ...    10682
Average number of shells per batch           ...     1.71 (10.71%)
Average number of basis functions per batch  ...     3.43 ( 6.12%)
Average number of large shells per batch     ...     1.71 (100.00%)
Average number of large basis fcns per batch ...     3.43 (100.00%)
Maximum spatial batch extension              ...  28.90, 28.90, 28.90 au
Average spatial batch extension              ...   0.91,  0.91,  0.88 au

Time for grid setup =    1.569 sec

------------------------------
INITIAL GUESS: MODEL POTENTIAL
------------------------------
Loading Hartree-Fock densities                     ... done
  calling /mnt/storage/software/apps/orca-4.2.0/orca_4_2_0_linux_x86-64_openmpi314/orca Zr_atom40.inp > Zr_atom40.out in order to generate an atomic fitting density for atom 0 (Zr with ECP) on-the-fly... 
    atom 0 (Zr), assumed electronic state with S=3: 1s2 2s2 2p6 3s2 3p6 4s2 3d10 4p6 4d2 5s2           ... done
Calculating cut-offs                               ... done
Setting up the integral package                    ... done
Initializing the effective Hamiltonian             ... done
Starting the Coulomb interaction                   ... done (   0.0 sec)
Reading the grid                                   ... done
Mapping shells                                     ... done
Starting the XC term evaluation                    ... done (   0.0 sec)
  promolecular density results
     # of electrons  =     40.000376052
     EX              =    -85.862079671
     EC              =     -2.621397224
     EX+EC           =    -88.483476895
Transforming the Hamiltonian                       ... done (   0.1 sec)
Diagonalizing the Hamiltonian                      ... done (   0.0 sec)
Back transforming the eigenvectors                 ... done (   0.0 sec)
Now organizing SCF variables                       ... done
                      ------------------
                      INITIAL GUESS DONE (  16.2 sec)
                      ------------------
--------------
SCF ITERATIONS
--------------
ITER       Energy         Delta-E        Max-DP      RMS-DP      [F,P]     Damp
               ***  Starting incremental Fock matrix formation  ***
  0    -46.5765233006   0.000000000000 0.06354525  0.00245595  0.4012567 0.7000
  1    -46.6502011250  -0.073677824362 0.04403203  0.00185951  0.2677563 0.7000
                               ***Turning on DIIS***
  2    -46.6950144542  -0.044813329156 0.02868033  0.00118338  0.1746635 0.7000
  3    -46.7219391836  -0.026924729400 0.01401181  0.00065733  0.1146071 0.7000
  4    -46.7398305079  -0.017891324331 0.02754922  0.00153543  0.0798385 0.0000
  5    -46.7818474168  -0.042016908916 0.00780360  0.00030963  0.0067255 0.0000
  6    -46.7826812689  -0.000833852140 0.00522898  0.00022742  0.0076330 0.0000
  7    -46.7833638981  -0.000682629187 0.00187281  0.00006897  0.0082953 0.0000
  8    -46.7832985146   0.000065383540 0.00070945  0.00002455  0.0081536 0.0000
  9    -46.7832730235   0.000025491077 0.00089981  0.00004010  0.0081087 0.0000
 10    -46.7833925717  -0.000119548145 0.00511474  0.00019859  0.0082266 0.0000
 11    -46.7839887842  -0.000596212545 0.00200001  0.00009432  0.0088118 0.0000
 12    -46.7843052840  -0.000316499827 0.00122142  0.00004710  0.0090630 0.0000
 13    -46.7842816232   0.000023660802 0.00178743  0.00008745  0.0090099 0.0000
 14    -46.7845790429  -0.000297419634 0.00297079  0.00012362  0.0092765 0.0000
 15    -46.7849898612  -0.000410818310 0.00229627  0.00010900  0.0096313 0.0000
 16    -46.7853808753  -0.000391014108 0.00117842  0.00004593  0.0099256 0.0000
 17    -46.7853778235   0.000003051785 0.00179577  0.00009955  0.0098647 0.0000
 18    -46.7857472786  -0.000369455157 0.00212125  0.00009161  0.0101347 0.0000
 19    -46.7860620934  -0.000314814776 0.00440771  0.00021000  0.0103352 0.0000
               *** Restarting incremental Fock matrix formation ***
                                   *** Resetting DIIS ***
 20    -46.7868622534  -0.000800160002 0.01033731  0.00045779  0.0108855 0.0000
 21    -46.7886950319  -0.001832778463 0.00443431  0.00023011  0.0120863 0.0000
 22    -46.7897202772  -0.001025245333 0.00599280  0.00020202  0.0125567 0.0000
 23    -46.7890109642   0.000709313067 0.00271132  0.00010323  0.0120288 0.0000
 24    -46.7886029832   0.000407980961 0.00191678  0.00008024  0.0117818 0.0000
 25    -46.7882782897   0.000324693479 0.00848175  0.00034946  0.0115869 0.0000
 26    -46.7897544444  -0.001476154688 0.00824458  0.00034204  0.0124466 0.0000
 27    -46.7913167544  -0.001562309977 0.01035580  0.00034914  0.0131712 0.0000
 28    -46.7899858039   0.001330950488 0.00333062  0.00013028  0.0122770 0.0000
 29    -46.7894399795   0.000545824415 0.00079721  0.00003739  0.0119849 0.0000
 30    -46.7895585849  -0.000118605401 0.00840602  0.00033360  0.0120874 0.0000
 31    -46.7910051819  -0.001446596979 0.00918603  0.00036254  0.0129013 0.0000
 32    -46.7927113833  -0.001706201474 0.00392854  0.00011805  0.0136503 0.0000
 33    -46.7924123756   0.000299007749 0.00180568  0.00005471  0.0133789 0.0000
 34    -46.7922117236   0.000200652032 0.00185992  0.00006366  0.0132657 0.0000
 35    -46.7924948397  -0.000283116111 0.01274098  0.00042523  0.0133913 0.0000
 36    -46.7944879019  -0.001993062282 0.00277915  0.00011576  0.0142120 0.0000
 37    -46.7948342585  -0.000346356547 0.00293544  0.00012925  0.0141006 0.0000
 38    -46.7954930427  -0.000658784178 0.00198389  0.00009014  0.0142526 0.0000
 39    -46.7959571337  -0.000464091051 0.00453983  0.00015151  0.0143398 0.0000
               *** Restarting incremental Fock matrix formation ***
                                   *** Resetting DIIS ***
 40    -46.7967326616  -0.000775527890 0.02225542  0.00070201  0.0145822 0.0000
 41    -46.8003399373  -0.003607275702 0.01640334  0.00051293  0.0158722 0.0000
 42    -46.8032352362  -0.002895298935 0.01001525  0.00025128  0.0164043 0.0000
 43    -46.8023392915   0.000895944773 0.00451059  0.00011621  0.0158727 0.0000
 44    -46.8018048242   0.000534467229 0.00185467  0.00005621  0.0156871 0.0000
 45    -46.8014967698   0.000308054492 0.02209683  0.00062127  0.0156155 0.0000
 46    -46.8048740665  -0.003377296706 0.01118886  0.00036014  0.0164513 0.0000
 47    -46.8070211480  -0.002147081586 0.01500542  0.00037947  0.0166926 0.0000
 48    -46.8052703242   0.001750823895 0.00110638  0.00003975  0.0160295 0.0000
 49    -46.8054567088  -0.000186384680 0.01177481  0.00032809  0.0161095 0.0000
 50    -46.8072831538  -0.001826445018 0.02321238  0.00062655  0.0165339 0.0000
 51    -46.8108579780  -0.003574824198 0.00455744  0.00018359  0.0171527 0.0000
 52    -46.8119764196  -0.001118441554 0.00973346  0.00023837  0.0170719 0.0000
 53    -46.8108795770   0.001096842588 0.00542135  0.00015259  0.0166992 0.0000
 54    -46.8117791214  -0.000899544433 0.02109267  0.00055793  0.0168519 0.0000
 55    -46.8150281115  -0.003248990067 0.01184286  0.00033924  0.0173012 0.0000
 56    -46.8171435081  -0.002115396588 0.00307600  0.00010926  0.0173326 0.0000
 57    -46.8172375601  -0.000094051971 0.00414458  0.00013485  0.0170685 0.0000
 58    -46.8180983778  -0.000860817685 0.01323316  0.00035655  0.0170792 0.0000
 59    -46.8202580701  -0.002159692327 0.01769494  0.00047347  0.0172782 0.0000
               *** Restarting incremental Fock matrix formation ***
                                   *** Resetting DIIS ***
 60    -46.8231474401  -0.002889370013 0.03646313  0.00097238  0.0175032 0.0000
 61    -46.8290334338  -0.005885993713 0.03052619  0.00084256  0.0182935 0.0000
 62    -46.8343133743  -0.005279940451 0.01677058  0.00052509  0.0185510 0.0000
 63    -46.8377418768  -0.003428502517 0.00663577  0.00023131  0.0185284 0.0000
 64    -46.8392922436  -0.001550366802 0.00386328  0.00008967  0.0183664 0.0000
 65    -46.8396516729  -0.000359429367 0.02078425  0.00058379  0.0182006 0.0000
 66    -46.8431350005  -0.003483327557 0.03616751  0.00103998  0.0184127 0.0000
 67    -46.8491974564  -0.006062455932 0.05035672  0.00137030  0.0186132 0.0000
 68    -46.8569907917  -0.007793335310 0.07415375  0.00185037  0.0183467 0.0000
 69    -46.8667802998  -0.009789508093 0.09901944  0.00233759  0.0177042 0.0000
 70    -46.8780672542  -0.011286954413 0.11194965  0.00260752  0.0162886 0.0000
 71    -46.8886992218  -0.010631967558 0.07791280  0.00206196  0.0137676 0.0000
 72    -46.8953765314  -0.006677309639 0.04031788  0.00147194  0.0102182 0.0000
 73    -46.8989843825  -0.003607851081 0.01994711  0.00091632  0.0063338 0.0000
 74    -46.9005805495  -0.001596166991 0.01467871  0.00058776  0.0040737 0.0000
 75    -46.9013098514  -0.000729301915 0.01119002  0.00038621  0.0024816 0.0000
 76    -46.9016819801  -0.000372128645 0.00781475  0.00025685  0.0017640 0.0000
 77    -46.9019228224  -0.000240842275 0.00470046  0.00021117  0.0016370 0.0000
 78    -46.9021327824  -0.000209960085 0.00466337  0.00023294  0.0015428 0.0000
 79    -46.9023602725  -0.000227490079 0.00589143  0.00027768  0.0014054 0.0000
               *** Restarting incremental Fock matrix formation ***
                                   *** Resetting DIIS ***
 80    -46.9026016554  -0.000241382918 0.00103843  0.00005388  0.0012614 0.0000
 81    -46.9026464733  -0.000044817868 0.00106815  0.00004997  0.0011728 0.0000
 82    -46.9026864407  -0.000039967403 0.00146150  0.00006615  0.0011424 0.0000
 83    -46.9027369887  -0.000050548038 0.00365403  0.00016156  0.0011136 0.0000
 84    -46.9028495045  -0.000112515721 0.00702756  0.00031228  0.0010064 0.0000
 85    -46.9030239919  -0.000174487455 0.00081087  0.00003787  0.0008412 0.0000
 86    -46.9030138368   0.000010155144 0.01224241  0.00058054  0.0007955 0.0000
 87    -46.9032059005  -0.000192063713 0.00290410  0.00013596  0.0004036 0.0000
 88    -46.9032267571  -0.000020856590 0.00314125  0.00014743  0.0002911 0.0000
 89    -46.9032414494  -0.000014692357 0.00153886  0.00006090  0.0001962 0.0000
 90    -46.9032495416  -0.000008092176 0.00162943  0.00006173  0.0001730 0.0000
 91    -46.9032568231  -0.000007281496 0.00168547  0.00006700  0.0001398 0.0000
 92    -46.9032626316  -0.000005808521 0.00105927  0.00004490  0.0001017 0.0000
 93    -46.9032653152  -0.000002683602 0.00150208  0.00005648  0.0000748 0.0000
 94    -46.9032672233  -0.000001908040 0.00131043  0.00004692  0.0000458 0.0000
                 **** Energy Check signals convergence ****

               *****************************************************
               *                     SUCCESS                       *
               *           SCF CONVERGED AFTER  95 CYCLES          *
               *****************************************************


Setting up the DFT-NL grid :

General Integration Accuracy     IntAcc      ...  4.340
Radial Grid Type                 RadialGrid  ... Gauss-Chebyshev
Angular Grid (max. acc.)         AngularGrid ... Lebedev-110
Angular grid pruning method      GridPruning ... 3 (G Style)
Weight generation scheme         WeightScheme... Becke
Basis function cutoff            BFCut       ...    1.0000e-10
Integration weight cutoff        WCut        ...    1.0000e-14
Grids for H and He will be reduced by one unit

# of grid points (after initial pruning)     ...   3280 (   0.0 sec)
# of grid points (after weights+screening)   ...   3280 (   0.0 sec)
Grid point division into batches done        ...    0.0 sec
Reduced shell lists constructed in    0.0 sec

Total number of grid points                  ...     3280
Total number of batches                      ...       52
Average number of points per batch           ...       63
Average number of grid points per atom       ...     3280
Average number of shells per batch           ...     4.67 (29.17%)
Average number of basis functions per batch  ...    16.67 (29.76%)
Average number of large shells per batch     ...     3.33 (71.43%)
Average number of large basis fcns per batch ...     8.67 (52.00%)
Maximum spatial batch extension              ...  23.83, 37.49, 37.49 au
Average spatial batch extension              ...   0.92,  1.44,  1.44 au

Final grid set up in    0.1 sec

-------------------------------------------------------------------------------
                         DFT-NL dispersion correction                          
-------------------------------------------------------------------------------

SC Energy -46.903267535 
NL    Energy 0.046321210 
SC+NL Energy -46.856946325 
NL done in    0.1 sec
-------------------------------------------------------------------------------

----------------
TOTAL SCF ENERGY
----------------

Total Energy       :          -46.85694633 Eh           -1275.04233 eV

Components:
Nuclear Repulsion  :            0.00000000 Eh               0.00000 eV
Electronic Energy  :          -46.85694633 Eh           -1275.04233 eV
One Electron Energy:          -77.89563361 Eh           -2119.64795 eV
Two Electron Energy:           31.03868729 Eh             844.60562 eV

Virial components:
Potential Energy   :          -62.13602452 Eh           -1690.80719 eV
Kinetic Energy     :           15.27907819 Eh             415.76485 eV
Virial Ratio       :            4.06673909


DFT components:
N(Alpha)           :        6.999999998593 electrons
N(Beta)            :        4.999999998801 electrons
N(Total)           :       11.999999997394 electrons
E(X)               :       -3.013739007083 Eh       
E(C)               :       -0.423564198554 Eh       
NL Energy, E(C,NL) :        0.046321209740 Eh       
E(XC)              :       -3.390981995897 Eh       
DFET-embed. en.    :        0.000000000000 Eh       

---------------
SCF CONVERGENCE
---------------

  Last Energy change         ...   -3.1195e-07  Tolerance :   1.0000e-06
  Last MAX-Density change    ...    2.0263e-04  Tolerance :   1.0000e-05
  Last RMS-Density change    ...    7.6134e-06  Tolerance :   1.0000e-06
  Last DIIS Error            ...    2.4156e-05  Tolerance :   1.0000e-06

             **** THE GBW FILE WAS UPDATED (Zr.gbw) ****
             **** DENSITY FILE WAS UPDATED (Zr.scfp) ****
             **** ENERGY FILE WAS UPDATED (Zr.en.tmp) ****
----------------------
UHF SPIN CONTAMINATION
----------------------

Warning: in a DFT calculation there is little theoretical justification to 
         calculate <S**2> as in Hartree-Fock theory. We will do it anyways
         but you should keep in mind that the values have only limited relevance

Expectation value of <S**2>     :     2.003409
Ideal value S*(S+1) for S=1.0   :     2.000000
Deviation                       :     0.003409

             **** THE GBW FILE WAS UPDATED (Zr.gbw) ****
             **** DENSITY FILE WAS UPDATED (Zr.scfp) ****
----------------
ORBITAL ENERGIES
----------------
                 SPIN UP ORBITALS
  NO   OCC          E(Eh)            E(eV) 
   0   1.0000      -2.277263       -61.9675 
   1   1.0000      -1.405785       -38.2533 
   2   1.0000      -1.405780       -38.2532 
   3   1.0000      -1.405765       -38.2528 
   4   1.0000      -0.281278        -7.6540 
   5   1.0000      -0.281266        -7.6536 
   6   1.0000      -0.250025        -6.8035 
   7   0.0000       0.011196         0.3047 
   8   0.0000       0.011232         0.3056 
   9   0.0000       0.011250         0.3061 
  10   0.0000       0.012403         0.3375 
  11   0.0000       0.012420         0.3380 
  12   0.0000       0.012492         0.3399 
  13   0.0000       0.110911         3.0180 
  14   0.0000       0.166546         4.5320 
  15   0.0000       0.166578         4.5328 
  16   0.0000       0.166592         4.5332 
  17   0.0000       0.203218         5.5299 
  18   0.0000       0.203224         5.5300 
  19   0.0000       0.217223         5.9109 
  20   0.0000       0.217245         5.9115 
  21   0.0000       0.217267         5.9121 
  22   0.0000       0.534815        14.5531 
  23   0.0000       0.534835        14.5536 
  24   0.0000       0.534883        14.5549 
  25   0.0000       0.544830        14.8256 
  26   0.0000       0.544863        14.8265 
  27   0.0000       0.544884        14.8270 
  28   0.0000       0.557435        15.1686 
  29   0.0000       0.890016        24.2186 
  30   0.0000       0.890027        24.2189 
  31   0.0000       0.905230        24.6326 
  32   0.0000       0.905254        24.6332 
  33   0.0000       0.905301        24.6345 
  34   0.0000       1.026139        27.9227 
  35   0.0000       1.026166        27.9234 
  36   0.0000       1.026186        27.9239 
  37   0.0000       1.147946        31.2372 
  38   0.0000       1.233305        33.5599 
  39   0.0000       1.233911        33.5764 
  40   0.0000       1.233943        33.5773 
  41   0.0000       1.233953        33.5776 
  42   0.0000       1.237296        33.6685 
  43   0.0000       1.237303        33.6687 
  44   0.0000       1.244292        33.8589 
  45   0.0000       1.244296        33.8590 
  46   0.0000       1.244299        33.8591 
  47   0.0000       1.633258        44.4432 
  48   0.0000       1.633262        44.4433 
  49   0.0000       1.633306        44.4445 
  50   0.0000       1.642737        44.7011 
  51   0.0000       1.642751        44.7015 
  52   0.0000       1.642752        44.7015 
  53   0.0000       1.660278        45.1785 
  54   0.0000      19.882509       541.0306 
  55   0.0000      72.474975      1972.1443 

                 SPIN DOWN ORBITALS
  NO   OCC          E(Eh)            E(eV) 
   0   1.0000      -2.239393       -60.9370 
   1   1.0000      -1.355602       -36.8878 
   2   1.0000      -1.355558       -36.8866 
   3   1.0000      -1.355400       -36.8823 
   4   1.0000      -0.232573        -6.3286 
   5   0.0000       0.016106         0.4383 
   6   0.0000       0.016149         0.4394 
   7   0.0000       0.016172         0.4400 
   8   0.0000       0.029216         0.7950 
   9   0.0000       0.029257         0.7961 
  10   0.0000       0.029300         0.7973 
  11   0.0000       0.039831         1.0838 
  12   0.0000       0.039837         1.0840 
  13   0.0000       0.117984         3.2105 
  14   0.0000       0.175612         4.7786 
  15   0.0000       0.175651         4.7797 
  16   0.0000       0.175681         4.7805 
  17   0.0000       0.222947         6.0667 
  18   0.0000       0.222957         6.0670 
  19   0.0000       0.222981         6.0676 
  20   0.0000       0.228501         6.2178 
  21   0.0000       0.228513         6.2182 
  22   0.0000       0.560501        15.2520 
  23   0.0000       0.562224        15.2989 
  24   0.0000       0.562266        15.3000 
  25   0.0000       0.562290        15.3007 
  26   0.0000       0.564409        15.3583 
  27   0.0000       0.564422        15.3587 
  28   0.0000       0.564430        15.3589 
  29   0.0000       0.915752        24.9189 
  30   0.0000       0.915769        24.9193 
  31   0.0000       0.915814        24.9206 
  32   0.0000       0.925114        25.1736 
  33   0.0000       0.925128        25.1740 
  34   0.0000       1.049887        28.5689 
  35   0.0000       1.049931        28.5701 
  36   0.0000       1.050012        28.5723 
  37   0.0000       1.175407        31.9844 
  38   0.0000       1.253374        34.1060 
  39   0.0000       1.253399        34.1067 
  40   0.0000       1.253426        34.1075 
  41   0.0000       1.255388        34.1608 
  42   0.0000       1.255389        34.1609 
  43   0.0000       1.256486        34.1907 
  44   0.0000       1.256501        34.1911 
  45   0.0000       1.256505        34.1912 
  46   0.0000       1.258247        34.2387 
  47   0.0000       1.667731        45.3813 
  48   0.0000       1.678511        45.6746 
  49   0.0000       1.678627        45.6778 
  50   0.0000       1.678683        45.6793 
  51   0.0000       1.688044        45.9340 
  52   0.0000       1.688095        45.9354 
  53   0.0000       1.688120        45.9361 
  54   0.0000      19.886127       541.1290 
  55   0.0000      72.485885      1972.4412 

                    ********************************
                    * MULLIKEN POPULATION ANALYSIS *
                    ********************************

--------------------------------------------
MULLIKEN ATOMIC CHARGES AND SPIN POPULATIONS
--------------------------------------------
   0 Zr:   -0.000000    2.000000
Sum of atomic charges         :   -0.0000000
Sum of atomic spin populations:    2.0000000

-----------------------------------------------------
MULLIKEN REDUCED ORBITAL CHARGES AND SPIN POPULATIONS
-----------------------------------------------------
CHARGE
  0 Zrs       :     3.999898  s :     3.999898
      pz      :     1.999826  p :     5.999479
      px      :     1.999826
      py      :     1.999826
      dz2     :     0.672710  d :     1.999896
      dxz     :     0.388145
      dyz     :     0.049417
      dx2y2   :     0.639155
      dxy     :     0.250469
      f0      :     0.000108  f :     0.000521
      f+1     :     0.000106
      f-1     :     0.000052
      f+2     :     0.000053
      f-2     :     0.000021
      f+3     :     0.000080
      f-3     :     0.000100
      g0      :     0.000020  g :     0.000205
      g+1     :     0.000060
      g-1     :     0.000009
      g+2     :     0.000022
      g-2     :     0.000006
      g+3     :     0.000014
      g-3     :     0.000016
      g+4     :     0.000011
      g-4     :     0.000045

SPIN
  0 Zrs       :    -0.000083  s :    -0.000083
      pz      :    -0.000138  p :    -0.000412
      px      :    -0.000137
      py      :    -0.000137
      dz2     :     0.672710  d :     1.999889
      dxz     :     0.388144
      dyz     :     0.049415
      dx2y2   :     0.639152
      dxy     :     0.250468
      f0      :     0.000085  f :     0.000412
      f+1     :     0.000084
      f-1     :     0.000041
      f+2     :     0.000042
      f-2     :     0.000017
      f+3     :     0.000063
      f-3     :     0.000080
      g0      :     0.000018  g :     0.000194
      g+1     :     0.000056
      g-1     :     0.000009
      g+2     :     0.000021
      g-2     :     0.000006
      g+3     :     0.000014
      g-3     :     0.000015
      g+4     :     0.000011
      g-4     :     0.000042


                     *******************************
                     * LOEWDIN POPULATION ANALYSIS *
                     *******************************

-------------------------------------------
LOEWDIN ATOMIC CHARGES AND SPIN POPULATIONS
-------------------------------------------
   0 Zr:   -0.000000    2.000000

----------------------------------------------------
LOEWDIN REDUCED ORBITAL CHARGES AND SPIN POPULATIONS
----------------------------------------------------
CHARGE
  0 Zrs       :     3.999898  s :     3.999898
      pz      :     1.999826  p :     5.999479
      px      :     1.999826
      py      :     1.999826
      dz2     :     0.672710  d :     1.999896
      dxz     :     0.388145
      dyz     :     0.049417
      dx2y2   :     0.639155
      dxy     :     0.250469
      f0      :     0.000108  f :     0.000521
      f+1     :     0.000106
      f-1     :     0.000052
      f+2     :     0.000053
      f-2     :     0.000021
      f+3     :     0.000080
      f-3     :     0.000100
      g0      :     0.000020  g :     0.000205
      g+1     :     0.000060
      g-1     :     0.000009
      g+2     :     0.000022
      g-2     :     0.000006
      g+3     :     0.000014
      g-3     :     0.000016
      g+4     :     0.000011
      g-4     :     0.000045

SPIN
  0 Zrs       :    -0.000083  s :    -0.000083
      pz      :    -0.000138  p :    -0.000412
      px      :    -0.000137
      py      :    -0.000137
      dz2     :     0.672710  d :     1.999889
      dxz     :     0.388144
      dyz     :     0.049415
      dx2y2   :     0.639152
      dxy     :     0.250468
      f0      :     0.000085  f :     0.000412
      f+1     :     0.000084
      f-1     :     0.000041
      f+2     :     0.000042
      f-2     :     0.000017
      f+3     :     0.000063
      f-3     :     0.000080
      g0      :     0.000018  g :     0.000194
      g+1     :     0.000056
      g-1     :     0.000009
      g+2     :     0.000021
      g-2     :     0.000006
      g+3     :     0.000014
      g-3     :     0.000015
      g+4     :     0.000011
      g-4     :     0.000042


                      *****************************
                      * MAYER POPULATION ANALYSIS *
                      *****************************

  NA   - Mulliken gross atomic population
  ZA   - Total nuclear charge
  QA   - Mulliken gross atomic charge
  VA   - Mayer's total valence
  BVA  - Mayer's bonded valence
  FA   - Mayer's free valence

  ATOM       NA         ZA         QA         VA         BVA        FA
  0 Zr    12.0000    12.0000    -0.0000     2.0068     0.0000     2.0068

  Mayer bond orders larger than 0.100000


-------
TIMINGS
-------

Total SCF time: 0 days 0 hours 5 min 55 sec 

Total time                  ....     355.267 sec
Sum of individual times     ....     352.720 sec  ( 99.3%)

Fock matrix formation       ....     330.776 sec  ( 93.1%)
  XC integration            ....     303.683 sec  ( 91.8% of F)
    Basis function eval.    ....       0.051 sec  (  0.0% of XC)
    Density eval.           ....       0.064 sec  (  0.0% of XC)
    XC-Functional eval.     ....       0.136 sec  (  0.0% of XC)
    XC-Potential eval.      ....       0.084 sec  (  0.0% of XC)
Diagonalization             ....       4.342 sec  (  1.2%)
Density matrix formation    ....       0.274 sec  (  0.1%)
Population analysis         ....       0.107 sec  (  0.0%)
Initial guess               ....      14.610 sec  (  4.1%)
Orbital Transformation      ....       0.000 sec  (  0.0%)
Orbital Orthonormalization  ....       0.000 sec  (  0.0%)
DIIS solution               ....       0.943 sec  (  0.3%)
Grid generation             ....       1.667 sec  (  0.5%)

-------------------------   --------------------
FINAL SINGLE POINT ENERGY       -46.856946325477
-------------------------   --------------------


----------------------------------------------------------------------------
                           ORCA NUMERICAL GRADIENT
                              (28-process run)
----------------------------------------------------------------------------

I state                        ... 1
J state                        ... 0
Number of atoms                ... 1
Derivative's order of accuracy ... 2
Central differences            ... used
Number of displacements        ... 6
Numerical increment            ... 5.000e-03 bohr
Translation invariance         ... used

The output will be reduced. Please look at the following files:
SCF program output             ... >Zr.lastscf
Integral program output        ... >Zr.lastint
Gradient program output        ... >Zr.lastgrad


     Note:   There are more processes than displacements to do
     ===>:   Reducing number of processes to   0


------------------------------
CARTESIAN GRADIENT (NUMERICAL)
-------------------------------
   1   Zr  :    0.000000000    0.000000000    0.000000000

Norm of the cartesian gradient     ...    0.000000000
RMS gradient                       ...    0.000000000
MAX gradient                       ...    0.000000000
*** glibc detected *** /mnt/storage/software/apps/orca-4.2.0/orca_4_2_0_linux_x86-64_openmpi314/orca: free(): invalid next size (fast): 0x000000000d281010 ***
======= Backtrace: =========
[0xb0928aa]
[0xb09567c]
[0x76d903]
[0x76fb95]
[0x915b4f]
[0x918f24]
[0x487649]
[0xb05c99e]
[0x4870d9]
======= Memory map: ========
00400000-0bf42000 r-xp 00000000 00:2b 4876154                            /mnt/storage/software/apps/orca-4.2.0/orca_4_2_0_linux_x86-64_openmpi314/orca
0c141000-0c203000 rw-p 0bb41000 00:2b 4876154                            /mnt/storage/software/apps/orca-4.2.0/orca_4_2_0_linux_x86-64_openmpi314/orca
0c203000-0c77a000 rw-p 00000000 00:00 0 
0d1de000-0d44a000 rw-p 00000000 00:00 0                                  [heap]
2b1593fb1000-2b15947b2000 rw-p 00000000 00:00 0 
2b1594fb1000-2b1597674000 rw-p 00000000 00:00 0 
2b1598000000-2b15980b3000 rw-p 00000000 00:00 0 
2b15980b3000-2b159c000000 ---p 00000000 00:00 0 
7ffc79198000-7ffc7929a000 rw-p 00000000 00:00 0                          [stack]
7ffc79322000-7ffc79324000 r-xp 00000000 00:00 0                          [vdso]
ffffffffff600000-ffffffffff601000 r-xp 00000000 00:00 0                  [vsyscall]
