
                                 *****************
                                 * O   R   C   A *
                                 *****************

           --- An Ab Initio, DFT and Semiempirical electronic structure package ---

                  #######################################################
                  #                        -***-                        #
                  #          Department of theory and spectroscopy      #
                  #               Directorship: Frank Neese             #
                  #        Max Planck Institute fuer Kohlenforschung    #
                  #                Kaiser Wilhelm Platz 1               #
                  #                 D-45470 Muelheim/Ruhr               #
                  #                      Germany                        #
                  #                                                     #
                  #                  All rights reserved                #
                  #                        -***-                        #
                  #######################################################


                         Program Version 4.2.0 -  RELEASE  -


 With contributions from (in alphabetic order):
   Daniel Aravena         : Magnetic Suceptibility
   Michael Atanasov       : Ab Initio Ligand Field Theory (pilot matlab implementation)
   Alexander A. Auer      : GIAO ZORA, VPT2
   Ute Becker             : Parallelization
   Giovanni Bistoni       : ED, misc. LED, open-shell LED, HFLED
   Martin Brehm           : Molecular dynamics
   Dmytro Bykov           : SCF Hessian
   Vijay G. Chilkuri      : MRCI spin determinant printing, contributions to CSF-ICE
   Dipayan Datta          : RHF DLPNO-CCSD density
   Achintya Kumar Dutta   : EOM-CC, STEOM-CC
   Dmitry Ganyushin       : Spin-Orbit,Spin-Spin,Magnetic field MRCI
   Miquel Garcia          : C-PCM Hessian, Gaussian charge scheme
   Yang Guo               : DLPNO-NEVPT2, CIM, IAO-localization
   Andreas Hansen         : Spin unrestricted coupled pair/coupled cluster methods
   Benjamin Helmich-Paris : CASSCF linear response (MC-RPA)
   Lee Huntington         : MR-EOM, pCC
   Robert Izsak           : Overlap fitted RIJCOSX, COSX-SCS-MP3, EOM
   Christian Kollmar      : KDIIS, OOCD, Brueckner-CCSD(T), CCSD density
   Simone Kossmann        : Meta GGA functionals, TD-DFT gradient, OOMP2, MP2 Hessian
   Martin Krupicka        : AUTO-CI
   Lucas Lang             : DCDCAS
   Dagmar Lenk            : GEPOL surface, SMD
   Dimitrios Liakos       : Extrapolation schemes; Compound Job, initial MDCI parallelization
   Dimitrios Manganas     : Further ROCIS development; embedding schemes
   Dimitrios Pantazis     : SARC Basis sets
   Taras Petrenko         : DFT Hessian,TD-DFT gradient, ASA, ECA, R-Raman, ABS, FL, XAS/XES, NRVS
   Peter Pinski           : DLPNO-MP2, DLPNO-MP2 Gradient
   Christoph Reimann      : Effective Core Potentials
   Marius Retegan         : Local ZFS, SOC
   Christoph Riplinger    : Optimizer, TS searches, QM/MM, DLPNO-CCSD(T), (RO)-DLPNO pert. Triples
   Tobias Risthaus        : Range-separated hybrids, TD-DFT gradient, RPA, STAB
   Michael Roemelt        : Original ROCIS implementation
   Masaaki Saitow         : Open-shell DLPNO-CCSD energy and density
   Barbara Sandhoefer     : DKH picture change effects
   Avijit Sen             : IP-ROCIS
   Kantharuban Sivalingam : CASSCF convergence, NEVPT2, FIC-MRCI
   Bernardo de Souza      : ESD, SOC TD-DFT
   Georgi Stoychev        : AutoAux, RI-MP2 NMR
   Willem Van den Heuvel  : Paramagnetic NMR
   Boris Wezisla          : Elementary symmetry handling
   Frank Wennmohs         : Technical directorship


 We gratefully acknowledge several colleagues who have allowed us to
 interface, adapt or use parts of their codes:
   Stefan Grimme, W. Hujo, H. Kruse,             : VdW corrections, initial TS optimization,
                  C. Bannwarth                     DFT functionals, gCP, sTDA/sTD-DF
   Ed Valeev, F. Pavosevic, A. Kumar             : LibInt (2-el integral package), F12 methods
   Garnet Chan, S. Sharma, J. Yang, R. Olivares  : DMRG
   Ulf Ekstrom                                   : XCFun DFT Library
   Mihaly Kallay                                 : mrcc  (arbitrary order and MRCC methods)
   Andreas Klamt, Michael Diedenhofen            : otool_cosmo (COSMO solvation model)
   Jiri Pittner, Ondrej Demel                    : Mk-CCSD
   Frank Weinhold                                : gennbo (NPA and NBO analysis)
   Christopher J. Cramer and Donald G. Truhlar   : smd solvation model
   Lars Goerigk                                  : TD-DFT with DH, B97 family of functionals
   V. Asgeirsson, H. Jonsson                     : NEB implementation
   FAccTs GmbH                                   : IRC, NEB, NEB-TS, Multilevel, MM, QM/MM, CI optimization
   S Lehtola, MJT Oliveira, MAL Marques          : LibXC Library


 Your calculation uses the libint2 library for the computation of 2-el integrals
 For citations please refer to: http://libint.valeyev.net

 Your ORCA version has been built with support for libXC version: 4.2.3
 For citations please refer to: https://tddft.org/programs/libxc/

 This ORCA versions uses:
   CBLAS   interface :  Fast vector & matrix operations
   LAPACKE interface :  Fast linear algebra routines
   SCALAPACK package :  Parallel linear algebra routines


Your calculation utilizes the DFT-NL dispersion correction.
Cite in your paper:
Vydrov, O. A.; Van Voorhis, T. J. Chem. Phys. 2010, 133, 244103
Hujo, W.; Grimme, S. J. Chem. Theory Comput. 2011, 7, 3866 
   

----- Orbital basis set information -----
Your calculation utilizes the basis: def2-TZVPPD
   F. Weigend and R. Ahlrichs, Phys. Chem. Chem. Phys. 7, 3297 (2005).
   D. Rappoport and F. Furche, J. Chem. Phys. 133 134105 (2010).

----- AuxJK basis set information -----
Your calculation utilizes the auxiliary basis: def2/JK
   H-Ba, Hf-Rn: F. Weigend, J. Comput. Chem. 29, 167 (2008).

cite the ECPs for Zr [Def2-ECP] as follows:
Ce-Yb(ecp-28): M. Dolg, H. Stoll, H.Preuss, J. Chem. Phys., 1989, 90, 1730-1734.
Y-Cd(ecp-28), Hf-Hg(ecp-46): D. Andrae,U. Haeussermann, M. Dolg, H. Stoll, H. Preuss, Theor. Chim. Acta, 1990, 77, 123-141.
In-Sb(ecp-28), Tl-Bi(ecp-46): B. Metz, H. Stoll, M. Dolg, J. Chem. Phys., 2000, 113, 2563-2569.
Te-Xe(ecp-28), Po-Rn(ecp-46): K. A. Peterson, D. Figgen, E. Goll, H. Stoll, M. Dolg, J. Chem. Phys., 2003, 119, 11113-11123.
Rb(ecp-28), Cs(ecp-46): T. Leininger, A. Nicklass, W. Kuechle, H. Stoll, M. Dolg, A. Bergner, Chem. Phys. Lett., 1996, 255, 274-280.
Sr(ecp-28), Ba(ecp-46): M. Kaupp, P. V. Schleyer, H. Stoll and H. Preuss, J. Chem. Phys., 1991, 94, 1360-1366.
La(ecp-46): M. Dolg, H. Stoll, A. Savin, H. Preuss, Theor. Chim. Acta, 1989, 75, 173-194.
Lu(ecp-28): X. Cao, M. Dolg, J. Chem. Phys., 2001, 115, 7348-7355.

ECP parameters for Zr [Def2-ECP] have been obtained from:
TURBOMOLE (7.0.2)

================================================================================
                                        WARNINGS
                       Please study these warnings very carefully!
================================================================================

INFO   : Found keyword 'NumGrad' for Energy calculation
  ===> : Setting RunTyp to EnGrad

WARNING: Numerical Gradient with sloppy Convergence Criteria    
         Your results may be not reliable!                      
         Please choose at least TightSCF!                       

WARNING: your system is open-shell and RHF/RKS was chosen
  ===> : WILL SWITCH to UHF/UKS


INFO   : the flag for use of LIBINT has been found!

================================================================================
                                       INPUT FILE
================================================================================
NAME = Zr2.in
|  1> #
|  2> # Zr2 wB97X-V/Def2-TZVPPD
|  3> #
|  4> ! wb97x-v def2-tzvppd def2/jk grid4 nofinalgrid numgrad
|  5> 
|  6> *xyz 0 3
|  7> Zr         0.00000        0.00000        0.00000
|  8> Zr         0.00000        0.00000        2.24000
|  9> *
| 10> 
| 11> %maxcore 5000
| 12> 
| 13> %pal
| 14> nprocs = 28
| 15> end
| 16> 
| 17> 
| 18>                          ****END OF INPUT****
================================================================================

                     *******************************
                     * Energy+Gradient Calculation *
                     *******************************

---------------------------------
CARTESIAN COORDINATES (ANGSTROEM)
---------------------------------
  Zr     0.000000    0.000000    0.000000
  Zr     0.000000    0.000000    2.240000

----------------------------
CARTESIAN COORDINATES (A.U.)
----------------------------
  NO LB      ZA    FRAG     MASS         X           Y           Z
   0 Zr   12.0000*   0    91.220    0.000000    0.000000    0.000000
   1 Zr   12.0000*   0    91.220    0.000000    0.000000    4.232987
* core charge reduced due to ECP

--------------------------------
INTERNAL COORDINATES (ANGSTROEM)
--------------------------------
 Zr     0   0   0     0.000000000000     0.00000000     0.00000000
 Zr     1   0   0     2.240000000000     0.00000000     0.00000000

---------------------------
INTERNAL COORDINATES (A.U.)
---------------------------
 Zr     0   0   0     0.000000000000     0.00000000     0.00000000
 Zr     1   0   0     4.232986539984     0.00000000     0.00000000

---------------------
BASIS SET INFORMATION
---------------------
There are 1 groups of distinct atoms

 Group   1 Type Zr  : 7s7p5d2f1g contracted to 6s4p3d2f1g pattern {211111/4111/311/11/1}

Atom   0Zr   basis set group =>   1
Atom   1Zr   basis set group =>   1
----------------------------------
AUXILIARY/JK BASIS SET INFORMATION
----------------------------------
There are 1 groups of distinct atoms

 Group   1 Type Zr  : 13s12p10d9f6g3h2i contracted to 11s10p9d8f6g3h2i pattern {31111111111/3111111111/211111111/21111111/111111/111/11}

Atom   0Zr   basis set group =>   1
Atom   1Zr   basis set group =>   1
-------------------------
ECP PARAMETER INFORMATION
-------------------------

 Group 1, Type Zr ECP Def2-ECP (replacing 28 core electrons, lmax=3)

Atom   0Zr   ECP group =>   1
Atom   1Zr   ECP group =>   1



           ************************************************************
           *        Program running with 28 parallel MPI-processes    *
           *              working on a common directory               *
           ************************************************************
------------------------------------------------------------------------------
                           ORCA GTO INTEGRAL CALCULATION
------------------------------------------------------------------------------

                         BASIS SET STATISTICS AND STARTUP INFO

 # of primitive gaussian shells          ...   44
 # of primitive gaussian functions       ...  152
 # of contracted shells                  ...   32
 # of contracted basis functions         ...  112
 Highest angular momentum                ...    4
 Maximum contraction depth               ...    4
 Integral package used                   ... LIBINT
 Integral threshhold            Thresh   ...  1.000e-10
 Primitive cut-off              TCut     ...  1.000e-11


------------------------------ INTEGRAL EVALUATION ----------------------------


 * One electron integrals 

   ECP integrals                         ... done
 Pre-screening matrix                    ... done
 Shell pair data                         ... done (   0.000 sec)



           ************************************************************
           *        Program running with 28 parallel MPI-processes    *
           *              working on a common directory               *
           ************************************************************
-------------------------------------------------------------------------------
                                 ORCA SCF
-------------------------------------------------------------------------------

------------
SCF SETTINGS
------------
Hamiltonian:
 Density Functional     Method          .... DFT(GTOs)
 Exchange Functional    Exchange        .... WB97X-V
 Correlation Functional Correlation     .... WB97X-V
 Gradients option       PostSCFGGA      .... off
 Hybrid DFT is turned on
   Fraction HF Exchange ScalHFX         ....  0.167000
   Scaling of DF-GGA-X  ScalDFX         ....  0.000000
   Scaling of DF-GGA-C  ScalDFC         ....  1.000000
   Scaling of DF-LDA-C  ScalLDAC        ....  1.000000
   Perturbative correction              ....  0.000000
   Density functional embedding theory  .... OFF
 Long-range corrected/Screened/Range-Separated Hybrid DFT is turned on
   Amount of maximum screened exact exchange              ....  0.833000
   Range separation parameter mu (erf(mu*r12)/r12)        ....  0.300000
   NL short-range parameter             ....  6.000000
   NL long-range parameter              ....  0.010000


General Settings:
 Integral files         IntName         .... Zr2
 Hartree-Fock type      HFTyp           .... UHF
 Total Charge           Charge          ....    0
 Multiplicity           Mult            ....    3
 Number of Electrons    NEL             ....   24
 Basis Dimension        Dim             ....  112
 Nuclear Repulsion      ENuc            ....     34.0185348193 Eh

Convergence Acceleration:
 DIIS                   CNVDIIS         .... on
   Start iteration      DIISMaxIt       ....    12
   Startup error        DIISStart       ....  0.200000
   # of expansion vecs  DIISMaxEq       ....     5
   Bias factor          DIISBfac        ....   1.050
   Max. coefficient     DIISMaxC        ....  10.000
 Newton-Raphson         CNVNR           .... off
 SOSCF                  CNVSOSCF        .... off
 Level Shifting         CNVShift        .... on
   Level shift para.    LevelShift      ....    0.2500
   Turn off err/grad.   ShiftErr        ....    0.0010
 Zerner damping         CNVZerner       .... off
 Static damping         CNVDamp         .... on
   Fraction old density DampFac         ....    0.7000
   Max. Damping (<1)    DampMax         ....    0.9800
   Min. Damping (>=0)   DampMin         ....    0.0000
   Turn off err/grad.   DampErr         ....    0.1000
 Fernandez-Rico         CNVRico         .... off

SCF Procedure:
 Maximum # iterations   MaxIter         ....   125
 SCF integral mode      SCFMode         .... Direct
   Integral package                     .... LIBINT
 Reset frequency        DirectResetFreq ....    20
 Integral Threshold     Thresh          ....  1.000e-10 Eh
 Primitive CutOff       TCut            ....  1.000e-11 Eh

Convergence Tolerance:
 Convergence Check Mode ConvCheckMode   .... Total+1el-Energy
 Convergence forced     ConvForced      .... 0
 Energy Change          TolE            ....  1.000e-06 Eh
 1-El. energy change                    ....  1.000e-03 Eh
 DIIS Error             TolErr          ....  1.000e-06


Diagonalization of the overlap matrix:
Smallest eigenvalue                        ... 1.502e-04
Time for diagonalization                   ...    0.002 sec
Threshold for overlap eigenvalues          ... 1.000e-08
Number of eigenvalues below threshold      ... 0
Time for construction of square roots      ...    0.070 sec
Total time needed                          ...    0.073 sec

-------------------
DFT GRID GENERATION
-------------------

General Integration Accuracy     IntAcc      ...  4.670
Radial Grid Type                 RadialGrid  ... Gauss-Chebyshev
Angular Grid (max. acc.)         AngularGrid ... Lebedev-302
Angular grid pruning method      GridPruning ... 3 (G Style)
Weight generation scheme         WeightScheme... Becke
Basis function cutoff            BFCut       ...    1.0000e-10
Integration weight cutoff        WCut        ...    1.0000e-14
Grids for H and He will be reduced by one unit

# of grid points (after initial pruning)     ...  21364 (   0.0 sec)
# of grid points (after weights+screening)   ...  21326 (   0.0 sec)
nearest neighbour list constructed           ...    0.0 sec
Grid point re-assignment to atoms done       ...    0.0 sec
Grid point division into batches done        ...    0.2 sec
Reduced shell lists constructed in    0.2 sec

Total number of grid points                  ...    21326
Total number of batches                      ...      334
Average number of points per batch           ...       63
Average number of grid points per atom       ...    10663
Average number of shells per batch           ...     3.15 ( 9.86%)
Average number of basis functions per batch  ...     7.15 ( 6.39%)
Average number of large shells per batch     ...     2.31 (73.17%)
Average number of large basis fcns per batch ...     5.08 (70.97%)
Maximum spatial batch extension              ...  31.14, 31.14, 19.99 au
Average spatial batch extension              ...   0.86,  0.86,  0.64 au

Time for grid setup =    2.157 sec

------------------------------
INITIAL GUESS: MODEL POTENTIAL
------------------------------
Loading Hartree-Fock densities                     ... done
  calling /mnt/storage/software/apps/orca-4.2.0/orca_4_2_0_linux_x86-64_openmpi314/orca Zr2_atom40.inp > Zr2_atom40.out in order to generate an atomic fitting density for atom 0 (Zr with ECP) on-the-fly... 
    atom 0 (Zr), assumed electronic state with S=3: 1s2 2s2 2p6 3s2 3p6 4s2 3d10 4p6 4d2 5s2           ... done
Calculating cut-offs                               ... done
Setting up the integral package                    ... done
Initializing the effective Hamiltonian             ... done
Starting the Coulomb interaction                   ... done (   0.0 sec)
Reading the grid                                   ... done
Mapping shells                                     ... done
Starting the XC term evaluation                    ... done (   0.0 sec)
  promolecular density results
     # of electrons  =     80.000622817
     EX              =   -171.845156751
     EC              =     -5.275625803
     EX+EC           =   -177.120782554
Transforming the Hamiltonian                       ... done (   0.0 sec)
Diagonalizing the Hamiltonian                      ... done (   0.0 sec)
Back transforming the eigenvectors                 ... done (   0.0 sec)
Now organizing SCF variables                       ... done
                      ------------------
                      INITIAL GUESS DONE (  17.1 sec)
                      ------------------
--------------
SCF ITERATIONS
--------------
ITER       Energy         Delta-E        Max-DP      RMS-DP      [F,P]     Damp
               ***  Starting incremental Fock matrix formation  ***
  0    -92.9439845973   0.000000000000 0.07152873  0.00250852  0.3940324 0.7000
  1    -93.2746658636  -0.330681266251 0.04272665  0.00197441  0.2597533 0.7000
                               ***Turning on DIIS***
  2    -93.4365060877  -0.161840224176 0.02562193  0.00123315  0.1673632 0.7000
  3    -93.5249092445  -0.088403156809 0.01581077  0.00066486  0.1096535 0.7000
  4    -93.5875356676  -0.062626423094 0.02937019  0.00146313  0.0760893 0.0000
  5    -93.7429189885  -0.155383320866 0.00993840  0.00047237  0.0120028 0.0000
  6    -93.7463817141  -0.003462725592 0.00768188  0.00032880  0.0140550 0.0000
  7    -93.7493648923  -0.002983178171 0.00368534  0.00017647  0.0154797 0.0000
  8    -93.7513211186  -0.001956226321 0.00242852  0.00011346  0.0160614 0.0000
  9    -93.7527078977  -0.001386779149 0.00189016  0.00006797  0.0164203 0.0000
 10    -93.7535689093  -0.000861011535 0.00181761  0.00007210  0.0165829 0.0000
 11    -93.7544162869  -0.000847377630 0.00466134  0.00016499  0.0167152 0.0000
 12    -93.7563156403  -0.001899353409 0.00127920  0.00005825  0.0175206 0.0000
 13    -93.7570453185  -0.000729678189 0.00537078  0.00021124  0.0179244 0.0000
 14    -93.7596781141  -0.002632795585 0.00513909  0.00020498  0.0197146 0.0000
 15    -93.7624467902  -0.002768676175 0.00269159  0.00011905  0.0211904 0.0000
 16    -93.7641513187  -0.001704528489 0.00088631  0.00003865  0.0217935 0.0000
 17    -93.7646895877  -0.000538268923 0.00051476  0.00002191  0.0216335 0.0000
 18    -93.7646905603  -0.000000972602 0.00731991  0.00026409  0.0209585 0.0000
 19    -93.7684198731  -0.003729312828 0.00626458  0.00024377  0.0213637 0.0000
               *** Restarting incremental Fock matrix formation ***
                                   *** Resetting DIIS ***
 20    -93.7720973816  -0.003677508462 0.01193438  0.00045197  0.0212976 0.0000
 21    -93.7786022509  -0.006504869298 0.00907462  0.00035853  0.0240484 0.0000
 22    -93.7840819646  -0.005479713705 0.01003968  0.00041073  0.0233718 0.0000
 23    -93.7901248301  -0.006042865545 0.01988772  0.00070165  0.0233073 0.0000
 24    -93.7994388547  -0.009314024600 0.02360326  0.00074929  0.0233014 0.0000
 25    -93.8084206962  -0.008981841482 0.03374715  0.00098881  0.0208315 0.0000
 26    -93.8172867914  -0.008866095220 0.00696480  0.00025839  0.0187946 0.0000
 27    -93.8194455256  -0.002158734153 0.02780637  0.00088009  0.0132730 0.0000
 28    -93.8242457590  -0.004800233453 0.01145846  0.00044218  0.0134900 0.0000
 29    -93.8266879874  -0.002442228369 0.01141937  0.00036733  0.0095597 0.0000
 30    -93.8283820687  -0.001694081290 0.01221679  0.00036293  0.0065412 0.0000
 31    -93.8296225869  -0.001240518209 0.01085576  0.00031096  0.0045626 0.0000
 32    -93.8304882742  -0.000865687333 0.00845632  0.00023699  0.0029691 0.0000
 33    -93.8310421436  -0.000553869353 0.00684955  0.00019211  0.0018855 0.0000
 34    -93.8314440308  -0.000401887233 0.00534198  0.00015389  0.0012245 0.0000
 35    -93.8317541363  -0.000310105522 0.00770443  0.00024382  0.0007773 0.0000
 36    -93.8322230979  -0.000468961564 0.00304397  0.00011465  0.0003038 0.0000
 37    -93.8324197891  -0.000196691199 0.00156456  0.00005537  0.0001956 0.0000
 38    -93.8325052979  -0.000085508799 0.00209720  0.00008124  0.0001005 0.0000
 39    -93.8326256256  -0.000120327718 0.00090509  0.00003636  0.0002256 0.0000
               *** Restarting incremental Fock matrix formation ***
                                   *** Resetting DIIS ***
 40    -93.8326761377  -0.000050512114 0.00157767  0.00006471  0.0000507 0.0000
 41    -93.8327605523  -0.000084414626 0.00059705  0.00002455  0.0000893 0.0000
 42    -93.8327906124  -0.000030060099 0.00185301  0.00007607  0.0000646 0.0000
 43    -93.8328770372  -0.000086424746 0.00321746  0.00013183  0.0000521 0.0000
 44    -93.8327207209   0.000156316306 0.00178507  0.00007283  0.0000627 0.0000
 45    -93.8328108770  -0.000090156148 0.00069580  0.00002855  0.0000491 0.0000
 46    -93.8328436441  -0.000032767036 0.00269338  0.00010944  0.0000601 0.0000
 47    -93.8329557657  -0.000112121597 0.00023866  0.00000967  0.0001378 0.0000
 48    -93.8329467432   0.000009022415 0.00086003  0.00003514  0.0001068 0.0000
 49    -93.8329124826   0.000034260628 0.00175920  0.00007127  0.0000859 0.0000
 50    -93.8328361617   0.000076320955 0.00117468  0.00004737  0.0000949 0.0000
 51    -93.8327804355   0.000055726132 0.00165520  0.00006687  0.0000889 0.0000
 52    -93.8328579492  -0.000077513668 0.00119311  0.00004799  0.0001105 0.0000
 53    -93.8329086750  -0.000050725835 0.00329287  0.00013216  0.0000707 0.0000
 54    -93.8330268886  -0.000118213557 0.00570318  0.00022832  0.0001023 0.0000
 55    -93.8328027890   0.000224099580 0.00386948  0.00015431  0.0001256 0.0000
 56    -93.8329645788  -0.000161789813 0.00018538  0.00000722  0.0000907 0.0000
 57    -93.8329710583  -0.000006479524 0.00192392  0.00007636  0.0000848 0.0000
 58    -93.8330342000  -0.000063141633 0.00493275  0.00019364  0.0001209 0.0000
 59    -93.8331459424  -0.000111742398 0.00811667  0.00031837  0.0001998 0.0000
               *** Restarting incremental Fock matrix formation ***
                                   *** Resetting DIIS ***
 60    -93.8329252849   0.000220657434 0.00117064  0.00004695  0.0001653 0.0000
 61    -93.8329693209  -0.000044035924 0.00084868  0.00003409  0.0001385 0.0000
 62    -93.8329988065  -0.000029485628 0.00068893  0.00002735  0.0001874 0.0000
 63    -93.8330210277  -0.000022221165 0.00122706  0.00004855  0.0001289 0.0000
 64    -93.8330571663  -0.000036138668 0.00175583  0.00006909  0.0000747 0.0000
 65    -93.8331011009  -0.000043934609 0.00325550  0.00012846  0.0000744 0.0000
 66    -93.8330123953   0.000088705606 0.00179721  0.00007053  0.0000651 0.0000
 67    -93.8329508148   0.000061580537 0.00505941  0.00019829  0.0000981 0.0000
 68    -93.8331007626  -0.000149947777 0.00291377  0.00011284  0.0000728 0.0000
 69    -93.8331535076  -0.000052745067 0.00288624  0.00011113  0.0000945 0.0000
 70    -93.8331016730   0.000051834601 0.00048485  0.00001816  0.0001097 0.0000
 71    -93.8331117582  -0.000010085142 0.00379827  0.00014704  0.0001049 0.0000
 72    -93.8331701792  -0.000058420987 0.00577811  0.00022367  0.0001247 0.0000
 73    -93.8330651139   0.000105065273 0.00342865  0.00013291  0.0001326 0.0000
 74    -93.8329584181   0.000106695809 0.00641719  0.00024815  0.0002807 0.0000
 75    -93.8331310617  -0.000172643620 0.00273142  0.00010474  0.0002037 0.0000
 76    -93.8331693493  -0.000038287565 0.00341143  0.00012973  0.0000917 0.0000
 77    -93.8331874230  -0.000018073688 0.00136630  0.00005188  0.0001377 0.0000
 78    -93.8331853751   0.000002047815 0.00023180  0.00000886  0.0001406 0.0000
 79    -93.8331844533   0.000000921832 0.00918787  0.00034972  0.0001492 0.0000
               *** Restarting incremental Fock matrix formation ***
                                   *** Resetting DIIS ***
 80    -93.8331026774   0.000081775872 0.00069642  0.00002734  0.0002024 0.0000
 81    -93.8331172054  -0.000014527956 0.00040694  0.00001628  0.0002234 0.0000
 82    -93.8331249765  -0.000007771093 0.00039541  0.00001537  0.0003384 0.0000
 83    -93.8331323099  -0.000007333438 0.00083057  0.00003163  0.0000819 0.0000
 84    -93.8331459304  -0.000013620464 0.00144430  0.00005474  0.0000678 0.0000
 85    -93.8331650117  -0.000019081352 0.00300201  0.00011273  0.0000593 0.0000
 86    -93.8331861863  -0.000021174559 0.00585635  0.00021840  0.0000459 0.0000
 87    -93.8331556876   0.000030498651 0.00285403  0.00010639  0.0000832 0.0000
 88    -93.8331824880  -0.000026800402 0.00024468  0.00000917  0.0001217 0.0000
 89    -93.8331837314  -0.000001243346 0.00157131  0.00005889  0.0001039 0.0000
 90    -93.8331877156  -0.000003984166 0.00254444  0.00009545  0.0001001 0.0000
 91    -93.8331795891   0.000008126420 0.00062339  0.00002381  0.0000503 0.0000
 92    -93.8331747993   0.000004789875 0.00063511  0.00002380  0.0000568 0.0000
 93    -93.8331688890   0.000005910246 0.00172833  0.00006474  0.0000776 0.0000
 94    -93.8331823832  -0.000013494222 0.00214130  0.00007959  0.0000468 0.0000
 95    -93.8331877785  -0.000005395223 0.00075311  0.00002715  0.0000300 0.0000
                 **** Energy Check signals convergence ****

               *****************************************************
               *                     SUCCESS                       *
               *           SCF CONVERGED AFTER  96 CYCLES          *
               *****************************************************


Setting up the DFT-NL grid :

General Integration Accuracy     IntAcc      ...  4.340
Radial Grid Type                 RadialGrid  ... Gauss-Chebyshev
Angular Grid (max. acc.)         AngularGrid ... Lebedev-110
Angular grid pruning method      GridPruning ... 3 (G Style)
Weight generation scheme         WeightScheme... Becke
Basis function cutoff            BFCut       ...    1.0000e-10
Integration weight cutoff        WCut        ...    1.0000e-14
Grids for H and He will be reduced by one unit

# of grid points (after initial pruning)     ...   6560 (   0.0 sec)
# of grid points (after weights+screening)   ...   6526 (   0.0 sec)
nearest neighbour list constructed           ...    0.0 sec
Grid point re-assignment to atoms done       ...    0.0 sec
Grid point division into batches done        ...    0.0 sec
Reduced shell lists constructed in    0.0 sec

Total number of grid points                  ...     6526
Total number of batches                      ...      102
Average number of points per batch           ...       63
Average number of grid points per atom       ...     3263
Average number of shells per batch           ...    10.40 (32.50%)
Average number of basis functions per batch  ...    36.00 (32.14%)
Average number of large shells per batch     ...     8.00 (76.92%)
Average number of large basis fcns per batch ...    20.80 (57.78%)
Maximum spatial batch extension              ...  23.83, 37.49, 21.87 au
Average spatial batch extension              ...   0.87,  1.20,  0.86 au

Final grid set up in    0.6 sec

-------------------------------------------------------------------------------
                         DFT-NL dispersion correction                          
-------------------------------------------------------------------------------

SC Energy -93.833186781 
NL    Energy 0.087312026 
SC+NL Energy -93.745874756 
NL done in    0.5 sec
-------------------------------------------------------------------------------

----------------
TOTAL SCF ENERGY
----------------

Total Energy       :          -93.74587476 Eh           -2550.95494 eV

Components:
Nuclear Repulsion  :           34.01853482 Eh             925.69139 eV
Electronic Energy  :         -127.76440958 Eh           -3476.64633 eV
One Electron Energy:         -225.15106736 Eh           -6126.67202 eV
Two Electron Energy:           97.38665778 Eh            2650.02568 eV

Virial components:
Potential Energy   :         -124.98052616 Eh           -3400.89301 eV
Kinetic Energy     :           31.23465141 Eh             849.93807 eV
Virial Ratio       :            4.00134212


DFT components:
N(Alpha)           :       12.999999661423 electrons
N(Beta)            :       11.000000492117 electrons
N(Total)           :       24.000000153540 electrons
E(X)               :       -6.189438174560 Eh       
E(C)               :       -0.913401172555 Eh       
NL Energy, E(C,NL) :        0.087312025609 Eh       
E(XC)              :       -7.015527321506 Eh       
DFET-embed. en.    :        0.000000000000 Eh       

---------------
SCF CONVERGENCE
---------------

  Last Energy change         ...    9.9714e-07  Tolerance :   1.0000e-06
  Last MAX-Density change    ...    1.3960e-04  Tolerance :   1.0000e-05
  Last RMS-Density change    ...    5.6693e-06  Tolerance :   1.0000e-06
  Last DIIS Error            ...    2.0344e-05  Tolerance :   1.0000e-06

             **** THE GBW FILE WAS UPDATED (Zr2.gbw) ****
             **** DENSITY FILE WAS UPDATED (Zr2.scfp) ****
             **** ENERGY FILE WAS UPDATED (Zr2.en.tmp) ****
----------------------
UHF SPIN CONTAMINATION
----------------------

Warning: in a DFT calculation there is little theoretical justification to 
         calculate <S**2> as in Hartree-Fock theory. We will do it anyways
         but you should keep in mind that the values have only limited relevance

Expectation value of <S**2>     :     2.099173
Ideal value S*(S+1) for S=1.0   :     2.000000
Deviation                       :     0.099173

             **** THE GBW FILE WAS UPDATED (Zr2.gbw) ****
             **** DENSITY FILE WAS UPDATED (Zr2.scfp) ****
----------------
ORBITAL ENERGIES
----------------
                 SPIN UP ORBITALS
  NO   OCC          E(Eh)            E(eV) 
   0   1.0000      -2.205945       -60.0268 
   1   1.0000      -2.175184       -59.1898 
   2   1.0000      -1.395701       -37.9789 
   3   1.0000      -1.335543       -36.3420 
   4   1.0000      -1.335543       -36.3420 
   5   1.0000      -1.306293       -35.5460 
   6   1.0000      -1.306293       -35.5460 
   7   1.0000      -1.252293       -34.0766 
   8   1.0000      -0.257264        -7.0005 
   9   1.0000      -0.257264        -7.0005 
  10   1.0000      -0.226747        -6.1701 
  11   1.0000      -0.188071        -5.1177 
  12   1.0000      -0.188070        -5.1176 
  13   0.0000      -0.020972        -0.5707 
  14   0.0000      -0.009907        -0.2696 
  15   0.0000       0.015811         0.4302 
  16   0.0000       0.015811         0.4302 
  17   0.0000       0.047021         1.2795 
  18   0.0000       0.047021         1.2795 
  19   0.0000       0.062254         1.6940 
  20   0.0000       0.062256         1.6941 
  21   0.0000       0.068753         1.8709 
  22   0.0000       0.069033         1.8785 
  23   0.0000       0.124118         3.3774 
  24   0.0000       0.127041         3.4570 
  25   0.0000       0.127041         3.4570 
  26   0.0000       0.134732         3.6663 
  27   0.0000       0.180595         4.9142 
  28   0.0000       0.180595         4.9142 
  29   0.0000       0.200710         5.4616 
  30   0.0000       0.204425         5.5627 
  31   0.0000       0.229859         6.2548 
  32   0.0000       0.229860         6.2548 
  33   0.0000       0.244610         6.6562 
  34   0.0000       0.244610         6.6562 
  35   0.0000       0.271819         7.3966 
  36   0.0000       0.271820         7.3966 
  37   0.0000       0.273148         7.4327 
  38   0.0000       0.273148         7.4327 
  39   0.0000       0.296912         8.0794 
  40   0.0000       0.309724         8.4280 
  41   0.0000       0.318666         8.6714 
  42   0.0000       0.318666         8.6714 
  43   0.0000       0.529170        14.3994 
  44   0.0000       0.529170        14.3994 
  45   0.0000       0.538774        14.6608 
  46   0.0000       0.538775        14.6608 
  47   0.0000       0.587301        15.9813 
  48   0.0000       0.647511        17.6197 
  49   0.0000       0.647511        17.6197 
  50   0.0000       0.673417        18.3246 
  51   0.0000       0.693595        18.8737 
  52   0.0000       0.693595        18.8737 
  53   0.0000       0.752255        20.4699 
  54   0.0000       0.754879        20.5413 
  55   0.0000       0.754879        20.5413 
  56   0.0000       0.771069        20.9818 
  57   0.0000       0.771069        20.9819 
  58   0.0000       0.936985        25.4967 
  59   0.0000       0.936988        25.4967 
  60   0.0000       0.937892        25.5213 
  61   0.0000       0.937892        25.5213 
  62   0.0000       0.962730        26.1972 
  63   0.0000       0.976720        26.5779 
  64   0.0000       0.976720        26.5779 
  65   0.0000       1.027022        27.9467 
  66   0.0000       1.027024        27.9468 
  67   0.0000       1.082102        29.4455 
  68   0.0000       1.082102        29.4455 
  69   0.0000       1.083138        29.4737 
  70   0.0000       1.110738        30.2247 
  71   0.0000       1.195796        32.5393 
  72   0.0000       1.195796        32.5393 
  73   0.0000       1.229161        33.4472 
  74   0.0000       1.239566        33.7303 
  75   0.0000       1.239572        33.7305 
  76   0.0000       1.302237        35.4357 
  77   0.0000       1.302239        35.4357 
  78   0.0000       1.328312        36.1452 
  79   0.0000       1.328312        36.1452 
  80   0.0000       1.342814        36.5398 
  81   0.0000       1.342820        36.5400 
  82   0.0000       1.421910        38.6921 
  83   0.0000       1.421910        38.6921 
  84   0.0000       1.441979        39.2382 
  85   0.0000       1.518728        41.3267 
  86   0.0000       1.518728        41.3267 
  87   0.0000       1.609141        43.7870 
  88   0.0000       1.703277        46.3485 
  89   0.0000       1.703277        46.3485 
  90   0.0000       1.746878        47.5350 
  91   0.0000       1.746878        47.5350 
  92   0.0000       1.762680        47.9650 
  93   0.0000       1.762680        47.9650 
  94   0.0000       1.773725        48.2655 
  95   0.0000       1.776808        48.3494 
  96   0.0000       1.776809        48.3494 
  97   0.0000       1.784310        48.5535 
  98   0.0000       1.784318        48.5538 
  99   0.0000       1.846616        50.2490 
 100   0.0000       1.846616        50.2490 
 101   0.0000       1.876874        51.0723 
 102   0.0000       2.040177        55.5160 
 103   0.0000       2.040177        55.5160 
 104   0.0000       2.155924        58.6657 
 105   0.0000       2.299386        62.5695 
 106   0.0000       2.299386        62.5695 
 107   0.0000       2.799104        76.1675 
 108   0.0000      20.311865       552.7139 
 109   0.0000      20.579849       560.0062 
 110   0.0000      72.688034      1977.9420 
 111   0.0000      72.781468      1980.4844 

                 SPIN DOWN ORBITALS
  NO   OCC          E(Eh)            E(eV) 
   0   1.0000      -2.192089       -59.6498 
   1   1.0000      -2.161348       -58.8133 
   2   1.0000      -1.392095       -37.8808 
   3   1.0000      -1.305443       -35.5229 
   4   1.0000      -1.305443       -35.5229 
   5   1.0000      -1.281805       -34.8797 
   6   1.0000      -1.281805       -34.8797 
   7   1.0000      -1.248378       -33.9701 
   8   1.0000      -0.243557        -6.6275 
   9   1.0000      -0.243557        -6.6275 
  10   1.0000      -0.206376        -5.6158 
  11   0.0000      -0.026369        -0.7175 
  12   0.0000       0.001501         0.0408 
  13   0.0000       0.021324         0.5802 
  14   0.0000       0.021324         0.5802 
  15   0.0000       0.046098         1.2544 
  16   0.0000       0.046098         1.2544 
  17   0.0000       0.049400         1.3442 
  18   0.0000       0.049402         1.3443 
  19   0.0000       0.067180         1.8281 
  20   0.0000       0.070832         1.9274 
  21   0.0000       0.113692         3.0937 
  22   0.0000       0.113696         3.0938 
  23   0.0000       0.128261         3.4902 
  24   0.0000       0.128261         3.4902 
  25   0.0000       0.130365         3.5474 
  26   0.0000       0.137736         3.7480 
  27   0.0000       0.187842         5.1114 
  28   0.0000       0.187842         5.1114 
  29   0.0000       0.204529         5.5655 
  30   0.0000       0.209039         5.6882 
  31   0.0000       0.244413         6.6508 
  32   0.0000       0.244416         6.6509 
  33   0.0000       0.247701         6.7403 
  34   0.0000       0.247701         6.7403 
  35   0.0000       0.279752         7.6124 
  36   0.0000       0.279752         7.6124 
  37   0.0000       0.279854         7.6152 
  38   0.0000       0.279857         7.6153 
  39   0.0000       0.301024         8.1913 
  40   0.0000       0.315434         8.5834 
  41   0.0000       0.321178         8.7397 
  42   0.0000       0.321178         8.7397 
  43   0.0000       0.553017        15.0484 
  44   0.0000       0.553018        15.0484 
  45   0.0000       0.556351        15.1391 
  46   0.0000       0.556351        15.1391 
  47   0.0000       0.589770        16.0485 
  48   0.0000       0.657593        17.8940 
  49   0.0000       0.657593        17.8940 
  50   0.0000       0.680465        18.5164 
  51   0.0000       0.694914        18.9096 
  52   0.0000       0.694914        18.9096 
  53   0.0000       0.759567        20.6689 
  54   0.0000       0.759567        20.6689 
  55   0.0000       0.762246        20.7418 
  56   0.0000       0.776765        21.1369 
  57   0.0000       0.776766        21.1369 
  58   0.0000       0.946217        25.7479 
  59   0.0000       0.946217        25.7479 
  60   0.0000       0.948547        25.8113 
  61   0.0000       0.948547        25.8113 
  62   0.0000       0.965678        26.2774 
  63   0.0000       0.981347        26.7038 
  64   0.0000       0.981347        26.7038 
  65   0.0000       1.037032        28.2191 
  66   0.0000       1.037035        28.2192 
  67   0.0000       1.088997        29.6331 
  68   0.0000       1.094943        29.7949 
  69   0.0000       1.094943        29.7949 
  70   0.0000       1.116364        30.3778 
  71   0.0000       1.207889        32.8683 
  72   0.0000       1.207889        32.8683 
  73   0.0000       1.235316        33.6147 
  74   0.0000       1.252313        34.0772 
  75   0.0000       1.252315        34.0772 
  76   0.0000       1.309390        35.6303 
  77   0.0000       1.309393        35.6304 
  78   0.0000       1.336786        36.3758 
  79   0.0000       1.336786        36.3758 
  80   0.0000       1.352231        36.7961 
  81   0.0000       1.352234        36.7961 
  82   0.0000       1.432003        38.9668 
  83   0.0000       1.432003        38.9668 
  84   0.0000       1.451932        39.5091 
  85   0.0000       1.530041        41.6345 
  86   0.0000       1.530041        41.6345 
  87   0.0000       1.620055        44.0840 
  88   0.0000       1.732612        47.1468 
  89   0.0000       1.732612        47.1468 
  90   0.0000       1.771923        48.2165 
  91   0.0000       1.771923        48.2165 
  92   0.0000       1.774488        48.2863 
  93   0.0000       1.774488        48.2863 
  94   0.0000       1.785215        48.5782 
  95   0.0000       1.789411        48.6923 
  96   0.0000       1.789417        48.6925 
  97   0.0000       1.796503        48.8853 
  98   0.0000       1.796515        48.8856 
  99   0.0000       1.851644        50.3858 
 100   0.0000       1.851646        50.3858 
 101   0.0000       1.885375        51.3037 
 102   0.0000       2.045874        55.6711 
 103   0.0000       2.045874        55.6711 
 104   0.0000       2.162525        58.8453 
 105   0.0000       2.305333        62.7313 
 106   0.0000       2.305333        62.7313 
 107   0.0000       2.803144        76.2774 
 108   0.0000      20.312906       552.7423 
 109   0.0000      20.580748       560.0306 
 110   0.0000      72.691572      1978.0382 
 111   0.0000      72.785012      1980.5809 

                    ********************************
                    * MULLIKEN POPULATION ANALYSIS *
                    ********************************

--------------------------------------------
MULLIKEN ATOMIC CHARGES AND SPIN POPULATIONS
--------------------------------------------
   0 Zr:    0.000005    0.999984
   1 Zr:   -0.000005    1.000016
Sum of atomic charges         :   -0.0000000
Sum of atomic spin populations:    2.0000000

-----------------------------------------------------
MULLIKEN REDUCED ORBITAL CHARGES AND SPIN POPULATIONS
-----------------------------------------------------
CHARGE
  0 Zrs       :     2.962183  s :     2.962183
      pz      :     1.975135  p :     6.011826
      px      :     2.018346
      py      :     2.018346
      dz2     :     0.050436  d :     2.965418
      dxz     :     0.963230
      dyz     :     0.963230
      dx2y2   :     0.494261
      dxy     :     0.494261
      f0      :     0.009507  f :     0.045332
      f+1     :     0.013446
      f-1     :     0.013446
      f+2     :     0.004466
      f-2     :     0.004466
      f+3     :     0.000000
      f-3     :     0.000000
      g0      :     0.002724  g :     0.015235
      g+1     :     0.004981
      g-1     :     0.004981
      g+2     :     0.001275
      g-2     :     0.001275
      g+3     :     0.000000
      g-3     :     0.000000
      g+4     :     0.000000
      g-4     :     0.000000
  1 Zrs       :     2.962208  s :     2.962208
      pz      :     1.975139  p :     6.011830
      px      :     2.018346
      py      :     2.018346
      dz2     :     0.050436  d :     2.965400
      dxz     :     0.963224
      dyz     :     0.963224
      dx2y2   :     0.494257
      dxy     :     0.494258
      f0      :     0.009507  f :     0.045333
      f+1     :     0.013447
      f-1     :     0.013447
      f+2     :     0.004466
      f-2     :     0.004466
      f+3     :     0.000000
      f-3     :     0.000000
      g0      :     0.002724  g :     0.015236
      g+1     :     0.004981
      g-1     :     0.004981
      g+2     :     0.001275
      g-2     :     0.001275
      g+3     :     0.000000
      g-3     :     0.000000
      g+4     :     0.000000
      g-4     :     0.000000

SPIN
  0 Zrs       :    -0.045890  s :    -0.045890
      pz      :     0.018665  p :     0.050256
      px      :     0.015796
      py      :     0.015796
      dz2     :     0.025281  d :     0.985464
      dxz     :    -0.014170
      dyz     :    -0.014170
      dx2y2   :     0.494261
      dxy     :     0.494261
      f0      :     0.001513  f :     0.008895
      f+1     :    -0.000775
      f-1     :    -0.000775
      f+2     :     0.004466
      f-2     :     0.004466
      f+3     :    -0.000000
      f-3     :    -0.000000
      g0      :     0.000412  g :     0.001260
      g+1     :    -0.000851
      g-1     :    -0.000851
      g+2     :     0.001275
      g-2     :     0.001275
      g+3     :     0.000000
      g-3     :     0.000000
      g+4     :    -0.000000
      g-4     :     0.000000
  1 Zrs       :    -0.045857  s :    -0.045857
      pz      :     0.018670  p :     0.050261
      px      :     0.015796
      py      :     0.015796
      dz2     :     0.025281  d :     0.985457
      dxz     :    -0.014169
      dyz     :    -0.014169
      dx2y2   :     0.494257
      dxy     :     0.494258
      f0      :     0.001513  f :     0.008895
      f+1     :    -0.000775
      f-1     :    -0.000775
      f+2     :     0.004466
      f-2     :     0.004466
      f+3     :    -0.000000
      f-3     :    -0.000000
      g0      :     0.000412  g :     0.001260
      g+1     :    -0.000851
      g-1     :    -0.000851
      g+2     :     0.001275
      g-2     :     0.001275
      g+3     :     0.000000
      g-3     :     0.000000
      g+4     :    -0.000000
      g-4     :     0.000000


                     *******************************
                     * LOEWDIN POPULATION ANALYSIS *
                     *******************************

-------------------------------------------
LOEWDIN ATOMIC CHARGES AND SPIN POPULATIONS
-------------------------------------------
   0 Zr:   -0.000009    1.000002
   1 Zr:    0.000009    0.999998

----------------------------------------------------
LOEWDIN REDUCED ORBITAL CHARGES AND SPIN POPULATIONS
----------------------------------------------------
CHARGE
  0 Zrs       :     2.675983  s :     2.675983
      pz      :     1.992601  p :     5.942750
      px      :     1.975074
      py      :     1.975074
      dz2     :     0.161414  d :     3.053045
      dxz     :     0.957588
      dyz     :     0.957588
      dx2y2   :     0.488228
      dxy     :     0.488227
      f0      :     0.107132  f :     0.203907
      f+1     :     0.040306
      f-1     :     0.040306
      f+2     :     0.008081
      f-2     :     0.008081
      f+3     :     0.000000
      f-3     :     0.000000
      g0      :     0.062870  g :     0.124323
      g+1     :     0.027033
      g-1     :     0.027033
      g+2     :     0.003693
      g-2     :     0.003693
      g+3     :     0.000000
      g-3     :     0.000000
      g+4     :     0.000000
      g-4     :     0.000000
  1 Zrs       :     2.675981  s :     2.675981
      pz      :     1.992601  p :     5.942750
      px      :     1.975075
      py      :     1.975075
      dz2     :     0.161414  d :     3.053029
      dxz     :     0.957583
      dyz     :     0.957583
      dx2y2   :     0.488224
      dxy     :     0.488225
      f0      :     0.107132  f :     0.203908
      f+1     :     0.040307
      f-1     :     0.040307
      f+2     :     0.008081
      f-2     :     0.008081
      f+3     :     0.000000
      f-3     :     0.000000
      g0      :     0.062870  g :     0.124323
      g+1     :     0.027033
      g-1     :     0.027033
      g+2     :     0.003693
      g-2     :     0.003693
      g+3     :     0.000000
      g-3     :     0.000000
      g+4     :     0.000000
      g-4     :     0.000000

SPIN
  0 Zrs       :    -0.044968  s :    -0.044968
      pz      :     0.014118  p :     0.039740
      px      :     0.012811
      py      :     0.012811
      dz2     :     0.027083  d :     0.979830
      dxz     :    -0.011854
      dyz     :    -0.011854
      dx2y2   :     0.488228
      dxy     :     0.488227
      f0      :     0.002480  f :     0.018617
      f+1     :    -0.000013
      f-1     :    -0.000013
      f+2     :     0.008081
      f-2     :     0.008081
      f+3     :    -0.000000
      f-3     :    -0.000000
      g0      :     0.001287  g :     0.006783
      g+1     :    -0.000945
      g-1     :    -0.000945
      g+2     :     0.003693
      g-2     :     0.003693
      g+3     :     0.000000
      g-3     :     0.000000
      g+4     :    -0.000000
      g-4     :     0.000000
  1 Zrs       :    -0.044967  s :    -0.044967
      pz      :     0.014118  p :     0.039741
      px      :     0.012811
      py      :     0.012811
      dz2     :     0.027083  d :     0.979824
      dxz     :    -0.011854
      dyz     :    -0.011854
      dx2y2   :     0.488224
      dxy     :     0.488225
      f0      :     0.002480  f :     0.018617
      f+1     :    -0.000013
      f-1     :    -0.000013
      f+2     :     0.008081
      f-2     :     0.008081
      f+3     :    -0.000000
      f-3     :    -0.000000
      g0      :     0.001287  g :     0.006783
      g+1     :    -0.000945
      g-1     :    -0.000945
      g+2     :     0.003693
      g-2     :     0.003693
      g+3     :     0.000000
      g-3     :     0.000000
      g+4     :    -0.000000
      g-4     :     0.000000


                      *****************************
                      * MAYER POPULATION ANALYSIS *
                      *****************************

  NA   - Mulliken gross atomic population
  ZA   - Total nuclear charge
  QA   - Mulliken gross atomic charge
  VA   - Mayer's total valence
  BVA  - Mayer's bonded valence
  FA   - Mayer's free valence

  ATOM       NA         ZA         QA         VA         BVA        FA
  0 Zr    12.0000    12.0000     0.0000     4.8306     4.2812     0.5494
  1 Zr    12.0000    12.0000    -0.0000     4.8306     4.2812     0.5494

  Mayer bond orders larger than 0.100000
B(  0-Zr,  1-Zr) :   4.2812 

-------
TIMINGS
-------

Total SCF time: 0 days 0 hours 6 min 4 sec 

Total time                  ....     364.158 sec
Sum of individual times     ....     360.806 sec  ( 99.1%)

Fock matrix formation       ....     335.206 sec  ( 92.0%)
  XC integration            ....     297.293 sec  ( 88.7% of F)
    Basis function eval.    ....       0.205 sec  (  0.1% of XC)
    Density eval.           ....       0.281 sec  (  0.1% of XC)
    XC-Functional eval.     ....       0.188 sec  (  0.1% of XC)
    XC-Potential eval.      ....       0.610 sec  (  0.2% of XC)
Diagonalization             ....       6.474 sec  (  1.8%)
Density matrix formation    ....       0.060 sec  (  0.0%)
Population analysis         ....       0.249 sec  (  0.1%)
Initial guess               ....      14.974 sec  (  4.1%)
Orbital Transformation      ....       0.000 sec  (  0.0%)
Orbital Orthonormalization  ....       0.000 sec  (  0.0%)
DIIS solution               ....       1.122 sec  (  0.3%)
Grid generation             ....       2.721 sec  (  0.7%)

-------------------------   --------------------
FINAL SINGLE POINT ENERGY       -93.745874755717
-------------------------   --------------------


----------------------------------------------------------------------------
                           ORCA NUMERICAL GRADIENT
                              (28-process run)
----------------------------------------------------------------------------

I state                        ... 1
J state                        ... 0
Number of atoms                ... 2
Derivative's order of accuracy ... 2
Central differences            ... used
Number of displacements        ... 12
Numerical increment            ... 5.000e-03 bohr
Translation invariance         ... used

The output will be reduced. Please look at the following files:
SCF program output             ... >Zr2.lastscf
Integral program output        ... >Zr2.lastint
Gradient program output        ... >Zr2.lastgrad


     Note:   There are more processes than displacements to do
     ===>:   Reducing number of processes to   3

             <<<Displacing   2/coordinate 1 (+)>>>
             <<<Displacing   2/coordinate 3 (+)>>>
             <<<Displacing   2/coordinate 2 (+)>>>
             <<<Displacing   2/coordinate 2 (-)>>>
             <<<Displacing   2/coordinate 1 (-)>>>
             <<<Displacing   2/coordinate 3 (-)>>>

------------------------------
CARTESIAN GRADIENT (NUMERICAL)
-------------------------------
   1   Zr  :    0.000000000   -0.000000001   -0.035368627
   2   Zr  :   -0.000000000    0.000000001    0.035368627

Norm of the cartesian gradient     ...    0.050018792
RMS gradient                       ...    0.020420086
MAX gradient                       ...    0.035368627

-------
TIMINGS
-------

Total numerical gradient time      ...       51.503 sec


                            ***************************************
                            *     ORCA property calculations      *
                            ***************************************

                                    ---------------------
                                    Active property flags
                                    ---------------------
   (+) Dipole Moment


------------------------------------------------------------------------------
                       ORCA ELECTRIC PROPERTIES CALCULATION
------------------------------------------------------------------------------

Dipole Moment Calculation                       ... on
Quadrupole Moment Calculation                   ... off
Polarizability Calculation                      ... off
GBWName                                         ... Zr2.gbw
Electron density file                           ... Zr2.scfp
The origin for moment calculation is the CENTER OF MASS  = ( 0.000000,  0.000000  2.116493)

-------------
DIPOLE MOMENT
-------------
                                X             Y             Z
Electronic contribution:     -0.00000       0.00000       0.00006
Nuclear contribution   :      0.00000       0.00000       0.00000
                        -----------------------------------------
Total Dipole Moment    :     -0.00000       0.00000       0.00006
                        -----------------------------------------
Magnitude (a.u.)       :      0.00006
Magnitude (Debye)      :      0.00014



--------------------
Rotational spectrum 
--------------------
 
Rotational constants in cm-1:     0.000000     0.073662     0.073662 
Rotational constants in MHz :     0.000000  2208.317403  2208.317403 

 Dipole components along the rotational axes: 
x,y,z [a.u.] :     0.000055     0.000000    -0.000000 
x,y,z [Debye]:     0.000140     0.000000    -0.000000 

 

Timings for individual modules:

Sum of individual times         ...      420.140 sec (=   7.002 min)
GTO integral calculation        ...        3.834 sec (=   0.064 min)   0.9 %
SCF iterations                  ...      364.803 sec (=   6.080 min)  86.8 %
SCF Gradient evaluation         ...       51.503 sec (=   0.858 min)  12.3 %
                             ****ORCA TERMINATED NORMALLY****
TOTAL RUN TIME: 0 days 0 hours 7 minutes 1 seconds 8 msec
