
                                 *****************
                                 * O   R   C   A *
                                 *****************

           --- An Ab Initio, DFT and Semiempirical electronic structure package ---

                  #######################################################
                  #                        -***-                        #
                  #          Department of theory and spectroscopy      #
                  #               Directorship: Frank Neese             #
                  #        Max Planck Institute fuer Kohlenforschung    #
                  #                Kaiser Wilhelm Platz 1               #
                  #                 D-45470 Muelheim/Ruhr               #
                  #                      Germany                        #
                  #                                                     #
                  #                  All rights reserved                #
                  #                        -***-                        #
                  #######################################################


                         Program Version 4.2.0 -  RELEASE  -


 With contributions from (in alphabetic order):
   Daniel Aravena         : Magnetic Suceptibility
   Michael Atanasov       : Ab Initio Ligand Field Theory (pilot matlab implementation)
   Alexander A. Auer      : GIAO ZORA, VPT2
   Ute Becker             : Parallelization
   Giovanni Bistoni       : ED, misc. LED, open-shell LED, HFLED
   Martin Brehm           : Molecular dynamics
   Dmytro Bykov           : SCF Hessian
   Vijay G. Chilkuri      : MRCI spin determinant printing, contributions to CSF-ICE
   Dipayan Datta          : RHF DLPNO-CCSD density
   Achintya Kumar Dutta   : EOM-CC, STEOM-CC
   Dmitry Ganyushin       : Spin-Orbit,Spin-Spin,Magnetic field MRCI
   Miquel Garcia          : C-PCM Hessian, Gaussian charge scheme
   Yang Guo               : DLPNO-NEVPT2, CIM, IAO-localization
   Andreas Hansen         : Spin unrestricted coupled pair/coupled cluster methods
   Benjamin Helmich-Paris : CASSCF linear response (MC-RPA)
   Lee Huntington         : MR-EOM, pCC
   Robert Izsak           : Overlap fitted RIJCOSX, COSX-SCS-MP3, EOM
   Christian Kollmar      : KDIIS, OOCD, Brueckner-CCSD(T), CCSD density
   Simone Kossmann        : Meta GGA functionals, TD-DFT gradient, OOMP2, MP2 Hessian
   Martin Krupicka        : AUTO-CI
   Lucas Lang             : DCDCAS
   Dagmar Lenk            : GEPOL surface, SMD
   Dimitrios Liakos       : Extrapolation schemes; Compound Job, initial MDCI parallelization
   Dimitrios Manganas     : Further ROCIS development; embedding schemes
   Dimitrios Pantazis     : SARC Basis sets
   Taras Petrenko         : DFT Hessian,TD-DFT gradient, ASA, ECA, R-Raman, ABS, FL, XAS/XES, NRVS
   Peter Pinski           : DLPNO-MP2, DLPNO-MP2 Gradient
   Christoph Reimann      : Effective Core Potentials
   Marius Retegan         : Local ZFS, SOC
   Christoph Riplinger    : Optimizer, TS searches, QM/MM, DLPNO-CCSD(T), (RO)-DLPNO pert. Triples
   Tobias Risthaus        : Range-separated hybrids, TD-DFT gradient, RPA, STAB
   Michael Roemelt        : Original ROCIS implementation
   Masaaki Saitow         : Open-shell DLPNO-CCSD energy and density
   Barbara Sandhoefer     : DKH picture change effects
   Avijit Sen             : IP-ROCIS
   Kantharuban Sivalingam : CASSCF convergence, NEVPT2, FIC-MRCI
   Bernardo de Souza      : ESD, SOC TD-DFT
   Georgi Stoychev        : AutoAux, RI-MP2 NMR
   Willem Van den Heuvel  : Paramagnetic NMR
   Boris Wezisla          : Elementary symmetry handling
   Frank Wennmohs         : Technical directorship


 We gratefully acknowledge several colleagues who have allowed us to
 interface, adapt or use parts of their codes:
   Stefan Grimme, W. Hujo, H. Kruse,             : VdW corrections, initial TS optimization,
                  C. Bannwarth                     DFT functionals, gCP, sTDA/sTD-DF
   Ed Valeev, F. Pavosevic, A. Kumar             : LibInt (2-el integral package), F12 methods
   Garnet Chan, S. Sharma, J. Yang, R. Olivares  : DMRG
   Ulf Ekstrom                                   : XCFun DFT Library
   Mihaly Kallay                                 : mrcc  (arbitrary order and MRCC methods)
   Andreas Klamt, Michael Diedenhofen            : otool_cosmo (COSMO solvation model)
   Jiri Pittner, Ondrej Demel                    : Mk-CCSD
   Frank Weinhold                                : gennbo (NPA and NBO analysis)
   Christopher J. Cramer and Donald G. Truhlar   : smd solvation model
   Lars Goerigk                                  : TD-DFT with DH, B97 family of functionals
   V. Asgeirsson, H. Jonsson                     : NEB implementation
   FAccTs GmbH                                   : IRC, NEB, NEB-TS, Multilevel, MM, QM/MM, CI optimization
   S Lehtola, MJT Oliveira, MAL Marques          : LibXC Library


 Your calculation uses the libint2 library for the computation of 2-el integrals
 For citations please refer to: http://libint.valeyev.net

 Your ORCA version has been built with support for libXC version: 4.2.3
 For citations please refer to: https://tddft.org/programs/libxc/

 This ORCA versions uses:
   CBLAS   interface :  Fast vector & matrix operations
   LAPACKE interface :  Fast linear algebra routines
   SCALAPACK package :  Parallel linear algebra routines


Your calculation utilizes the DFT-NL dispersion correction.
Cite in your paper:
Vydrov, O. A.; Van Voorhis, T. J. Chem. Phys. 2010, 133, 244103
Hujo, W.; Grimme, S. J. Chem. Theory Comput. 2011, 7, 3866 
   

----- Orbital basis set information -----
Your calculation utilizes the basis: def2-TZVPPD
   F. Weigend and R. Ahlrichs, Phys. Chem. Chem. Phys. 7, 3297 (2005).
   D. Rappoport and F. Furche, J. Chem. Phys. 133 134105 (2010).

----- AuxJK basis set information -----
Your calculation utilizes the auxiliary basis: def2/JK
   H-Ba, Hf-Rn: F. Weigend, J. Comput. Chem. 29, 167 (2008).

cite the ECPs for Ag [Def2-ECP] as follows:
Ce-Yb(ecp-28): M. Dolg, H. Stoll, H.Preuss, J. Chem. Phys., 1989, 90, 1730-1734.
Y-Cd(ecp-28), Hf-Hg(ecp-46): D. Andrae,U. Haeussermann, M. Dolg, H. Stoll, H. Preuss, Theor. Chim. Acta, 1990, 77, 123-141.
In-Sb(ecp-28), Tl-Bi(ecp-46): B. Metz, H. Stoll, M. Dolg, J. Chem. Phys., 2000, 113, 2563-2569.
Te-Xe(ecp-28), Po-Rn(ecp-46): K. A. Peterson, D. Figgen, E. Goll, H. Stoll, M. Dolg, J. Chem. Phys., 2003, 119, 11113-11123.
Rb(ecp-28), Cs(ecp-46): T. Leininger, A. Nicklass, W. Kuechle, H. Stoll, M. Dolg, A. Bergner, Chem. Phys. Lett., 1996, 255, 274-280.
Sr(ecp-28), Ba(ecp-46): M. Kaupp, P. V. Schleyer, H. Stoll and H. Preuss, J. Chem. Phys., 1991, 94, 1360-1366.
La(ecp-46): M. Dolg, H. Stoll, A. Savin, H. Preuss, Theor. Chim. Acta, 1989, 75, 173-194.
Lu(ecp-28): X. Cao, M. Dolg, J. Chem. Phys., 2001, 115, 7348-7355.

ECP parameters for Ag [Def2-ECP] have been obtained from:
TURBOMOLE (7.0.2)

================================================================================
                                        WARNINGS
                       Please study these warnings very carefully!
================================================================================

INFO   : Found keyword 'NumGrad' for Energy calculation
  ===> : Setting RunTyp to EnGrad

WARNING: Numerical Gradient with sloppy Convergence Criteria    
         Your results may be not reliable!                      
         Please choose at least TightSCF!                       

INFO   : the flag for use of LIBINT has been found!

================================================================================
                                       INPUT FILE
================================================================================
NAME = Ag2.in
|  1> #
|  2> # Ag2 wB97M-V/Def2-TZVPPD
|  3> #
|  4> ! wb97m-v def2-tzvppd def2/jk grid4 nofinalgrid numgrad
|  5> 
|  6> *xyz 0 1
|  7> Ag         0.00000        0.00000        0.00000
|  8> Ag         0.00000        0.00000        2.58711
|  9> *
| 10> 
| 11> %maxcore 5000
| 12> 
| 13> %pal
| 14> nprocs = 28
| 15> end
| 16> 
| 17> 
| 18>                          ****END OF INPUT****
================================================================================

                     *******************************
                     * Energy+Gradient Calculation *
                     *******************************

---------------------------------
CARTESIAN COORDINATES (ANGSTROEM)
---------------------------------
  Ag     0.000000    0.000000    0.000000
  Ag     0.000000    0.000000    2.587110

----------------------------
CARTESIAN COORDINATES (A.U.)
----------------------------
  NO LB      ZA    FRAG     MASS         X           Y           Z
   0 Ag   19.0000*   0   107.870    0.000000    0.000000    0.000000
   1 Ag   19.0000*   0   107.870    0.000000    0.000000    4.888929
* core charge reduced due to ECP

--------------------------------
INTERNAL COORDINATES (ANGSTROEM)
--------------------------------
 Ag     0   0   0     0.000000000000     0.00000000     0.00000000
 Ag     1   0   0     2.587110000000     0.00000000     0.00000000

---------------------------
INTERNAL COORDINATES (A.U.)
---------------------------
 Ag     0   0   0     0.000000000000     0.00000000     0.00000000
 Ag     1   0   0     4.888929378329     0.00000000     0.00000000

---------------------
BASIS SET INFORMATION
---------------------
There are 1 groups of distinct atoms

 Group   1 Type Ag  : 7s7p6d2f1g contracted to 6s4p3d2f1g pattern {211111/4111/411/11/1}

Atom   0Ag   basis set group =>   1
Atom   1Ag   basis set group =>   1
----------------------------------
AUXILIARY/JK BASIS SET INFORMATION
----------------------------------
There are 1 groups of distinct atoms

 Group   1 Type Ag  : 13s12p10d9f6g3h2i contracted to 11s10p9d8f6g3h2i pattern {31111111111/3111111111/211111111/21111111/111111/111/11}

Atom   0Ag   basis set group =>   1
Atom   1Ag   basis set group =>   1
-------------------------
ECP PARAMETER INFORMATION
-------------------------

 Group 1, Type Ag ECP Def2-ECP (replacing 28 core electrons, lmax=3)

Atom   0Ag   ECP group =>   1
Atom   1Ag   ECP group =>   1



           ************************************************************
           *        Program running with 28 parallel MPI-processes    *
           *              working on a common directory               *
           ************************************************************
------------------------------------------------------------------------------
                           ORCA GTO INTEGRAL CALCULATION
------------------------------------------------------------------------------

                         BASIS SET STATISTICS AND STARTUP INFO

 # of primitive gaussian shells          ...   46
 # of primitive gaussian functions       ...  162
 # of contracted shells                  ...   32
 # of contracted basis functions         ...  112
 Highest angular momentum                ...    4
 Maximum contraction depth               ...    4
 Integral package used                   ... LIBINT
 Integral threshhold            Thresh   ...  1.000e-10
 Primitive cut-off              TCut     ...  1.000e-11


------------------------------ INTEGRAL EVALUATION ----------------------------


 * One electron integrals 

   ECP integrals                         ... done
 Pre-screening matrix                    ... done
 Shell pair data                         ... done (   0.000 sec)



           ************************************************************
           *        Program running with 28 parallel MPI-processes    *
           *              working on a common directory               *
           ************************************************************
-------------------------------------------------------------------------------
                                 ORCA SCF
-------------------------------------------------------------------------------

------------
SCF SETTINGS
------------
Hamiltonian:
 Density Functional     Method          .... DFT(GTOs)
 Exchange Functional    Exchange        .... WB97M-V
 Correlation Functional Correlation     .... WB97M-V
 Gradients option       PostSCFGGA      .... off
 Hybrid DFT is turned on
   Fraction HF Exchange ScalHFX         ....  0.150000
   Scaling of DF-GGA-X  ScalDFX         ....  0.000000
   Scaling of DF-GGA-C  ScalDFC         ....  1.000000
   Scaling of DF-LDA-C  ScalLDAC        ....  1.000000
   Perturbative correction              ....  0.000000
   Density functional embedding theory  .... OFF
 Long-range corrected/Screened/Range-Separated Hybrid DFT is turned on
   Amount of maximum screened exact exchange              ....  0.850000
   Range separation parameter mu (erf(mu*r12)/r12)        ....  0.300000
   NL short-range parameter             ....  6.000000
   NL long-range parameter              ....  0.010000


General Settings:
 Integral files         IntName         .... Ag2
 Hartree-Fock type      HFTyp           .... RHF
 Total Charge           Charge          ....    0
 Multiplicity           Mult            ....    1
 Number of Electrons    NEL             ....   38
 Basis Dimension        Dim             ....  112
 Nuclear Repulsion      ENuc            ....     73.8402975507 Eh

Convergence Acceleration:
 DIIS                   CNVDIIS         .... on
   Start iteration      DIISMaxIt       ....    12
   Startup error        DIISStart       ....  0.200000
   # of expansion vecs  DIISMaxEq       ....     5
   Bias factor          DIISBfac        ....   1.050
   Max. coefficient     DIISMaxC        ....  10.000
 Newton-Raphson         CNVNR           .... off
 SOSCF                  CNVSOSCF        .... off
 Level Shifting         CNVShift        .... on
   Level shift para.    LevelShift      ....    0.2500
   Turn off err/grad.   ShiftErr        ....    0.0010
 Zerner damping         CNVZerner       .... off
 Static damping         CNVDamp         .... on
   Fraction old density DampFac         ....    0.7000
   Max. Damping (<1)    DampMax         ....    0.9800
   Min. Damping (>=0)   DampMin         ....    0.0000
   Turn off err/grad.   DampErr         ....    0.1000
 Fernandez-Rico         CNVRico         .... off

SCF Procedure:
 Maximum # iterations   MaxIter         ....   125
 SCF integral mode      SCFMode         .... Direct
   Integral package                     .... LIBINT
 Reset frequency        DirectResetFreq ....    20
 Integral Threshold     Thresh          ....  1.000e-10 Eh
 Primitive CutOff       TCut            ....  1.000e-11 Eh

Convergence Tolerance:
 Convergence Check Mode ConvCheckMode   .... Total+1el-Energy
 Convergence forced     ConvForced      .... 0
 Energy Change          TolE            ....  1.000e-06 Eh
 1-El. energy change                    ....  1.000e-03 Eh
 DIIS Error             TolErr          ....  1.000e-06


Diagonalization of the overlap matrix:
Smallest eigenvalue                        ... 4.719e-03
Time for diagonalization                   ...    0.002 sec
Threshold for overlap eigenvalues          ... 1.000e-08
Number of eigenvalues below threshold      ... 0
Time for construction of square roots      ...    0.042 sec
Total time needed                          ...    0.044 sec

-------------------
DFT GRID GENERATION
-------------------

General Integration Accuracy     IntAcc      ...  4.670
Radial Grid Type                 RadialGrid  ... Gauss-Chebyshev
Angular Grid (max. acc.)         AngularGrid ... Lebedev-302
Angular grid pruning method      GridPruning ... 3 (G Style)
Weight generation scheme         WeightScheme... Becke
Basis function cutoff            BFCut       ...    1.0000e-10
Integration weight cutoff        WCut        ...    1.0000e-14
Grids for H and He will be reduced by one unit

# of grid points (after initial pruning)     ...  21316 (   0.0 sec)
# of grid points (after weights+screening)   ...  21282 (   0.0 sec)
nearest neighbour list constructed           ...    0.0 sec
Grid point re-assignment to atoms done       ...    0.0 sec
Grid point division into batches done        ...    0.2 sec
Reduced shell lists constructed in    0.2 sec

Total number of grid points                  ...    21282
Total number of batches                      ...      334
Average number of points per batch           ...       63
Average number of grid points per atom       ...    10641
Average number of shells per batch           ...     1.00 ( 3.12%)
Average number of basis functions per batch  ...     2.08 ( 1.85%)
Average number of large shells per batch     ...     0.77 (76.92%)
Average number of large basis fcns per batch ...     1.85 (88.89%)
Maximum spatial batch extension              ...  31.14, 31.14, 19.99 au
Average spatial batch extension              ...   0.86,  0.86,  0.64 au

Time for grid setup =    1.651 sec

------------------------------
INITIAL GUESS: MODEL POTENTIAL
------------------------------
Loading Hartree-Fock densities                     ... done
  calling /mnt/storage/software/apps/orca-4.2.0/orca_4_2_0_linux_x86-64_openmpi314/orca Ag2_atom47.inp > Ag2_atom47.out in order to generate an atomic fitting density for atom 0 (Ag with ECP) on-the-fly... 
    atom 0 (Ag), assumed electronic state with S=2: 1s2 2s2 2p6 3s2 3p6 4s2 3d10 4p6 5s2 4d9           ... done
Calculating cut-offs                               ... done
Setting up the integral package                    ... done
Initializing the effective Hamiltonian             ... done
Starting the Coulomb interaction                   ... done (   0.0 sec)
Reading the grid                                   ... done
Mapping shells                                     ... done
Starting the XC term evaluation                    ... done (   0.0 sec)
  promolecular density results
     # of electrons  =     94.001387293
     EX              =   -286.841055080
     EC              =     -4.971187483
     EX+EC           =   -291.812242563
Transforming the Hamiltonian                       ... done (   0.0 sec)
Diagonalizing the Hamiltonian                      ... done (   0.0 sec)
Back transforming the eigenvectors                 ... done (   0.0 sec)
Now organizing SCF variables                       ... done
                      ------------------
                      INITIAL GUESS DONE (   8.9 sec)
                      ------------------
--------------
SCF ITERATIONS
--------------
ITER       Energy         Delta-E        Max-DP      RMS-DP      [F,P]     Damp
               ***  Starting incremental Fock matrix formation  ***
  0   -293.8016511576   0.000000000000 0.10572267  0.00299768  0.5158396 0.7000
  1   -293.8918542817  -0.090203124095 0.05700552  0.00197942  0.3410296 0.7000
  2   -293.9298854909  -0.038031209186 0.03987726  0.00111605  0.2268125 0.7000
                               ***Turning on DIIS***
  3   -293.9526559575  -0.022770466556 0.02811685  0.00066475  0.1546519 0.7000
  4   -293.9685549692  -0.015899011764 0.02135467  0.00045641  0.1074518 0.7000
  5   -293.9797579133  -0.011202944046 0.05806331  0.00122455  0.0762748 0.0000
  6   -294.0062235369  -0.026465623592 0.00769441  0.00016333  0.0014225 0.0000
  7   -294.0062495119  -0.000025975088 0.00370777  0.00007489  0.0010084 0.0000
  8   -294.0062592613  -0.000009749405 0.00594322  0.00011704  0.0004934 0.0000
  9   -294.0062645378  -0.000005276466 0.00070296  0.00001421  0.0000863 0.0000
                 **** Energy Check signals convergence ****

               *****************************************************
               *                     SUCCESS                       *
               *           SCF CONVERGED AFTER  10 CYCLES          *
               *****************************************************


Setting up the DFT-NL grid :

General Integration Accuracy     IntAcc      ...  4.340
Radial Grid Type                 RadialGrid  ... Gauss-Chebyshev
Angular Grid (max. acc.)         AngularGrid ... Lebedev-110
Angular grid pruning method      GridPruning ... 3 (G Style)
Weight generation scheme         WeightScheme... Becke
Basis function cutoff            BFCut       ...    1.0000e-10
Integration weight cutoff        WCut        ...    1.0000e-14
Grids for H and He will be reduced by one unit

# of grid points (after initial pruning)     ...   6516 (   0.0 sec)
# of grid points (after weights+screening)   ...   6484 (   0.0 sec)
nearest neighbour list constructed           ...    0.0 sec
Grid point re-assignment to atoms done       ...    0.0 sec
Grid point division into batches done        ...    0.0 sec
Reduced shell lists constructed in    0.0 sec

Total number of grid points                  ...     6484
Total number of batches                      ...      102
Average number of points per batch           ...       63
Average number of grid points per atom       ...     3242
Average number of shells per batch           ...     8.00 (25.00%)
Average number of basis functions per batch  ...    20.80 (18.57%)
Average number of large shells per batch     ...     5.20 (65.00%)
Average number of large basis fcns per batch ...    10.00 (48.08%)
Maximum spatial batch extension              ...  24.86, 37.49, 21.10 au
Average spatial batch extension              ...   0.92,  1.22,  0.83 au

Final grid set up in    1.9 sec

-------------------------------------------------------------------------------
                         DFT-NL dispersion correction                          
-------------------------------------------------------------------------------

SC Energy -294.006264678 
NL    Energy 0.147012363 
SC+NL Energy -293.859252315 
NL done in    1.5 sec
-------------------------------------------------------------------------------

----------------
TOTAL SCF ENERGY
----------------

Total Energy       :         -293.85925232 Eh           -7996.31678 eV

Components:
Nuclear Repulsion  :           73.84029755 Eh            2009.29665 eV
Electronic Energy  :         -367.69954987 Eh          -10005.61343 eV
One Electron Energy:         -670.53369201 Eh          -18246.14938 eV
Two Electron Energy:          302.83414215 Eh            8240.53595 eV

Virial components:
Potential Energy   :         -406.67745545 Eh          -11066.25616 eV
Kinetic Energy     :          112.81820313 Eh            3069.93938 eV
Virial Ratio       :            3.60471488


DFT components:
N(Alpha)           :       18.999987389110 electrons
N(Beta)            :       18.999987389110 electrons
N(Total)           :       37.999974778221 electrons
E(X)               :      -17.884007488878 Eh       
E(C)               :       -1.388045798438 Eh       
NL Energy, E(C,NL) :        0.147012362565 Eh       
E(XC)              :      -19.125040924752 Eh       
DFET-embed. en.    :        0.000000000000 Eh       

---------------
SCF CONVERGENCE
---------------

  Last Energy change         ...   -1.4019e-07  Tolerance :   1.0000e-06
  Last MAX-Density change    ...    5.8170e-05  Tolerance :   1.0000e-05
  Last RMS-Density change    ...    2.1595e-06  Tolerance :   1.0000e-06
  Last DIIS Error            ...    3.6453e-05  Tolerance :   1.0000e-06

             **** THE GBW FILE WAS UPDATED (Ag2.gbw) ****
             **** DENSITY FILE WAS UPDATED (Ag2.scfp) ****
             **** ENERGY FILE WAS UPDATED (Ag2.en.tmp) ****
             **** THE GBW FILE WAS UPDATED (Ag2.gbw) ****
             **** DENSITY FILE WAS UPDATED (Ag2.scfp) ****
----------------
ORBITAL ENERGIES
----------------

  NO   OCC          E(Eh)            E(eV) 
   0   2.0000      -3.853245      -104.8521 
   1   2.0000      -3.852816      -104.8404 
   2   2.0000      -2.444200       -66.5101 
   3   2.0000      -2.438784       -66.3627 
   4   2.0000      -2.438784       -66.3627 
   5   2.0000      -2.438708       -66.3606 
   6   2.0000      -2.438359       -66.3511 
   7   2.0000      -2.438359       -66.3511 
   8   2.0000      -0.457524       -12.4499 
   9   2.0000      -0.441571       -12.0157 
  10   2.0000      -0.441571       -12.0157 
  11   2.0000      -0.422437       -11.4951 
  12   2.0000      -0.422436       -11.4951 
  13   2.0000      -0.415321       -11.3014 
  14   2.0000      -0.415320       -11.3014 
  15   2.0000      -0.403394       -10.9769 
  16   2.0000      -0.403394       -10.9769 
  17   2.0000      -0.396001       -10.7757 
  18   2.0000      -0.269046        -7.3211 
  19   0.0000      -0.029738        -0.8092 
  20   0.0000       0.028604         0.7784 
  21   0.0000       0.028604         0.7784 
  22   0.0000       0.042247         1.1496 
  23   0.0000       0.080360         2.1867 
  24   0.0000       0.080360         2.1867 
  25   0.0000       0.119831         3.2608 
  26   0.0000       0.154146         4.1945 
  27   0.0000       0.189436         5.1548 
  28   0.0000       0.239123         6.5069 
  29   0.0000       0.243555         6.6275 
  30   0.0000       0.243555         6.6275 
  31   0.0000       0.306490         8.3400 
  32   0.0000       0.306490         8.3400 
  33   0.0000       0.448879        12.2146 
  34   0.0000       0.463912        12.6237 
  35   0.0000       0.463912        12.6237 
  36   0.0000       0.500627        13.6228 
  37   0.0000       0.500627        13.6228 
  38   0.0000       0.549109        14.9420 
  39   0.0000       0.549112        14.9421 
  40   0.0000       0.656225        17.8568 
  41   0.0000       0.662993        18.0409 
  42   0.0000       0.662993        18.0409 
  43   0.0000       0.789542        21.4845 
  44   0.0000       1.555789        42.3352 
  45   0.0000       1.673585        45.5406 
  46   0.0000       1.673585        45.5406 
  47   0.0000       1.712313        46.5944 
  48   0.0000       1.712323        46.5947 
  49   0.0000       1.725235        46.9460 
  50   0.0000       1.725235        46.9460 
  51   0.0000       1.726420        46.9783 
  52   0.0000       1.726420        46.9783 
  53   0.0000       1.726925        46.9920 
  54   0.0000       1.726925        46.9920 
  55   0.0000       1.730669        47.0939 
  56   0.0000       1.730669        47.0939 
  57   0.0000       1.737074        47.2682 
  58   0.0000       1.737083        47.2684 
  59   0.0000       1.747789        47.5598 
  60   0.0000       1.833542        49.8932 
  61   0.0000       1.845422        50.2165 
  62   0.0000       1.845422        50.2165 
  63   0.0000       1.869060        50.8597 
  64   0.0000       2.045865        55.6708 
  65   0.0000       2.157425        58.7065 
  66   0.0000       2.157436        58.7068 
  67   0.0000       2.182952        59.4012 
  68   0.0000       2.182952        59.4012 
  69   0.0000       2.192640        59.6648 
  70   0.0000       2.192649        59.6650 
  71   0.0000       2.252180        61.2849 
  72   0.0000       2.252180        61.2849 
  73   0.0000       2.265714        61.6532 
  74   0.0000       2.402513        65.3757 
  75   0.0000       2.453644        66.7671 
  76   0.0000       4.952349       134.7603 
  77   0.0000       4.957206       134.8924 
  78   0.0000       4.957206       134.8924 
  79   0.0000       4.989683       135.7762 
  80   0.0000       4.989973       135.7841 
  81   0.0000       4.998853       136.0257 
  82   0.0000       4.998853       136.0257 
  83   0.0000       5.000186       136.0620 
  84   0.0000       5.000186       136.0620 
  85   0.0000       5.009365       136.3117 
  86   0.0000       5.009655       136.3196 
  87   0.0000       5.080675       138.2522 
  88   0.0000       5.080675       138.2522 
  89   0.0000       5.262289       143.1942 
  90   0.0000       5.721151       155.6804 
  91   0.0000       5.721151       155.6804 
  92   0.0000       5.722471       155.7163 
  93   0.0000       5.722763       155.7243 
  94   0.0000       5.722873       155.7273 
  95   0.0000       5.723112       155.7338 
  96   0.0000       5.723219       155.7367 
  97   0.0000       5.724409       155.7691 
  98   0.0000       5.724409       155.7691 
  99   0.0000       5.724447       155.7701 
 100   0.0000       5.724447       155.7701 
 101   0.0000       5.724578       155.7737 
 102   0.0000       5.724578       155.7737 
 103   0.0000       5.725934       155.8106 
 104   0.0000       5.725937       155.8107 
 105   0.0000       5.726429       155.8241 
 106   0.0000       5.726430       155.8241 
 107   0.0000       5.734413       156.0413 
 108   0.0000      33.510377       911.8637 
 109   0.0000      33.754064       918.4948 
 110   0.0000     110.844030      3016.2194 
 111   0.0000     110.922767      3018.3619 

                    ********************************
                    * MULLIKEN POPULATION ANALYSIS *
                    ********************************

-----------------------
MULLIKEN ATOMIC CHARGES
-----------------------
   0 Ag:   -0.000001
   1 Ag:    0.000001
Sum of atomic charges:    0.0000000

--------------------------------
MULLIKEN REDUCED ORBITAL CHARGES
--------------------------------
  0 Ags       :     2.962809  s :     2.962809
      pz      :     2.056996  p :     6.068038
      px      :     2.005521
      py      :     2.005521
      dz2     :     1.979644  d :     9.967932
      dxz     :     1.994208
      dyz     :     1.994208
      dx2y2   :     1.999936
      dxy     :     1.999936
      f0      :     0.000545  f :     0.001208
      f+1     :     0.000268
      f-1     :     0.000268
      f+2     :     0.000063
      f-2     :     0.000063
      f+3     :     0.000000
      f-3     :     0.000000
      g0      :     0.000006  g :     0.000014
      g+1     :     0.000003
      g-1     :     0.000003
      g+2     :     0.000000
      g-2     :     0.000000
      g+3     :     0.000000
      g-3     :     0.000000
      g+4     :     0.000000
      g-4     :     0.000000
  1 Ags       :     2.962808  s :     2.962808
      pz      :     2.056996  p :     6.068037
      px      :     2.005521
      py      :     2.005521
      dz2     :     1.979644  d :     9.967932
      dxz     :     1.994208
      dyz     :     1.994208
      dx2y2   :     1.999936
      dxy     :     1.999936
      f0      :     0.000545  f :     0.001208
      f+1     :     0.000268
      f-1     :     0.000268
      f+2     :     0.000063
      f-2     :     0.000063
      f+3     :     0.000000
      f-3     :     0.000000
      g0      :     0.000006  g :     0.000014
      g+1     :     0.000003
      g-1     :     0.000003
      g+2     :     0.000000
      g-2     :     0.000000
      g+3     :     0.000000
      g-3     :     0.000000
      g+4     :     0.000000
      g-4     :     0.000000


                     *******************************
                     * LOEWDIN POPULATION ANALYSIS *
                     *******************************

----------------------
LOEWDIN ATOMIC CHARGES
----------------------
   0 Ag:   -0.000000
   1 Ag:    0.000000

-------------------------------
LOEWDIN REDUCED ORBITAL CHARGES
-------------------------------
  0 Ags       :     2.895263  s :     2.895263
      pz      :     2.110134  p :     6.125478
      px      :     2.007672
      py      :     2.007672
      dz2     :     1.993833  d :     9.977536
      dxz     :     1.991923
      dyz     :     1.991923
      dx2y2   :     1.999929
      dxy     :     1.999929
      f0      :     0.000761  f :     0.001705
      f+1     :     0.000401
      f-1     :     0.000401
      f+2     :     0.000070
      f-2     :     0.000070
      f+3     :     0.000000
      f-3     :     0.000000
      g0      :     0.000008  g :     0.000018
      g+1     :     0.000004
      g-1     :     0.000004
      g+2     :     0.000001
      g-2     :     0.000001
      g+3     :     0.000000
      g-3     :     0.000000
      g+4     :     0.000000
      g-4     :     0.000000
  1 Ags       :     2.895263  s :     2.895263
      pz      :     2.110134  p :     6.125478
      px      :     2.007672
      py      :     2.007672
      dz2     :     1.993833  d :     9.977536
      dxz     :     1.991923
      dyz     :     1.991923
      dx2y2   :     1.999929
      dxy     :     1.999929
      f0      :     0.000761  f :     0.001705
      f+1     :     0.000401
      f-1     :     0.000401
      f+2     :     0.000070
      f-2     :     0.000070
      f+3     :     0.000000
      f-3     :     0.000000
      g0      :     0.000008  g :     0.000018
      g+1     :     0.000004
      g-1     :     0.000004
      g+2     :     0.000001
      g-2     :     0.000001
      g+3     :     0.000000
      g-3     :     0.000000
      g+4     :     0.000000
      g-4     :     0.000000


                      *****************************
                      * MAYER POPULATION ANALYSIS *
                      *****************************

  NA   - Mulliken gross atomic population
  ZA   - Total nuclear charge
  QA   - Mulliken gross atomic charge
  VA   - Mayer's total valence
  BVA  - Mayer's bonded valence
  FA   - Mayer's free valence

  ATOM       NA         ZA         QA         VA         BVA        FA
  0 Ag    19.0000    19.0000    -0.0000     1.0261     1.0261    -0.0000
  1 Ag    19.0000    19.0000     0.0000     1.0261     1.0261     0.0000

  Mayer bond orders larger than 0.100000
B(  0-Ag,  1-Ag) :   1.0261 

-------
TIMINGS
-------

Total SCF time: 0 days 0 hours 1 min 29 sec 

Total time                  ....      89.745 sec
Sum of individual times     ....      87.570 sec  ( 97.6%)

Fock matrix formation       ....      75.853 sec  ( 84.5%)
  XC integration            ....      73.258 sec  ( 96.6% of F)
    Basis function eval.    ....       0.018 sec  (  0.0% of XC)
    Density eval.           ....       0.030 sec  (  0.0% of XC)
    XC-Functional eval.     ....       0.021 sec  (  0.0% of XC)
    XC-Potential eval.      ....       0.049 sec  (  0.1% of XC)
Diagonalization             ....       0.625 sec  (  0.7%)
Density matrix formation    ....       0.005 sec  (  0.0%)
Population analysis         ....       0.176 sec  (  0.2%)
Initial guess               ....       7.244 sec  (  8.1%)
Orbital Transformation      ....       0.000 sec  (  0.0%)
Orbital Orthonormalization  ....       0.000 sec  (  0.0%)
DIIS solution               ....       0.103 sec  (  0.1%)
Grid generation             ....       3.563 sec  (  4.0%)

-------------------------   --------------------
FINAL SINGLE POINT ENERGY      -293.859252315435
-------------------------   --------------------


----------------------------------------------------------------------------
                           ORCA NUMERICAL GRADIENT
                              (28-process run)
----------------------------------------------------------------------------

I state                        ... 1
J state                        ... 0
Number of atoms                ... 2
Derivative's order of accuracy ... 2
Central differences            ... used
Number of displacements        ... 12
Numerical increment            ... 5.000e-03 bohr
Translation invariance         ... used

The output will be reduced. Please look at the following files:
SCF program output             ... >Ag2.lastscf
Integral program output        ... >Ag2.lastint
Gradient program output        ... >Ag2.lastgrad


     Note:   There are more processes than displacements to do
     ===>:   Reducing number of processes to   3

             <<<Displacing   2/coordinate 1 (+)>>>
             <<<Displacing   2/coordinate 2 (+)>>>
             <<<Displacing   2/coordinate 3 (+)>>>
             <<<Displacing   2/coordinate 1 (-)>>>
             <<<Displacing   2/coordinate 2 (-)>>>
             <<<Displacing   2/coordinate 3 (-)>>>

------------------------------
CARTESIAN GRADIENT (NUMERICAL)
-------------------------------
   1   Ag  :   -0.000001349    0.000002250   -0.002072767
   2   Ag  :    0.000001349   -0.000002250    0.002072767

Norm of the cartesian gradient     ...    0.002931338
RMS gradient                       ...    0.001196714
MAX gradient                       ...    0.002072767

-------
TIMINGS
-------

Total numerical gradient time      ...       28.611 sec


                            ***************************************
                            *     ORCA property calculations      *
                            ***************************************

                                    ---------------------
                                    Active property flags
                                    ---------------------
   (+) Dipole Moment


------------------------------------------------------------------------------
                       ORCA ELECTRIC PROPERTIES CALCULATION
------------------------------------------------------------------------------

Dipole Moment Calculation                       ... on
Quadrupole Moment Calculation                   ... off
Polarizability Calculation                      ... off
GBWName                                         ... Ag2.gbw
Electron density file                           ... Ag2.scfp
The origin for moment calculation is the CENTER OF MASS  = ( 0.000000,  0.000000  2.444465)

-------------
DIPOLE MOMENT
-------------
                                X             Y             Z
Electronic contribution:      0.00000       0.00000      -0.00000
Nuclear contribution   :      0.00000       0.00000       0.00000
                        -----------------------------------------
Total Dipole Moment    :      0.00000       0.00000      -0.00000
                        -----------------------------------------
Magnitude (a.u.)       :      0.00000
Magnitude (Debye)      :      0.00000



--------------------
Rotational spectrum 
--------------------
 
Rotational constants in cm-1:     0.000000     0.046698     0.046698 
Rotational constants in MHz :     0.000000  1399.964850  1399.964850 

 Dipole components along the rotational axes: 
x,y,z [a.u.] :    -0.000000     0.000000     0.000000 
x,y,z [Debye]:    -0.000001     0.000000     0.000000 

 

Timings for individual modules:

Sum of individual times         ...      122.086 sec (=   2.035 min)
GTO integral calculation        ...        3.051 sec (=   0.051 min)   2.5 %
SCF iterations                  ...       90.425 sec (=   1.507 min)  74.1 %
SCF Gradient evaluation         ...       28.611 sec (=   0.477 min)  23.4 %
                             ****ORCA TERMINATED NORMALLY****
TOTAL RUN TIME: 0 days 0 hours 5 minutes 58 seconds 14 msec
