
                                 *****************
                                 * O   R   C   A *
                                 *****************

           --- An Ab Initio, DFT and Semiempirical electronic structure package ---

                  #######################################################
                  #                        -***-                        #
                  #          Department of theory and spectroscopy      #
                  #               Directorship: Frank Neese             #
                  #        Max Planck Institute fuer Kohlenforschung    #
                  #                Kaiser Wilhelm Platz 1               #
                  #                 D-45470 Muelheim/Ruhr               #
                  #                      Germany                        #
                  #                                                     #
                  #                  All rights reserved                #
                  #                        -***-                        #
                  #######################################################


                         Program Version 4.2.0 -  RELEASE  -


 With contributions from (in alphabetic order):
   Daniel Aravena         : Magnetic Suceptibility
   Michael Atanasov       : Ab Initio Ligand Field Theory (pilot matlab implementation)
   Alexander A. Auer      : GIAO ZORA, VPT2
   Ute Becker             : Parallelization
   Giovanni Bistoni       : ED, misc. LED, open-shell LED, HFLED
   Martin Brehm           : Molecular dynamics
   Dmytro Bykov           : SCF Hessian
   Vijay G. Chilkuri      : MRCI spin determinant printing, contributions to CSF-ICE
   Dipayan Datta          : RHF DLPNO-CCSD density
   Achintya Kumar Dutta   : EOM-CC, STEOM-CC
   Dmitry Ganyushin       : Spin-Orbit,Spin-Spin,Magnetic field MRCI
   Miquel Garcia          : C-PCM Hessian, Gaussian charge scheme
   Yang Guo               : DLPNO-NEVPT2, CIM, IAO-localization
   Andreas Hansen         : Spin unrestricted coupled pair/coupled cluster methods
   Benjamin Helmich-Paris : CASSCF linear response (MC-RPA)
   Lee Huntington         : MR-EOM, pCC
   Robert Izsak           : Overlap fitted RIJCOSX, COSX-SCS-MP3, EOM
   Christian Kollmar      : KDIIS, OOCD, Brueckner-CCSD(T), CCSD density
   Simone Kossmann        : Meta GGA functionals, TD-DFT gradient, OOMP2, MP2 Hessian
   Martin Krupicka        : AUTO-CI
   Lucas Lang             : DCDCAS
   Dagmar Lenk            : GEPOL surface, SMD
   Dimitrios Liakos       : Extrapolation schemes; Compound Job, initial MDCI parallelization
   Dimitrios Manganas     : Further ROCIS development; embedding schemes
   Dimitrios Pantazis     : SARC Basis sets
   Taras Petrenko         : DFT Hessian,TD-DFT gradient, ASA, ECA, R-Raman, ABS, FL, XAS/XES, NRVS
   Peter Pinski           : DLPNO-MP2, DLPNO-MP2 Gradient
   Christoph Reimann      : Effective Core Potentials
   Marius Retegan         : Local ZFS, SOC
   Christoph Riplinger    : Optimizer, TS searches, QM/MM, DLPNO-CCSD(T), (RO)-DLPNO pert. Triples
   Tobias Risthaus        : Range-separated hybrids, TD-DFT gradient, RPA, STAB
   Michael Roemelt        : Original ROCIS implementation
   Masaaki Saitow         : Open-shell DLPNO-CCSD energy and density
   Barbara Sandhoefer     : DKH picture change effects
   Avijit Sen             : IP-ROCIS
   Kantharuban Sivalingam : CASSCF convergence, NEVPT2, FIC-MRCI
   Bernardo de Souza      : ESD, SOC TD-DFT
   Georgi Stoychev        : AutoAux, RI-MP2 NMR
   Willem Van den Heuvel  : Paramagnetic NMR
   Boris Wezisla          : Elementary symmetry handling
   Frank Wennmohs         : Technical directorship


 We gratefully acknowledge several colleagues who have allowed us to
 interface, adapt or use parts of their codes:
   Stefan Grimme, W. Hujo, H. Kruse,             : VdW corrections, initial TS optimization,
                  C. Bannwarth                     DFT functionals, gCP, sTDA/sTD-DF
   Ed Valeev, F. Pavosevic, A. Kumar             : LibInt (2-el integral package), F12 methods
   Garnet Chan, S. Sharma, J. Yang, R. Olivares  : DMRG
   Ulf Ekstrom                                   : XCFun DFT Library
   Mihaly Kallay                                 : mrcc  (arbitrary order and MRCC methods)
   Andreas Klamt, Michael Diedenhofen            : otool_cosmo (COSMO solvation model)
   Jiri Pittner, Ondrej Demel                    : Mk-CCSD
   Frank Weinhold                                : gennbo (NPA and NBO analysis)
   Christopher J. Cramer and Donald G. Truhlar   : smd solvation model
   Lars Goerigk                                  : TD-DFT with DH, B97 family of functionals
   V. Asgeirsson, H. Jonsson                     : NEB implementation
   FAccTs GmbH                                   : IRC, NEB, NEB-TS, Multilevel, MM, QM/MM, CI optimization
   S Lehtola, MJT Oliveira, MAL Marques          : LibXC Library


 Your calculation uses the libint2 library for the computation of 2-el integrals
 For citations please refer to: http://libint.valeyev.net

 Your ORCA version has been built with support for libXC version: 4.2.3
 For citations please refer to: https://tddft.org/programs/libxc/

 This ORCA versions uses:
   CBLAS   interface :  Fast vector & matrix operations
   LAPACKE interface :  Fast linear algebra routines
   SCALAPACK package :  Parallel linear algebra routines


Your calculation utilizes the DFT-NL dispersion correction.
Cite in your paper:
Vydrov, O. A.; Van Voorhis, T. J. Chem. Phys. 2010, 133, 244103
Hujo, W.; Grimme, S. J. Chem. Theory Comput. 2011, 7, 3866 
   

----- Orbital basis set information -----
Your calculation utilizes the basis: def2-TZVPPD
   F. Weigend and R. Ahlrichs, Phys. Chem. Chem. Phys. 7, 3297 (2005).
   D. Rappoport and F. Furche, J. Chem. Phys. 133 134105 (2010).

----- AuxJK basis set information -----
Your calculation utilizes the auxiliary basis: def2/JK
   H-Ba, Hf-Rn: F. Weigend, J. Comput. Chem. 29, 167 (2008).

================================================================================
                                        WARNINGS
                       Please study these warnings very carefully!
================================================================================

INFO   : Found keyword 'NumGrad' for Energy calculation
  ===> : Setting RunTyp to EnGrad

WARNING: Numerical Gradient with sloppy Convergence Criteria    
         Your results may be not reliable!                      
         Please choose at least TightSCF!                       

WARNING: your system is open-shell and RHF/RKS was chosen
  ===> : WILL SWITCH to UHF/UKS


INFO   : the flag for use of LIBINT has been found!

================================================================================
                                       INPUT FILE
================================================================================
NAME = al.in
|  1> #
|  2> # al wB97M-V/Def2-TZVPPD
|  3> #
|  4> ! wb97m-v def2-tzvppd def2/jk grid4 nofinalgrid numgrad
|  5> 
|  6> *xyz 0 2
|  7> Al         0.00000        0.00000        0.00000
|  8> *
|  9> 
| 10> %maxcore 5000
| 11> 
| 12> %pal
| 13> nprocs = 28
| 14> end
| 15> 
| 16> 
| 17>                          ****END OF INPUT****
================================================================================

                     *******************************
                     * Energy+Gradient Calculation *
                     *******************************

---------------------------------
CARTESIAN COORDINATES (ANGSTROEM)
---------------------------------
  Al     0.000000    0.000000    0.000000

----------------------------
CARTESIAN COORDINATES (A.U.)
----------------------------
  NO LB      ZA    FRAG     MASS         X           Y           Z
   0 Al   13.0000    0    26.982    0.000000    0.000000    0.000000

--------------------------------
INTERNAL COORDINATES (ANGSTROEM)
--------------------------------
 Al     0   0   0     0.000000000000     0.00000000     0.00000000

---------------------------
INTERNAL COORDINATES (A.U.)
---------------------------
 Al     0   0   0     0.000000000000     0.00000000     0.00000000

---------------------
BASIS SET INFORMATION
---------------------
There are 1 groups of distinct atoms

 Group   1 Type Al  : 15s9p4d1f contracted to 6s5p4d1f pattern {732111/51111/1111/1}

Atom   0Al   basis set group =>   1
----------------------------------
AUXILIARY/JK BASIS SET INFORMATION
----------------------------------
There are 1 groups of distinct atoms

 Group   1 Type Al  : 16s12p10d4f1g contracted to 13s11p9d4f1g pattern {4111111111111/21111111111/211111111/1111/1}

Atom   0Al   basis set group =>   1


           ************************************************************
           *        Program running with 28 parallel MPI-processes    *
           *              working on a common directory               *
           ************************************************************
------------------------------------------------------------------------------
                           ORCA GTO INTEGRAL CALCULATION
------------------------------------------------------------------------------

                         BASIS SET STATISTICS AND STARTUP INFO

 # of primitive gaussian shells          ...   29
 # of primitive gaussian functions       ...   69
 # of contracted shells                  ...   16
 # of contracted basis functions         ...   48
 Highest angular momentum                ...    3
 Maximum contraction depth               ...    7
 Integral package used                   ... LIBINT
 Integral threshhold            Thresh   ...  1.000e-10
 Primitive cut-off              TCut     ...  1.000e-11


------------------------------ INTEGRAL EVALUATION ----------------------------


 * One electron integrals 
 Pre-screening matrix                    ... done
 Shell pair data                         ... done (   0.000 sec)



           ************************************************************
           *        Program running with 28 parallel MPI-processes    *
           *              working on a common directory               *
           ************************************************************
-------------------------------------------------------------------------------
                                 ORCA SCF
-------------------------------------------------------------------------------

------------
SCF SETTINGS
------------
Hamiltonian:
 Density Functional     Method          .... DFT(GTOs)
 Exchange Functional    Exchange        .... WB97M-V
 Correlation Functional Correlation     .... WB97M-V
 Gradients option       PostSCFGGA      .... off
 Hybrid DFT is turned on
   Fraction HF Exchange ScalHFX         ....  0.150000
   Scaling of DF-GGA-X  ScalDFX         ....  0.000000
   Scaling of DF-GGA-C  ScalDFC         ....  1.000000
   Scaling of DF-LDA-C  ScalLDAC        ....  1.000000
   Perturbative correction              ....  0.000000
   Density functional embedding theory  .... OFF
 Long-range corrected/Screened/Range-Separated Hybrid DFT is turned on
   Amount of maximum screened exact exchange              ....  0.850000
   Range separation parameter mu (erf(mu*r12)/r12)        ....  0.300000
   NL short-range parameter             ....  6.000000
   NL long-range parameter              ....  0.010000


General Settings:
 Integral files         IntName         .... al
 Hartree-Fock type      HFTyp           .... UHF
 Total Charge           Charge          ....    0
 Multiplicity           Mult            ....    2
 Number of Electrons    NEL             ....   13
 Basis Dimension        Dim             ....   48
 Nuclear Repulsion      ENuc            ....      0.0000000000 Eh

Convergence Acceleration:
 DIIS                   CNVDIIS         .... on
   Start iteration      DIISMaxIt       ....    12
   Startup error        DIISStart       ....  0.200000
   # of expansion vecs  DIISMaxEq       ....     5
   Bias factor          DIISBfac        ....   1.050
   Max. coefficient     DIISMaxC        ....  10.000
 Newton-Raphson         CNVNR           .... off
 SOSCF                  CNVSOSCF        .... off
 Level Shifting         CNVShift        .... on
   Level shift para.    LevelShift      ....    0.2500
   Turn off err/grad.   ShiftErr        ....    0.0010
 Zerner damping         CNVZerner       .... off
 Static damping         CNVDamp         .... on
   Fraction old density DampFac         ....    0.7000
   Max. Damping (<1)    DampMax         ....    0.9800
   Min. Damping (>=0)   DampMin         ....    0.0000
   Turn off err/grad.   DampErr         ....    0.1000
 Fernandez-Rico         CNVRico         .... off

SCF Procedure:
 Maximum # iterations   MaxIter         ....   125
 SCF integral mode      SCFMode         .... Direct
   Integral package                     .... LIBINT
 Reset frequency        DirectResetFreq ....    20
 Integral Threshold     Thresh          ....  1.000e-10 Eh
 Primitive CutOff       TCut            ....  1.000e-11 Eh

Convergence Tolerance:
 Convergence Check Mode ConvCheckMode   .... Total+1el-Energy
 Convergence forced     ConvForced      .... 0
 Energy Change          TolE            ....  1.000e-06 Eh
 1-El. energy change                    ....  1.000e-03 Eh
 DIIS Error             TolErr          ....  1.000e-06


Diagonalization of the overlap matrix:
Smallest eigenvalue                        ... 2.409e-02
Time for diagonalization                   ...    0.001 sec
Threshold for overlap eigenvalues          ... 1.000e-08
Number of eigenvalues below threshold      ... 0
Time for construction of square roots      ...    0.044 sec
Total time needed                          ...    0.045 sec

-------------------
DFT GRID GENERATION
-------------------

General Integration Accuracy     IntAcc      ...  4.670
Radial Grid Type                 RadialGrid  ... Gauss-Chebyshev
Angular Grid (max. acc.)         AngularGrid ... Lebedev-302
Angular grid pruning method      GridPruning ... 3 (G Style)
Weight generation scheme         WeightScheme... Becke
Basis function cutoff            BFCut       ...    1.0000e-10
Integration weight cutoff        WCut        ...    1.0000e-14
Grids for H and He will be reduced by one unit

# of grid points (after initial pruning)     ...   6846 (   0.0 sec)
# of grid points (after weights+screening)   ...   6846 (   0.0 sec)
Grid point division into batches done        ...    0.0 sec
Reduced shell lists constructed in    0.0 sec

Total number of grid points                  ...     6846
Total number of batches                      ...      107
Average number of points per batch           ...       63
Average number of grid points per atom       ...     6846
Average number of shells per batch           ...     3.20 (20.00%)
Average number of basis functions per batch  ...     8.00 (16.67%)
Average number of large shells per batch     ...     2.40 (75.00%)
Average number of large basis fcns per batch ...     7.20 (90.00%)
Maximum spatial batch extension              ...  23.12, 23.12, 21.41 au
Average spatial batch extension              ...   0.72,  0.72,  0.80 au

Time for grid setup =    1.307 sec

------------------------------
INITIAL GUESS: MODEL POTENTIAL
------------------------------
Loading Hartree-Fock densities                     ... done
Calculating cut-offs                               ... done
Setting up the integral package                    ... done
Initializing the effective Hamiltonian             ... done
Starting the Coulomb interaction                   ... done (   0.0 sec)
Reading the grid                                   ... done
Mapping shells                                     ... done
Starting the XC term evaluation                    ... done (   0.0 sec)
  promolecular density results
     # of electrons  =     12.999996150
     EX              =    -17.960863511
     EC              =     -0.449465569
     EX+EC           =    -18.410329080
Transforming the Hamiltonian                       ... done (   0.0 sec)
Diagonalizing the Hamiltonian                      ... done (   0.0 sec)
Back transforming the eigenvectors                 ... done (   0.0 sec)
Now organizing SCF variables                       ... done
                      ------------------
                      INITIAL GUESS DONE (   1.8 sec)
                      ------------------
--------------
SCF ITERATIONS
--------------
ITER       Energy         Delta-E        Max-DP      RMS-DP      [F,P]     Damp
               ***  Starting incremental Fock matrix formation  ***
  0   -242.3958334411   0.000000000000 0.01224164  0.00042535  0.0430368 0.7000
  1   -242.3967568249  -0.000923383839 0.01380716  0.00044604  0.0302957 0.7000
                               ***Turning on DIIS***
  2   -242.3975399839  -0.000783158931 0.03916343  0.00124297  0.0213121 0.0000
  3   -242.3994589748  -0.001918990915 0.00717526  0.00018645  0.0022487 0.0000
  4   -242.3995260122  -0.000067037392 0.00393883  0.00010751  0.0007412 0.0000
  5   -242.3995751500  -0.000049137867 0.00163041  0.00003527  0.0000946 0.0000
  6   -242.3995770767  -0.000001926638 0.00029386  0.00000605  0.0000353 0.0000
                 **** Energy Check signals convergence ****

               *****************************************************
               *                     SUCCESS                       *
               *           SCF CONVERGED AFTER   7 CYCLES          *
               *****************************************************


Setting up the DFT-NL grid :

General Integration Accuracy     IntAcc      ...  4.340
Radial Grid Type                 RadialGrid  ... Gauss-Chebyshev
Angular Grid (max. acc.)         AngularGrid ... Lebedev-110
Angular grid pruning method      GridPruning ... 3 (G Style)
Weight generation scheme         WeightScheme... Becke
Basis function cutoff            BFCut       ...    1.0000e-10
Integration weight cutoff        WCut        ...    1.0000e-14
Grids for H and He will be reduced by one unit

# of grid points (after initial pruning)     ...   1866 (   0.0 sec)
# of grid points (after weights+screening)   ...   1866 (   0.0 sec)
Grid point division into batches done        ...    0.0 sec
Reduced shell lists constructed in    0.0 sec

Total number of grid points                  ...     1866
Total number of batches                      ...       30
Average number of points per batch           ...       62
Average number of grid points per atom       ...     1866
Average number of shells per batch           ...     6.00 (37.50%)
Average number of basis functions per batch  ...    20.67 (43.06%)
Average number of large shells per batch     ...     6.00 (100.00%)
Average number of large basis fcns per batch ...    20.67 (100.00%)
Maximum spatial batch extension              ...  21.07, 38.78, 38.78 au
Average spatial batch extension              ...   1.40,  2.59,  2.59 au

Final grid set up in    2.4 sec

-------------------------------------------------------------------------------
                         DFT-NL dispersion correction                          
-------------------------------------------------------------------------------

SC Energy -242.399576745 
NL    Energy 0.056359004 
SC+NL Energy -242.343217741 
NL done in    1.6 sec
-------------------------------------------------------------------------------

----------------
TOTAL SCF ENERGY
----------------

Total Energy       :         -242.34321774 Eh           -6594.49421 eV

Components:
Nuclear Repulsion  :            0.00000000 Eh               0.00000 eV
Electronic Energy  :         -242.34321774 Eh           -6594.49421 eV
One Electron Energy:         -336.64545014 Eh           -9160.58841 eV
Two Electron Energy:           94.30223239 Eh            2566.09420 eV

Virial components:
Potential Energy   :         -484.12062402 Eh          -13173.59191 eV
Kinetic Energy     :          241.77740628 Eh            6579.09770 eV
Virial Ratio       :            2.00234022


DFT components:
N(Alpha)           :        7.000000406701 electrons
N(Beta)            :        6.000000399063 electrons
N(Total)           :       13.000000805764 electrons
E(X)               :      -13.637301159570 Eh       
E(C)               :       -0.511347612767 Eh       
NL Energy, E(C,NL) :        0.056359003626 Eh       
E(XC)              :      -14.092289768711 Eh       
DFET-embed. en.    :        0.000000000000 Eh       

---------------
SCF CONVERGENCE
---------------

  Last Energy change         ...    3.3188e-07  Tolerance :   1.0000e-06
  Last MAX-Density change    ...    2.3365e-05  Tolerance :   1.0000e-05
  Last RMS-Density change    ...    5.0058e-07  Tolerance :   1.0000e-06
  Last DIIS Error            ...    6.3440e-06  Tolerance :   1.0000e-06

             **** THE GBW FILE WAS UPDATED (al.gbw) ****
             **** DENSITY FILE WAS UPDATED (al.scfp) ****
             **** ENERGY FILE WAS UPDATED (al.en.tmp) ****
----------------------
UHF SPIN CONTAMINATION
----------------------

Warning: in a DFT calculation there is little theoretical justification to 
         calculate <S**2> as in Hartree-Fock theory. We will do it anyways
         but you should keep in mind that the values have only limited relevance

Expectation value of <S**2>     :     0.752479
Ideal value S*(S+1) for S=0.5   :     0.750000
Deviation                       :     0.002479

             **** THE GBW FILE WAS UPDATED (al.gbw) ****
             **** DENSITY FILE WAS UPDATED (al.scfp) ****
----------------
ORBITAL ENERGIES
----------------
                 SPIN UP ORBITALS
  NO   OCC          E(Eh)            E(eV) 
   0   1.0000     -56.334666     -1532.9442 
   1   1.0000      -4.313031      -117.3635 
   2   1.0000      -2.826910       -76.9241 
   3   1.0000      -2.826910       -76.9241 
   4   1.0000      -2.825514       -76.8861 
   5   1.0000      -0.412162       -11.2155 
   6   1.0000      -0.194680        -5.2975 
   7   0.0000      -0.010943        -0.2978 
   8   0.0000      -0.010943        -0.2978 
   9   0.0000       0.037578         1.0225 
  10   0.0000       0.090067         2.4508 
  11   0.0000       0.090067         2.4508 
  12   0.0000       0.093399         2.5415 
  13   0.0000       0.096332         2.6213 
  14   0.0000       0.096332         2.6213 
  15   0.0000       0.255890         6.9631 
  16   0.0000       0.262881         7.1533 
  17   0.0000       0.262881         7.1533 
  18   0.0000       0.285158         7.7596 
  19   0.0000       0.285158         7.7596 
  20   0.0000       0.288770         7.8578 
  21   0.0000       0.289390         7.8747 
  22   0.0000       0.289390         7.8747 
  23   0.0000       0.302576         8.2335 
  24   0.0000       0.760742        20.7008 
  25   0.0000       0.770765        20.9736 
  26   0.0000       0.770765        20.9736 
  27   0.0000       0.772520        21.0213 
  28   0.0000       0.772520        21.0213 
  29   0.0000       0.781337        21.2613 
  30   0.0000       0.787858        21.4387 
  31   0.0000       0.787858        21.4387 
  32   0.0000       0.794839        21.6287 
  33   0.0000       0.794839        21.6287 
  34   0.0000       0.819064        22.2879 
  35   0.0000       0.819064        22.2879 
  36   0.0000       1.871823        50.9349 
  37   0.0000       1.909881        51.9705 
  38   0.0000       1.909881        51.9705 
  39   0.0000       3.243799        88.2683 
  40   0.0000       3.247869        88.3790 
  41   0.0000       3.247869        88.3790 
  42   0.0000       3.247937        88.3809 
  43   0.0000       3.247937        88.3809 
  44   0.0000       6.561882       178.5579 
  45   0.0000       9.253564       251.8023 
  46   0.0000       9.277188       252.4451 
  47   0.0000       9.277188       252.4451 

                 SPIN DOWN ORBITALS
  NO   OCC          E(Eh)            E(eV) 
   0   1.0000     -56.332244     -1532.8783 
   1   1.0000      -4.310191      -117.2863 
   2   1.0000      -2.825191       -76.8774 
   3   1.0000      -2.825191       -76.8774 
   4   1.0000      -2.816088       -76.6297 
   5   1.0000      -0.387303       -10.5390 
   6   0.0000      -0.030767        -0.8372 
   7   0.0000      -0.023773        -0.6469 
   8   0.0000      -0.015666        -0.4263 
   9   0.0000      -0.015666        -0.4263 
  10   0.0000       0.020999         0.5714 
  11   0.0000       0.020999         0.5714 
  12   0.0000       0.046835         1.2744 
  13   0.0000       0.061416         1.6712 
  14   0.0000       0.061417         1.6712 
  15   0.0000       0.250763         6.8236 
  16   0.0000       0.255757         6.9595 
  17   0.0000       0.255757         6.9595 
  18   0.0000       0.289052         7.8655 
  19   0.0000       0.289052         7.8655 
  20   0.0000       0.289272         7.8715 
  21   0.0000       0.289273         7.8715 
  22   0.0000       0.294805         8.0221 
  23   0.0000       0.305873         8.3232 
  24   0.0000       0.794744        21.6261 
  25   0.0000       0.794744        21.6261 
  26   0.0000       0.811427        22.0800 
  27   0.0000       0.811427        22.0800 
  28   0.0000       0.821163        22.3450 
  29   0.0000       0.821163        22.3450 
  30   0.0000       0.821934        22.3660 
  31   0.0000       0.825698        22.4684 
  32   0.0000       0.825698        22.4684 
  33   0.0000       0.831976        22.6392 
  34   0.0000       0.831976        22.6392 
  35   0.0000       0.839430        22.8420 
  36   0.0000       1.917136        52.1679 
  37   0.0000       1.917136        52.1679 
  38   0.0000       1.939932        52.7882 
  39   0.0000       3.251396        88.4750 
  40   0.0000       3.251396        88.4750 
  41   0.0000       3.263502        88.8044 
  42   0.0000       3.263502        88.8044 
  43   0.0000       3.267083        88.9019 
  44   0.0000       6.567396       178.7079 
  45   0.0000       9.281928       252.5741 
  46   0.0000       9.281928       252.5741 
  47   0.0000       9.297177       252.9890 

                    ********************************
                    * MULLIKEN POPULATION ANALYSIS *
                    ********************************

--------------------------------------------
MULLIKEN ATOMIC CHARGES AND SPIN POPULATIONS
--------------------------------------------
   0 Al:    0.000000    1.000000
Sum of atomic charges         :    0.0000000
Sum of atomic spin populations:    1.0000000

-----------------------------------------------------
MULLIKEN REDUCED ORBITAL CHARGES AND SPIN POPULATIONS
-----------------------------------------------------
CHARGE
  0 Als       :     5.999076  s :     5.999076
      pz      :     2.998538  p :     6.999958
      px      :     2.000102
      py      :     2.001317
      dz2     :     0.000920  d :     0.000924
      dxz     :     0.000000
      dyz     :     0.000004
      dx2y2   :     0.000000
      dxy     :     0.000000
      f0      :     0.000042  f :     0.000042
      f+1     :     0.000000
      f-1     :     0.000000
      f+2     :     0.000000
      f-2     :     0.000000
      f+3     :     0.000000
      f-3     :     0.000000

SPIN
  0 Als       :     0.000630  s :     0.000630
      pz      :     0.998538  p :     0.999958
      px      :     0.000103
      py      :     0.001317
      dz2     :    -0.000627  d :    -0.000630
      dxz     :    -0.000000
      dyz     :    -0.000002
      dx2y2   :    -0.000000
      dxy     :    -0.000000
      f0      :     0.000041  f :     0.000042
      f+1     :     0.000000
      f-1     :     0.000000
      f+2     :     0.000000
      f-2     :     0.000000
      f+3     :     0.000000
      f-3     :     0.000000


                     *******************************
                     * LOEWDIN POPULATION ANALYSIS *
                     *******************************

-------------------------------------------
LOEWDIN ATOMIC CHARGES AND SPIN POPULATIONS
-------------------------------------------
   0 Al:   -0.000000    1.000000

----------------------------------------------------
LOEWDIN REDUCED ORBITAL CHARGES AND SPIN POPULATIONS
----------------------------------------------------
CHARGE
  0 Als       :     5.999076  s :     5.999076
      pz      :     2.998538  p :     6.999958
      px      :     2.000102
      py      :     2.001317
      dz2     :     0.000920  d :     0.000924
      dxz     :     0.000000
      dyz     :     0.000004
      dx2y2   :     0.000000
      dxy     :     0.000000
      f0      :     0.000042  f :     0.000042
      f+1     :     0.000000
      f-1     :     0.000000
      f+2     :     0.000000
      f-2     :     0.000000
      f+3     :     0.000000
      f-3     :     0.000000

SPIN
  0 Als       :     0.000630  s :     0.000630
      pz      :     0.998538  p :     0.999958
      px      :     0.000103
      py      :     0.001317
      dz2     :    -0.000627  d :    -0.000630
      dxz     :    -0.000000
      dyz     :    -0.000002
      dx2y2   :    -0.000000
      dxy     :    -0.000000
      f0      :     0.000041  f :     0.000042
      f+1     :     0.000000
      f-1     :     0.000000
      f+2     :     0.000000
      f-2     :     0.000000
      f+3     :     0.000000
      f-3     :     0.000000


                      *****************************
                      * MAYER POPULATION ANALYSIS *
                      *****************************

  NA   - Mulliken gross atomic population
  ZA   - Total nuclear charge
  QA   - Mulliken gross atomic charge
  VA   - Mayer's total valence
  BVA  - Mayer's bonded valence
  FA   - Mayer's free valence

  ATOM       NA         ZA         QA         VA         BVA        FA
  0 Al    13.0000    13.0000    -0.0000     1.0050     0.0000     1.0050

  Mayer bond orders larger than 0.100000


-------
TIMINGS
-------

Total SCF time: 0 days 0 hours 1 min 1 sec 

Total time                  ....      61.388 sec
Sum of individual times     ....      58.859 sec  ( 95.9%)

Fock matrix formation       ....      53.308 sec  ( 86.8%)
  XC integration            ....      52.634 sec  ( 98.7% of F)
    Basis function eval.    ....       0.002 sec  (  0.0% of XC)
    Density eval.           ....       0.008 sec  (  0.0% of XC)
    XC-Functional eval.     ....       0.010 sec  (  0.0% of XC)
    XC-Potential eval.      ....       0.008 sec  (  0.0% of XC)
Diagonalization             ....       0.626 sec  (  1.0%)
Density matrix formation    ....       0.002 sec  (  0.0%)
Population analysis         ....       0.624 sec  (  1.0%)
Initial guess               ....       0.524 sec  (  0.9%)
Orbital Transformation      ....       0.000 sec  (  0.0%)
Orbital Orthonormalization  ....       0.000 sec  (  0.0%)
DIIS solution               ....       0.041 sec  (  0.1%)
Grid generation             ....       3.735 sec  (  6.1%)

-------------------------   --------------------
FINAL SINGLE POINT ENERGY      -242.343217741168
-------------------------   --------------------


----------------------------------------------------------------------------
                           ORCA NUMERICAL GRADIENT
                              (28-process run)
----------------------------------------------------------------------------

I state                        ... 1
J state                        ... 0
Number of atoms                ... 1
Derivative's order of accuracy ... 2
Central differences            ... used
Number of displacements        ... 6
Numerical increment            ... 5.000e-03 bohr
Translation invariance         ... used

The output will be reduced. Please look at the following files:
SCF program output             ... >al.lastscf
Integral program output        ... >al.lastint
Gradient program output        ... >al.lastgrad


     Note:   There are more processes than displacements to do
     ===>:   Reducing number of processes to   0


------------------------------
CARTESIAN GRADIENT (NUMERICAL)
-------------------------------
   1   Al  :    0.000000000    0.000000000    0.000000000

Norm of the cartesian gradient     ...    0.000000000
RMS gradient                       ...    0.000000000
MAX gradient                       ...    0.000000000
*** glibc detected *** /mnt/storage/software/apps/orca-4.2.0/orca_4_2_0_linux_x86-64_openmpi314/orca: free(): invalid next size (fast): 0x000000000d234fc0 ***
======= Backtrace: =========
[0xb0928aa]
[0xb09567c]
[0x76d903]
[0x76fb95]
[0x915b4f]
[0x918f24]
[0x487649]
[0xb05c99e]
[0x4870d9]
======= Memory map: ========
00400000-0bf42000 r-xp 00000000 00:2b 4876154                            /mnt/storage/software/apps/orca-4.2.0/orca_4_2_0_linux_x86-64_openmpi314/orca
0c141000-0c203000 rw-p 0bb41000 00:2b 4876154                            /mnt/storage/software/apps/orca-4.2.0/orca_4_2_0_linux_x86-64_openmpi314/orca
0c203000-0c77a000 rw-p 00000000 00:00 0 
0d0bc000-0d326000 rw-p 00000000 00:00 0                                  [heap]
2b40d2a5f000-2b40d3260000 rw-p 00000000 00:00 0 
2b40d3a5f000-2b40d6122000 rw-p 00000000 00:00 0 
2b40d8000000-2b40d80b3000 rw-p 00000000 00:00 0 
2b40d80b3000-2b40dc000000 ---p 00000000 00:00 0 
7ffc2ada3000-7ffc2aea4000 rw-p 00000000 00:00 0                          [stack]
7ffc2af76000-7ffc2af78000 r-xp 00000000 00:00 0                          [vdso]
ffffffffff600000-ffffffffff601000 r-xp 00000000 00:00 0                  [vsyscall]
