
                                 *****************
                                 * O   R   C   A *
                                 *****************

           --- An Ab Initio, DFT and Semiempirical electronic structure package ---

                  #######################################################
                  #                        -***-                        #
                  #          Department of theory and spectroscopy      #
                  #               Directorship: Frank Neese             #
                  #        Max Planck Institute fuer Kohlenforschung    #
                  #                Kaiser Wilhelm Platz 1               #
                  #                 D-45470 Muelheim/Ruhr               #
                  #                      Germany                        #
                  #                                                     #
                  #                  All rights reserved                #
                  #                        -***-                        #
                  #######################################################


                         Program Version 4.2.0 -  RELEASE  -


 With contributions from (in alphabetic order):
   Daniel Aravena         : Magnetic Suceptibility
   Michael Atanasov       : Ab Initio Ligand Field Theory (pilot matlab implementation)
   Alexander A. Auer      : GIAO ZORA, VPT2
   Ute Becker             : Parallelization
   Giovanni Bistoni       : ED, misc. LED, open-shell LED, HFLED
   Martin Brehm           : Molecular dynamics
   Dmytro Bykov           : SCF Hessian
   Vijay G. Chilkuri      : MRCI spin determinant printing, contributions to CSF-ICE
   Dipayan Datta          : RHF DLPNO-CCSD density
   Achintya Kumar Dutta   : EOM-CC, STEOM-CC
   Dmitry Ganyushin       : Spin-Orbit,Spin-Spin,Magnetic field MRCI
   Miquel Garcia          : C-PCM Hessian, Gaussian charge scheme
   Yang Guo               : DLPNO-NEVPT2, CIM, IAO-localization
   Andreas Hansen         : Spin unrestricted coupled pair/coupled cluster methods
   Benjamin Helmich-Paris : CASSCF linear response (MC-RPA)
   Lee Huntington         : MR-EOM, pCC
   Robert Izsak           : Overlap fitted RIJCOSX, COSX-SCS-MP3, EOM
   Christian Kollmar      : KDIIS, OOCD, Brueckner-CCSD(T), CCSD density
   Simone Kossmann        : Meta GGA functionals, TD-DFT gradient, OOMP2, MP2 Hessian
   Martin Krupicka        : AUTO-CI
   Lucas Lang             : DCDCAS
   Dagmar Lenk            : GEPOL surface, SMD
   Dimitrios Liakos       : Extrapolation schemes; Compound Job, initial MDCI parallelization
   Dimitrios Manganas     : Further ROCIS development; embedding schemes
   Dimitrios Pantazis     : SARC Basis sets
   Taras Petrenko         : DFT Hessian,TD-DFT gradient, ASA, ECA, R-Raman, ABS, FL, XAS/XES, NRVS
   Peter Pinski           : DLPNO-MP2, DLPNO-MP2 Gradient
   Christoph Reimann      : Effective Core Potentials
   Marius Retegan         : Local ZFS, SOC
   Christoph Riplinger    : Optimizer, TS searches, QM/MM, DLPNO-CCSD(T), (RO)-DLPNO pert. Triples
   Tobias Risthaus        : Range-separated hybrids, TD-DFT gradient, RPA, STAB
   Michael Roemelt        : Original ROCIS implementation
   Masaaki Saitow         : Open-shell DLPNO-CCSD energy and density
   Barbara Sandhoefer     : DKH picture change effects
   Avijit Sen             : IP-ROCIS
   Kantharuban Sivalingam : CASSCF convergence, NEVPT2, FIC-MRCI
   Bernardo de Souza      : ESD, SOC TD-DFT
   Georgi Stoychev        : AutoAux, RI-MP2 NMR
   Willem Van den Heuvel  : Paramagnetic NMR
   Boris Wezisla          : Elementary symmetry handling
   Frank Wennmohs         : Technical directorship


 We gratefully acknowledge several colleagues who have allowed us to
 interface, adapt or use parts of their codes:
   Stefan Grimme, W. Hujo, H. Kruse,             : VdW corrections, initial TS optimization,
                  C. Bannwarth                     DFT functionals, gCP, sTDA/sTD-DF
   Ed Valeev, F. Pavosevic, A. Kumar             : LibInt (2-el integral package), F12 methods
   Garnet Chan, S. Sharma, J. Yang, R. Olivares  : DMRG
   Ulf Ekstrom                                   : XCFun DFT Library
   Mihaly Kallay                                 : mrcc  (arbitrary order and MRCC methods)
   Andreas Klamt, Michael Diedenhofen            : otool_cosmo (COSMO solvation model)
   Jiri Pittner, Ondrej Demel                    : Mk-CCSD
   Frank Weinhold                                : gennbo (NPA and NBO analysis)
   Christopher J. Cramer and Donald G. Truhlar   : smd solvation model
   Lars Goerigk                                  : TD-DFT with DH, B97 family of functionals
   V. Asgeirsson, H. Jonsson                     : NEB implementation
   FAccTs GmbH                                   : IRC, NEB, NEB-TS, Multilevel, MM, QM/MM, CI optimization
   S Lehtola, MJT Oliveira, MAL Marques          : LibXC Library


 Your calculation uses the libint2 library for the computation of 2-el integrals
 For citations please refer to: http://libint.valeyev.net

 Your ORCA version has been built with support for libXC version: 4.2.3
 For citations please refer to: https://tddft.org/programs/libxc/

 This ORCA versions uses:
   CBLAS   interface :  Fast vector & matrix operations
   LAPACKE interface :  Fast linear algebra routines
   SCALAPACK package :  Parallel linear algebra routines


Your calculation utilizes the DFT-NL dispersion correction.
Cite in your paper:
Vydrov, O. A.; Van Voorhis, T. J. Chem. Phys. 2010, 133, 244103
Hujo, W.; Grimme, S. J. Chem. Theory Comput. 2011, 7, 3866 
   

----- Orbital basis set information -----
Your calculation utilizes the basis: def2-TZVPPD
   F. Weigend and R. Ahlrichs, Phys. Chem. Chem. Phys. 7, 3297 (2005).
   D. Rappoport and F. Furche, J. Chem. Phys. 133 134105 (2010).

----- AuxJK basis set information -----
Your calculation utilizes the auxiliary basis: def2/JK
   H-Ba, Hf-Rn: F. Weigend, J. Comput. Chem. 29, 167 (2008).

================================================================================
                                        WARNINGS
                       Please study these warnings very carefully!
================================================================================

INFO   : Found keyword 'NumGrad' for Energy calculation
  ===> : Setting RunTyp to EnGrad

WARNING: Numerical Gradient with sloppy Convergence Criteria    
         Your results may be not reliable!                      
         Please choose at least TightSCF!                       

WARNING: your system is open-shell and RHF/RKS was chosen
  ===> : WILL SWITCH to UHF/UKS


INFO   : the flag for use of LIBINT has been found!

================================================================================
                                       INPUT FILE
================================================================================
NAME = CH3.in
|  1> #
|  2> # CH3 wB97M-V/Def2-TZVPPD
|  3> #
|  4> ! wb97m-v def2-tzvppd def2/jk grid4 nofinalgrid numgrad
|  5> 
|  6> *xyz 0 2
|  7> C          0.00000        0.00000        0.00000
|  8> H          0.00000        0.00000        1.07732
|  9> H          0.93298        0.00000       -0.53866
| 10> H         -0.93298        0.00000       -0.53866
| 11> *
| 12> 
| 13> %maxcore 5000
| 14> 
| 15> %pal
| 16> nprocs = 28
| 17> end
| 18> 
| 19> 
| 20>                          ****END OF INPUT****
================================================================================

                     *******************************
                     * Energy+Gradient Calculation *
                     *******************************

---------------------------------
CARTESIAN COORDINATES (ANGSTROEM)
---------------------------------
  C      0.000000    0.000000    0.000000
  H      0.000000    0.000000    1.077320
  H      0.932980    0.000000   -0.538660
  H     -0.932980    0.000000   -0.538660

----------------------------
CARTESIAN COORDINATES (A.U.)
----------------------------
  NO LB      ZA    FRAG     MASS         X           Y           Z
   0 C     6.0000    0    12.011    0.000000    0.000000    0.000000
   1 H     1.0000    0     1.008    0.000000    0.000000    2.035840
   2 H     1.0000    0     1.008    1.763077    0.000000   -1.017920
   3 H     1.0000    0     1.008   -1.763077    0.000000   -1.017920

--------------------------------
INTERNAL COORDINATES (ANGSTROEM)
--------------------------------
 C      0   0   0     0.000000000000     0.00000000     0.00000000
 H      1   0   0     1.077320000000     0.00000000     0.00000000
 H      1   2   0     1.077314381228   120.00017253     0.00000000
 H      1   2   3     1.077314381228   120.00017253   180.00000121

---------------------------
INTERNAL COORDINATES (A.U.)
---------------------------
 C      0   0   0     0.000000000000     0.00000000     0.00000000
 H      1   0   0     2.035839758596     0.00000000     0.00000000
 H      1   2   0     2.035829140655   120.00017253     0.00000000
 H      1   2   3     2.035829140655   120.00017253   180.00000121

---------------------
BASIS SET INFORMATION
---------------------
There are 2 groups of distinct atoms

 Group   1 Type C   : 12s6p3d1f contracted to 6s3p3d1f pattern {621111/411/111/1}
 Group   2 Type H   : 5s3p1d contracted to 3s3p1d pattern {311/111/1}

Atom   0C    basis set group =>   1
Atom   1H    basis set group =>   2
Atom   2H    basis set group =>   2
Atom   3H    basis set group =>   2
----------------------------------
AUXILIARY/JK BASIS SET INFORMATION
----------------------------------
There are 2 groups of distinct atoms

 Group   1 Type C   : 14s10p6d2f1g contracted to 10s8p5d1f1g pattern {5111111111/31111111/21111/2/1}
 Group   2 Type H   : 4s2p2d contracted to 2s2p2d pattern {31/11/11}

Atom   0C    basis set group =>   1
Atom   1H    basis set group =>   2
Atom   2H    basis set group =>   2
Atom   3H    basis set group =>   2


           ************************************************************
           *        Program running with 28 parallel MPI-processes    *
           *              working on a common directory               *
           ************************************************************
------------------------------------------------------------------------------
                           ORCA GTO INTEGRAL CALCULATION
------------------------------------------------------------------------------

                         BASIS SET STATISTICS AND STARTUP INFO

 # of primitive gaussian shells          ...   49
 # of primitive gaussian functions       ...  109
 # of contracted shells                  ...   34
 # of contracted basis functions         ...   88
 Highest angular momentum                ...    3
 Maximum contraction depth               ...    6
 Integral package used                   ... LIBINT
 Integral threshhold            Thresh   ...  1.000e-10
 Primitive cut-off              TCut     ...  1.000e-11


------------------------------ INTEGRAL EVALUATION ----------------------------


 * One electron integrals 
 Pre-screening matrix                    ... done
 Shell pair data                         ... done (   0.000 sec)



           ************************************************************
           *        Program running with 28 parallel MPI-processes    *
           *              working on a common directory               *
           ************************************************************
-------------------------------------------------------------------------------
                                 ORCA SCF
-------------------------------------------------------------------------------

------------
SCF SETTINGS
------------
Hamiltonian:
 Density Functional     Method          .... DFT(GTOs)
 Exchange Functional    Exchange        .... WB97M-V
 Correlation Functional Correlation     .... WB97M-V
 Gradients option       PostSCFGGA      .... off
 Hybrid DFT is turned on
   Fraction HF Exchange ScalHFX         ....  0.150000
   Scaling of DF-GGA-X  ScalDFX         ....  0.000000
   Scaling of DF-GGA-C  ScalDFC         ....  1.000000
   Scaling of DF-LDA-C  ScalLDAC        ....  1.000000
   Perturbative correction              ....  0.000000
   Density functional embedding theory  .... OFF
 Long-range corrected/Screened/Range-Separated Hybrid DFT is turned on
   Amount of maximum screened exact exchange              ....  0.850000
   Range separation parameter mu (erf(mu*r12)/r12)        ....  0.300000
   NL short-range parameter             ....  6.000000
   NL long-range parameter              ....  0.010000


General Settings:
 Integral files         IntName         .... CH3
 Hartree-Fock type      HFTyp           .... UHF
 Total Charge           Charge          ....    0
 Multiplicity           Mult            ....    2
 Number of Electrons    NEL             ....    9
 Basis Dimension        Dim             ....   88
 Nuclear Repulsion      ENuc            ....      9.6923735442 Eh

Convergence Acceleration:
 DIIS                   CNVDIIS         .... on
   Start iteration      DIISMaxIt       ....    12
   Startup error        DIISStart       ....  0.200000
   # of expansion vecs  DIISMaxEq       ....     5
   Bias factor          DIISBfac        ....   1.050
   Max. coefficient     DIISMaxC        ....  10.000
 Newton-Raphson         CNVNR           .... off
 SOSCF                  CNVSOSCF        .... off
 Level Shifting         CNVShift        .... on
   Level shift para.    LevelShift      ....    0.2500
   Turn off err/grad.   ShiftErr        ....    0.0010
 Zerner damping         CNVZerner       .... off
 Static damping         CNVDamp         .... on
   Fraction old density DampFac         ....    0.7000
   Max. Damping (<1)    DampMax         ....    0.9800
   Min. Damping (>=0)   DampMin         ....    0.0000
   Turn off err/grad.   DampErr         ....    0.1000
 Fernandez-Rico         CNVRico         .... off

SCF Procedure:
 Maximum # iterations   MaxIter         ....   125
 SCF integral mode      SCFMode         .... Direct
   Integral package                     .... LIBINT
 Reset frequency        DirectResetFreq ....    20
 Integral Threshold     Thresh          ....  1.000e-10 Eh
 Primitive CutOff       TCut            ....  1.000e-11 Eh

Convergence Tolerance:
 Convergence Check Mode ConvCheckMode   .... Total+1el-Energy
 Convergence forced     ConvForced      .... 0
 Energy Change          TolE            ....  1.000e-06 Eh
 1-El. energy change                    ....  1.000e-03 Eh
 DIIS Error             TolErr          ....  1.000e-06


Diagonalization of the overlap matrix:
Smallest eigenvalue                        ... 6.935e-05
Time for diagonalization                   ...    0.002 sec
Threshold for overlap eigenvalues          ... 1.000e-08
Number of eigenvalues below threshold      ... 0
Time for construction of square roots      ...    0.044 sec
Total time needed                          ...    0.046 sec

-------------------
DFT GRID GENERATION
-------------------

General Integration Accuracy     IntAcc      ...  4.670
Radial Grid Type                 RadialGrid  ... Gauss-Chebyshev
Angular Grid (max. acc.)         AngularGrid ... Lebedev-302
Angular grid pruning method      GridPruning ... 3 (G Style)
Weight generation scheme         WeightScheme... Becke
Basis function cutoff            BFCut       ...    1.0000e-10
Integration weight cutoff        WCut        ...    1.0000e-14
Grids for H and He will be reduced by one unit

# of grid points (after initial pruning)     ...  16394 (   0.0 sec)
# of grid points (after weights+screening)   ...  16149 (   0.0 sec)
nearest neighbour list constructed           ...    0.0 sec
Grid point re-assignment to atoms done       ...    0.0 sec
Grid point division into batches done        ...    0.1 sec
Reduced shell lists constructed in    0.1 sec

Total number of grid points                  ...    16149
Total number of batches                      ...      253
Average number of points per batch           ...       63
Average number of grid points per atom       ...     4037
Average number of shells per batch           ...    30.00 (88.24%)
Average number of basis functions per batch  ...    79.09 (89.88%)
Average number of large shells per batch     ...    28.18 (93.94%)
Average number of large basis fcns per batch ...    74.73 (94.48%)
Maximum spatial batch extension              ...   2.57, 19.60,  2.88 au
Average spatial batch extension              ...   0.08,  0.20,  0.07 au

Time for grid setup =    1.108 sec

------------------------------
INITIAL GUESS: MODEL POTENTIAL
------------------------------
Loading Hartree-Fock densities                     ... done
Calculating cut-offs                               ... done
Setting up the integral package                    ... done
Initializing the effective Hamiltonian             ... done
Starting the Coulomb interaction                   ... done (   0.0 sec)
Reading the grid                                   ... done
Mapping shells                                     ... done
Starting the XC term evaluation                    ... done (   0.0 sec)
  promolecular density results
     # of electrons  =      8.998546177
     EX              =     -5.933475092
     EC              =     -0.258962079
     EX+EC           =     -6.192437171
Transforming the Hamiltonian                       ... done (   0.1 sec)
Diagonalizing the Hamiltonian                      ... done (   0.0 sec)
Back transforming the eigenvectors                 ... done (   0.0 sec)
Now organizing SCF variables                       ... done
                      ------------------
                      INITIAL GUESS DONE (   1.5 sec)
                      ------------------
--------------
SCF ITERATIONS
--------------
ITER       Energy         Delta-E        Max-DP      RMS-DP      [F,P]     Damp
               ***  Starting incremental Fock matrix formation  ***
  0    -39.8158126839   0.000000000000 0.01799527  0.00065565  0.1610988 0.7000
  1    -39.8311720080  -0.015359324078 0.01787254  0.00060200  0.1003239 0.7000
                               ***Turning on DIIS***
  2    -39.8396241751  -0.008452167185 0.04717684  0.00155029  0.0544764 0.0000
  3    -39.8536341240  -0.014009948884 0.01198816  0.00030848  0.0341019 0.0000
  4    -39.8556156062  -0.001981482146 0.00326952  0.00009092  0.0039539 0.0000
  5    -39.8557136814  -0.000098075237 0.00178627  0.00004209  0.0014045 0.0000
  6    -39.8557425251  -0.000028843699 0.00133408  0.00003058  0.0006104 0.0000
  7    -39.8557622496  -0.000019724489 0.00055001  0.00001096  0.0001263 0.0000
  8    -39.8557659641  -0.000003714461 0.00005814  0.00000191  0.0000146 0.0000
                 **** Energy Check signals convergence ****

               *****************************************************
               *                     SUCCESS                       *
               *           SCF CONVERGED AFTER   9 CYCLES          *
               *****************************************************


Setting up the DFT-NL grid :

General Integration Accuracy     IntAcc      ...  4.340
Radial Grid Type                 RadialGrid  ... Gauss-Chebyshev
Angular Grid (max. acc.)         AngularGrid ... Lebedev-110
Angular grid pruning method      GridPruning ... 3 (G Style)
Weight generation scheme         WeightScheme... Becke
Basis function cutoff            BFCut       ...    1.0000e-10
Integration weight cutoff        WCut        ...    1.0000e-14
Grids for H and He will be reduced by one unit

# of grid points (after initial pruning)     ...   4038 (   0.0 sec)
# of grid points (after weights+screening)   ...   3969 (   0.0 sec)
nearest neighbour list constructed           ...    0.0 sec
Grid point re-assignment to atoms done       ...    0.0 sec
Grid point division into batches done        ...    0.0 sec
Reduced shell lists constructed in    0.0 sec

Total number of grid points                  ...     3969
Total number of batches                      ...       63
Average number of points per batch           ...       63
Average number of grid points per atom       ...      992
Average number of shells per batch           ...    25.00 (73.53%)
Average number of basis functions per batch  ...    65.50 (74.43%)
Average number of large shells per batch     ...    25.00 (100.00%)
Average number of large basis fcns per batch ...    65.50 (100.00%)
Maximum spatial batch extension              ...   2.26, 20.53,  2.78 au
Average spatial batch extension              ...   0.09,  0.69,  0.11 au

Final grid set up in    2.5 sec

-------------------------------------------------------------------------------
                         DFT-NL dispersion correction                          
-------------------------------------------------------------------------------

SC Energy -39.855766005 
NL    Energy 0.037662596 
SC+NL Energy -39.818103410 
NL done in    1.6 sec
-------------------------------------------------------------------------------

----------------
TOTAL SCF ENERGY
----------------

Total Energy       :          -39.81810341 Eh           -1083.50568 eV

Components:
Nuclear Repulsion  :            9.69237354 Eh             263.74289 eV
Electronic Energy  :          -49.51047695 Eh           -1347.24857 eV
One Electron Energy:          -71.65570037 Eh           -1949.85074 eV
Two Electron Energy:           22.14522341 Eh             602.60216 eV

Virial components:
Potential Energy   :          -79.50579868 Eh           -2163.46277 eV
Kinetic Energy     :           39.68769527 Eh            1079.95709 eV
Virial Ratio       :            2.00328586


DFT components:
N(Alpha)           :        4.999997535812 electrons
N(Beta)            :        4.000000023505 electrons
N(Total)           :        8.999997559317 electrons
E(X)               :       -4.163029081018 Eh       
E(C)               :       -0.219853180584 Eh       
NL Energy, E(C,NL) :        0.037662595837 Eh       
E(XC)              :       -4.345219665766 Eh       
DFET-embed. en.    :        0.000000000000 Eh       

---------------
SCF CONVERGENCE
---------------

  Last Energy change         ...   -4.1344e-08  Tolerance :   1.0000e-06
  Last MAX-Density change    ...    2.0076e-05  Tolerance :   1.0000e-05
  Last RMS-Density change    ...    5.7595e-07  Tolerance :   1.0000e-06
  Last DIIS Error            ...    2.0862e-06  Tolerance :   1.0000e-06

             **** THE GBW FILE WAS UPDATED (CH3.gbw) ****
             **** DENSITY FILE WAS UPDATED (CH3.scfp) ****
             **** ENERGY FILE WAS UPDATED (CH3.en.tmp) ****
----------------------
UHF SPIN CONTAMINATION
----------------------

Warning: in a DFT calculation there is little theoretical justification to 
         calculate <S**2> as in Hartree-Fock theory. We will do it anyways
         but you should keep in mind that the values have only limited relevance

Expectation value of <S**2>     :     0.753341
Ideal value S*(S+1) for S=0.5   :     0.750000
Deviation                       :     0.003341

             **** THE GBW FILE WAS UPDATED (CH3.gbw) ****
             **** DENSITY FILE WAS UPDATED (CH3.scfp) ****
----------------
ORBITAL ENERGIES
----------------
                 SPIN UP ORBITALS
  NO   OCC          E(Eh)            E(eV) 
   0   1.0000     -10.356590      -281.8171 
   1   1.0000      -0.807683       -21.9782 
   2   1.0000      -0.530841       -14.4449 
   3   1.0000      -0.530840       -14.4449 
   4   1.0000      -0.330771        -9.0007 
   5   0.0000       0.047396         1.2897 
   6   0.0000       0.126999         3.4558 
   7   0.0000       0.127002         3.4559 
   8   0.0000       0.169829         4.6213 
   9   0.0000       0.173937         4.7331 
  10   0.0000       0.173957         4.7336 
  11   0.0000       0.208008         5.6602 
  12   0.0000       0.232920         6.3381 
  13   0.0000       0.232926         6.3382 
  14   0.0000       0.287437         7.8215 
  15   0.0000       0.324699         8.8355 
  16   0.0000       0.335682         9.1344 
  17   0.0000       0.353203         9.6111 
  18   0.0000       0.353207         9.6112 
  19   0.0000       0.357048         9.7158 
  20   0.0000       0.357095         9.7170 
  21   0.0000       0.442988        12.0543 
  22   0.0000       0.443032        12.0555 
  23   0.0000       0.471145        12.8205 
  24   0.0000       0.486185        13.2298 
  25   0.0000       0.497141        13.5279 
  26   0.0000       0.497147        13.5281 
  27   0.0000       0.740867        20.1600 
  28   0.0000       0.765731        20.8366 
  29   0.0000       0.765760        20.8374 
  30   0.0000       0.810978        22.0678 
  31   0.0000       0.810985        22.0680 
  32   0.0000       0.959683        26.1143 
  33   0.0000       0.959727        26.1155 
  34   0.0000       1.054839        28.7036 
  35   0.0000       1.059414        28.8281 
  36   0.0000       1.072036        29.1716 
  37   0.0000       1.281250        34.8646 
  38   0.0000       1.281290        34.8657 
  39   0.0000       1.460240        39.7352 
  40   0.0000       1.479901        40.2701 
  41   0.0000       1.479983        40.2724 
  42   0.0000       1.516462        41.2650 
  43   0.0000       1.516522        41.2667 
  44   0.0000       1.680600        45.7315 
  45   0.0000       1.770047        48.1654 
  46   0.0000       1.846428        50.2439 
  47   0.0000       1.846476        50.2452 
  48   0.0000       2.629306        71.5471 
  49   0.0000       2.629317        71.5474 
  50   0.0000       2.730615        74.3038 
  51   0.0000       2.732233        74.3478 
  52   0.0000       2.732264        74.3487 
  53   0.0000       2.933298        79.8191 
  54   0.0000       2.965717        80.7013 
  55   0.0000       2.965756        80.7023 
  56   0.0000       2.980068        81.0918 
  57   0.0000       3.055195        83.1361 
  58   0.0000       3.083826        83.9152 
  59   0.0000       3.083888        83.9169 
  60   0.0000       3.267299        88.9077 
  61   0.0000       3.527423        95.9861 
  62   0.0000       3.527442        95.9866 
  63   0.0000       3.601950        98.0140 
  64   0.0000       3.731772       101.5467 
  65   0.0000       3.731788       101.5471 
  66   0.0000       3.746813       101.9560 
  67   0.0000       3.746845       101.9568 
  68   0.0000       3.973569       108.1263 
  69   0.0000       4.005021       108.9822 
  70   0.0000       4.005335       108.9907 
  71   0.0000       4.017953       109.3341 
  72   0.0000       4.017956       109.3341 
  73   0.0000       4.197322       114.2150 
  74   0.0000       4.197326       114.2150 
  75   0.0000       4.583653       124.7275 
  76   0.0000       4.681578       127.3922 
  77   0.0000       4.681604       127.3929 
  78   0.0000       4.943161       134.5103 
  79   0.0000       4.943170       134.5105 
  80   0.0000       4.976914       135.4287 
  81   0.0000       4.976937       135.4294 
  82   0.0000       5.417669       147.4223 
  83   0.0000       5.453904       148.4083 
  84   0.0000       5.453909       148.4084 
  85   0.0000       5.590549       152.1266 
  86   0.0000       6.198666       168.6743 
  87   0.0000      23.772360       646.8788 

                 SPIN DOWN ORBITALS
  NO   OCC          E(Eh)            E(eV) 
   0   1.0000     -10.343415      -281.4586 
   1   1.0000      -0.769024       -20.9262 
   2   1.0000      -0.517069       -14.0702 
   3   1.0000      -0.517068       -14.0701 
   4   0.0000      -0.012114        -0.3296 
   5   0.0000       0.009768         0.2658 
   6   0.0000       0.122580         3.3356 
   7   0.0000       0.124876         3.3981 
   8   0.0000       0.124889         3.3984 
   9   0.0000       0.167500         4.5579 
  10   0.0000       0.167556         4.5594 
  11   0.0000       0.199921         5.4401 
  12   0.0000       0.200012         5.4426 
  13   0.0000       0.210000         5.7144 
  14   0.0000       0.277289         7.5454 
  15   0.0000       0.320129         8.7112 
  16   0.0000       0.323136         8.7930 
  17   0.0000       0.323342         8.7986 
  18   0.0000       0.332072         9.0361 
  19   0.0000       0.361225         9.8294 
  20   0.0000       0.361234         9.8297 
  21   0.0000       0.426072        11.5940 
  22   0.0000       0.426177        11.5969 
  23   0.0000       0.429760        11.6944 
  24   0.0000       0.469501        12.7758 
  25   0.0000       0.470644        12.8069 
  26   0.0000       0.470809        12.8114 
  27   0.0000       0.746425        20.3113 
  28   0.0000       0.773543        21.0492 
  29   0.0000       0.773582        21.0502 
  30   0.0000       0.836255        22.7557 
  31   0.0000       0.836306        22.7570 
  32   0.0000       0.960608        26.1395 
  33   0.0000       0.960678        26.1414 
  34   0.0000       1.061572        28.8868 
  35   0.0000       1.068908        29.0865 
  36   0.0000       1.102746        30.0072 
  37   0.0000       1.299166        35.3521 
  38   0.0000       1.299202        35.3531 
  39   0.0000       1.464761        39.8582 
  40   0.0000       1.487060        40.4650 
  41   0.0000       1.487113        40.4664 
  42   0.0000       1.522109        41.4187 
  43   0.0000       1.522171        41.4204 
  44   0.0000       1.747470        47.5511 
  45   0.0000       1.802886        49.0590 
  46   0.0000       1.878765        51.1238 
  47   0.0000       1.878875        51.1268 
  48   0.0000       2.656701        72.2925 
  49   0.0000       2.656730        72.2933 
  50   0.0000       2.748761        74.7976 
  51   0.0000       2.800226        76.1980 
  52   0.0000       2.800253        76.1988 
  53   0.0000       3.010553        81.9213 
  54   0.0000       3.010573        81.9219 
  55   0.0000       3.028323        82.4048 
  56   0.0000       3.033479        82.5452 
  57   0.0000       3.143939        85.5509 
  58   0.0000       3.143990        85.5523 
  59   0.0000       3.146133        85.6106 
  60   0.0000       3.280686        89.2720 
  61   0.0000       3.558796        96.8398 
  62   0.0000       3.558834        96.8408 
  63   0.0000       3.628370        98.7330 
  64   0.0000       3.755736       102.1988 
  65   0.0000       3.755759       102.1994 
  66   0.0000       3.792661       103.2035 
  67   0.0000       3.792710       103.2049 
  68   0.0000       3.996291       108.7446 
  69   0.0000       4.002026       108.9007 
  70   0.0000       4.011354       109.1545 
  71   0.0000       4.040278       109.9416 
  72   0.0000       4.040298       109.9421 
  73   0.0000       4.215721       114.7156 
  74   0.0000       4.215725       114.7157 
  75   0.0000       4.640084       126.2631 
  76   0.0000       4.723492       128.5327 
  77   0.0000       4.723522       128.5336 
  78   0.0000       4.978310       135.4667 
  79   0.0000       4.978333       135.4673 
  80   0.0000       5.055269       137.5609 
  81   0.0000       5.055305       137.5618 
  82   0.0000       5.525979       150.3695 
  83   0.0000       5.533932       150.5859 
  84   0.0000       5.533961       150.5867 
  85   0.0000       5.648575       153.7055 
  86   0.0000       6.251007       170.0986 
  87   0.0000      23.793191       647.4456 

                    ********************************
                    * MULLIKEN POPULATION ANALYSIS *
                    ********************************

--------------------------------------------
MULLIKEN ATOMIC CHARGES AND SPIN POPULATIONS
--------------------------------------------
   0 C :   -0.800289    0.759036
   1 H :    0.266997    0.080534
   2 H :    0.266646    0.080215
   3 H :    0.266646    0.080216
Sum of atomic charges         :   -0.0000000
Sum of atomic spin populations:    1.0000000

-----------------------------------------------------
MULLIKEN REDUCED ORBITAL CHARGES AND SPIN POPULATIONS
-----------------------------------------------------
CHARGE
  0 C s       :     3.556767  s :     3.556767
      pz      :     1.143998  p :     3.200435
      px      :     1.143714
      py      :     0.912724
      dz2     :     0.015147  d :     0.041904
      dxz     :     0.018592
      dyz     :    -0.000000
      dx2y2   :     0.008165
      dxy     :     0.000000
      f0      :     0.000383  f :     0.001183
      f+1     :     0.000025
      f-1     :    -0.000000
      f+2     :     0.000393
      f-2     :    -0.000000
      f+3     :     0.000383
      f-3     :    -0.000001
  1 H s       :     0.680024  s :     0.680024
      pz      :     0.006373  p :     0.050815
      px      :     0.016219
      py      :     0.028223
      dz2     :     0.000571  d :     0.002163
      dxz     :     0.000722
      dyz     :     0.000869
      dx2y2   :     0.000002
      dxy     :     0.000000
  2 H s       :     0.680408  s :     0.680408
      pz      :     0.013734  p :     0.050783
      px      :     0.008825
      py      :     0.028224
      dz2     :     0.000416  d :     0.002164
      dxz     :     0.000504
      dyz     :     0.000217
      dx2y2   :     0.000375
      dxy     :     0.000652
  3 H s       :     0.680408  s :     0.680408
      pz      :     0.013734  p :     0.050783
      px      :     0.008825
      py      :     0.028224
      dz2     :     0.000416  d :     0.002164
      dxz     :     0.000504
      dyz     :     0.000217
      dx2y2   :     0.000375
      dxy     :     0.000652

SPIN
  0 C s       :    -0.049384  s :    -0.049384
      pz      :    -0.042158  p :     0.828625
      px      :    -0.041940
      py      :     0.912724
      dz2     :    -0.006662  d :    -0.019076
      dxz     :    -0.007521
      dyz     :    -0.000000
      dx2y2   :    -0.004893
      dxy     :     0.000000
      f0      :    -0.000287  f :    -0.001130
      f+1     :    -0.000030
      f-1     :    -0.000000
      f+2     :    -0.000363
      f-2     :    -0.000000
      f+3     :    -0.000448
      f-3     :    -0.000001
  1 H s       :     0.062836  s :     0.062836
      pz      :    -0.002700  p :     0.016653
      px      :    -0.008870
      py      :     0.028223
      dz2     :    -0.000003  d :     0.001045
      dxz     :     0.000178
      dyz     :     0.000869
      dx2y2   :     0.000001
      dxy     :     0.000000
  2 H s       :     0.062486  s :     0.062486
      pz      :    -0.007332  p :     0.016684
      px      :    -0.004208
      py      :     0.028224
      dz2     :     0.000105  d :     0.001045
      dxz     :     0.000059
      dyz     :     0.000217
      dx2y2   :     0.000012
      dxy     :     0.000652
  3 H s       :     0.062488  s :     0.062488
      pz      :    -0.007332  p :     0.016684
      px      :    -0.004208
      py      :     0.028224
      dz2     :     0.000105  d :     0.001045
      dxz     :     0.000059
      dyz     :     0.000217
      dx2y2   :     0.000012
      dxy     :     0.000652


                     *******************************
                     * LOEWDIN POPULATION ANALYSIS *
                     *******************************

-------------------------------------------
LOEWDIN ATOMIC CHARGES AND SPIN POPULATIONS
-------------------------------------------
   0 C :    0.361144    0.716656
   1 H :   -0.120371    0.094451
   2 H :   -0.120386    0.094447
   3 H :   -0.120386    0.094447

----------------------------------------------------
LOEWDIN REDUCED ORBITAL CHARGES AND SPIN POPULATIONS
----------------------------------------------------
CHARGE
  0 C s       :     2.788080  s :     2.788080
      pz      :     1.002297  p :     2.698781
      px      :     1.002286
      py      :     0.694199
      dz2     :     0.051649  d :     0.142390
      dxz     :     0.064201
      dyz     :     0.000000
      dx2y2   :     0.026540
      dxy     :     0.000000
      f0      :     0.003700  f :     0.009606
      f+1     :     0.000121
      f-1     :     0.000368
      f+2     :     0.002993
      f-2     :     0.000000
      f+3     :     0.001812
      f-3     :     0.000613
  1 H s       :     0.760339  s :     0.760339
      pz      :     0.150372  p :     0.329165
      px      :     0.087108
      py      :     0.091685
      dz2     :     0.011463  d :     0.030867
      dxz     :     0.009479
      dyz     :     0.009922
      dx2y2   :     0.000003
      dxy     :     0.000000
  2 H s       :     0.760352  s :     0.760352
      pz      :     0.102926  p :     0.329167
      px      :     0.134556
      py      :     0.091685
      dz2     :     0.005517  d :     0.030867
      dxz     :     0.008836
      dyz     :     0.002481
      dx2y2   :     0.006592
      dxy     :     0.007442
  3 H s       :     0.760352  s :     0.760352
      pz      :     0.102926  p :     0.329167
      px      :     0.134556
      py      :     0.091685
      dz2     :     0.005517  d :     0.030867
      dxz     :     0.008836
      dyz     :     0.002481
      dx2y2   :     0.006592
      dxy     :     0.007442

SPIN
  0 C s       :     0.010094  s :     0.010094
      pz      :     0.011696  p :     0.717596
      px      :     0.011701
      py      :     0.694199
      dz2     :    -0.003522  d :    -0.010636
      dxz     :    -0.003448
      dyz     :     0.000000
      dx2y2   :    -0.003666
      dxy     :     0.000000
      f0      :    -0.000484  f :    -0.000398
      f+1     :    -0.000027
      f-1     :     0.000368
      f+2     :    -0.000463
      f-2     :    -0.000000
      f+3     :    -0.000405
      f-3     :     0.000613
  1 H s       :    -0.011986  s :    -0.011986
      pz      :     0.004181  p :     0.095424
      px      :    -0.000442
      py      :     0.091685
      dz2     :     0.000556  d :     0.011012
      dxz     :     0.000535
      dyz     :     0.009922
      dx2y2   :    -0.000000
      dxy     :     0.000000
  2 H s       :    -0.011990  s :    -0.011990
      pz      :     0.000713  p :     0.095424
      px      :     0.003026
      py      :     0.091685
      dz2     :     0.000330  d :     0.011013
      dxz     :     0.000527
      dyz     :     0.002481
      dx2y2   :     0.000233
      dxy     :     0.007442
  3 H s       :    -0.011990  s :    -0.011990
      pz      :     0.000713  p :     0.095424
      px      :     0.003026
      py      :     0.091685
      dz2     :     0.000330  d :     0.011013
      dxz     :     0.000527
      dyz     :     0.002481
      dx2y2   :     0.000233
      dxy     :     0.007442


                      *****************************
                      * MAYER POPULATION ANALYSIS *
                      *****************************

  NA   - Mulliken gross atomic population
  ZA   - Total nuclear charge
  QA   - Mulliken gross atomic charge
  VA   - Mayer's total valence
  BVA  - Mayer's bonded valence
  FA   - Mayer's free valence

  ATOM       NA         ZA         QA         VA         BVA        FA
  0 C      6.8003     6.0000    -0.8003     3.6248     2.7749     0.8499
  1 H      0.7330     1.0000     0.2670     0.9510     0.9481     0.0029
  2 H      0.7334     1.0000     0.2666     0.9512     0.9483     0.0029
  3 H      0.7334     1.0000     0.2666     0.9512     0.9483     0.0029

  Mayer bond orders larger than 0.100000
B(  0-C ,  1-H ) :   0.9249 B(  0-C ,  2-H ) :   0.9250 B(  0-C ,  3-H ) :   0.9250 


-------
TIMINGS
-------

Total SCF time: 0 days 0 hours 1 min 18 sec 

Total time                  ....      78.848 sec
Sum of individual times     ....      76.239 sec  ( 96.7%)

Fock matrix formation       ....      70.202 sec  ( 89.0%)
  XC integration            ....      68.917 sec  ( 98.2% of F)
    Basis function eval.    ....       0.021 sec  (  0.0% of XC)
    Density eval.           ....       0.046 sec  (  0.1% of XC)
    XC-Functional eval.     ....       0.019 sec  (  0.0% of XC)
    XC-Potential eval.      ....       0.085 sec  (  0.1% of XC)
Diagonalization             ....       1.400 sec  (  1.8%)
Density matrix formation    ....       0.007 sec  (  0.0%)
Population analysis         ....       0.575 sec  (  0.7%)
Initial guess               ....       0.372 sec  (  0.5%)
Orbital Transformation      ....       0.000 sec  (  0.0%)
Orbital Orthonormalization  ....       0.000 sec  (  0.0%)
DIIS solution               ....       0.083 sec  (  0.1%)
Grid generation             ....       3.601 sec  (  4.6%)

-------------------------   --------------------
FINAL SINGLE POINT ENERGY       -39.818103409561
-------------------------   --------------------


----------------------------------------------------------------------------
                           ORCA NUMERICAL GRADIENT
                              (28-process run)
----------------------------------------------------------------------------

I state                        ... 1
J state                        ... 0
Number of atoms                ... 4
Derivative's order of accuracy ... 2
Central differences            ... used
Number of displacements        ... 24
Numerical increment            ... 5.000e-03 bohr
Translation invariance         ... used

The output will be reduced. Please look at the following files:
SCF program output             ... >CH3.lastscf
Integral program output        ... >CH3.lastint
Gradient program output        ... >CH3.lastgrad


     Note:   There are more processes than displacements to do
     ===>:   Reducing number of processes to   9

             <<<Displacing   4/coordinate 1 (+)>>>
             <<<Displacing   2/coordinate 3 (+)>>>
             <<<Displacing   4/coordinate 2 (+)>>>
             <<<Displacing   2/coordinate 1 (+)>>>
             <<<Displacing   3/coordinate 1 (+)>>>
             <<<Displacing   3/coordinate 3 (+)>>>
             <<<Displacing   4/coordinate 3 (+)>>>
             <<<Displacing   2/coordinate 2 (+)>>>
             <<<Displacing   3/coordinate 2 (+)>>>
             <<<Displacing   4/coordinate 2 (-)>>>
             <<<Displacing   3/coordinate 1 (-)>>>
             <<<Displacing   3/coordinate 2 (-)>>>
             <<<Displacing   2/coordinate 1 (-)>>>
             <<<Displacing   4/coordinate 3 (-)>>>
             <<<Displacing   2/coordinate 2 (-)>>>
             <<<Displacing   2/coordinate 3 (-)>>>
             <<<Displacing   4/coordinate 1 (-)>>>
             <<<Displacing   3/coordinate 3 (-)>>>

------------------------------
CARTESIAN GRADIENT (NUMERICAL)
-------------------------------
   1   C   :    0.000000160    0.000000949    0.000044246
   2   H   :   -0.000000080    0.000000076    0.000195608
   3   H   :    0.000190054   -0.000000607   -0.000120021
   4   H   :   -0.000190135   -0.000000417   -0.000119833

Norm of the cartesian gradient     ...    0.000375844
RMS gradient                       ...    0.000108497
MAX gradient                       ...    0.000195608

-------
TIMINGS
-------

Total numerical gradient time      ...       43.536 sec


                            ***************************************
                            *     ORCA property calculations      *
                            ***************************************

                                    ---------------------
                                    Active property flags
                                    ---------------------
   (+) Dipole Moment


------------------------------------------------------------------------------
                       ORCA ELECTRIC PROPERTIES CALCULATION
------------------------------------------------------------------------------

Dipole Moment Calculation                       ... on
Quadrupole Moment Calculation                   ... off
Polarizability Calculation                      ... off
GBWName                                         ... CH3.gbw
Electron density file                           ... CH3.scfp
The origin for moment calculation is the CENTER OF MASS  = ( 0.000000,  0.000000  0.000000)

-------------
DIPOLE MOMENT
-------------
                                X             Y             Z
Electronic contribution:      0.00000       0.00000      -0.00001
Nuclear contribution   :      0.00000       0.00000       0.00000
                        -----------------------------------------
Total Dipole Moment    :      0.00000       0.00000      -0.00001
                        -----------------------------------------
Magnitude (a.u.)       :      0.00001
Magnitude (Debye)      :      0.00002



--------------------
Rotational spectrum 
--------------------
 
Rotational constants in cm-1:     9.606423     9.606289     4.803178 
Rotational constants in MHz : 287993.315842 287989.310434 143995.656562 

 Dipole components along the rotational axes: 
x,y,z [a.u.] :    -0.000008     0.000000     0.000000 
x,y,z [Debye]:    -0.000019     0.000000     0.000000 

 

Timings for individual modules:

Sum of individual times         ...      126.042 sec (=   2.101 min)
GTO integral calculation        ...        2.918 sec (=   0.049 min)   2.3 %
SCF iterations                  ...       79.588 sec (=   1.326 min)  63.1 %
SCF Gradient evaluation         ...       43.536 sec (=   0.726 min)  34.5 %
                             ****ORCA TERMINATED NORMALLY****
TOTAL RUN TIME: 0 days 0 hours 6 minutes 6 seconds 439 msec
