
                                 *****************
                                 * O   R   C   A *
                                 *****************

           --- An Ab Initio, DFT and Semiempirical electronic structure package ---

                  #######################################################
                  #                        -***-                        #
                  #          Department of theory and spectroscopy      #
                  #               Directorship: Frank Neese             #
                  #        Max Planck Institute fuer Kohlenforschung    #
                  #                Kaiser Wilhelm Platz 1               #
                  #                 D-45470 Muelheim/Ruhr               #
                  #                      Germany                        #
                  #                                                     #
                  #                  All rights reserved                #
                  #                        -***-                        #
                  #######################################################


                         Program Version 4.2.0 -  RELEASE  -


 With contributions from (in alphabetic order):
   Daniel Aravena         : Magnetic Suceptibility
   Michael Atanasov       : Ab Initio Ligand Field Theory (pilot matlab implementation)
   Alexander A. Auer      : GIAO ZORA, VPT2
   Ute Becker             : Parallelization
   Giovanni Bistoni       : ED, misc. LED, open-shell LED, HFLED
   Martin Brehm           : Molecular dynamics
   Dmytro Bykov           : SCF Hessian
   Vijay G. Chilkuri      : MRCI spin determinant printing, contributions to CSF-ICE
   Dipayan Datta          : RHF DLPNO-CCSD density
   Achintya Kumar Dutta   : EOM-CC, STEOM-CC
   Dmitry Ganyushin       : Spin-Orbit,Spin-Spin,Magnetic field MRCI
   Miquel Garcia          : C-PCM Hessian, Gaussian charge scheme
   Yang Guo               : DLPNO-NEVPT2, CIM, IAO-localization
   Andreas Hansen         : Spin unrestricted coupled pair/coupled cluster methods
   Benjamin Helmich-Paris : CASSCF linear response (MC-RPA)
   Lee Huntington         : MR-EOM, pCC
   Robert Izsak           : Overlap fitted RIJCOSX, COSX-SCS-MP3, EOM
   Christian Kollmar      : KDIIS, OOCD, Brueckner-CCSD(T), CCSD density
   Simone Kossmann        : Meta GGA functionals, TD-DFT gradient, OOMP2, MP2 Hessian
   Martin Krupicka        : AUTO-CI
   Lucas Lang             : DCDCAS
   Dagmar Lenk            : GEPOL surface, SMD
   Dimitrios Liakos       : Extrapolation schemes; Compound Job, initial MDCI parallelization
   Dimitrios Manganas     : Further ROCIS development; embedding schemes
   Dimitrios Pantazis     : SARC Basis sets
   Taras Petrenko         : DFT Hessian,TD-DFT gradient, ASA, ECA, R-Raman, ABS, FL, XAS/XES, NRVS
   Peter Pinski           : DLPNO-MP2, DLPNO-MP2 Gradient
   Christoph Reimann      : Effective Core Potentials
   Marius Retegan         : Local ZFS, SOC
   Christoph Riplinger    : Optimizer, TS searches, QM/MM, DLPNO-CCSD(T), (RO)-DLPNO pert. Triples
   Tobias Risthaus        : Range-separated hybrids, TD-DFT gradient, RPA, STAB
   Michael Roemelt        : Original ROCIS implementation
   Masaaki Saitow         : Open-shell DLPNO-CCSD energy and density
   Barbara Sandhoefer     : DKH picture change effects
   Avijit Sen             : IP-ROCIS
   Kantharuban Sivalingam : CASSCF convergence, NEVPT2, FIC-MRCI
   Bernardo de Souza      : ESD, SOC TD-DFT
   Georgi Stoychev        : AutoAux, RI-MP2 NMR
   Willem Van den Heuvel  : Paramagnetic NMR
   Boris Wezisla          : Elementary symmetry handling
   Frank Wennmohs         : Technical directorship


 We gratefully acknowledge several colleagues who have allowed us to
 interface, adapt or use parts of their codes:
   Stefan Grimme, W. Hujo, H. Kruse,             : VdW corrections, initial TS optimization,
                  C. Bannwarth                     DFT functionals, gCP, sTDA/sTD-DF
   Ed Valeev, F. Pavosevic, A. Kumar             : LibInt (2-el integral package), F12 methods
   Garnet Chan, S. Sharma, J. Yang, R. Olivares  : DMRG
   Ulf Ekstrom                                   : XCFun DFT Library
   Mihaly Kallay                                 : mrcc  (arbitrary order and MRCC methods)
   Andreas Klamt, Michael Diedenhofen            : otool_cosmo (COSMO solvation model)
   Jiri Pittner, Ondrej Demel                    : Mk-CCSD
   Frank Weinhold                                : gennbo (NPA and NBO analysis)
   Christopher J. Cramer and Donald G. Truhlar   : smd solvation model
   Lars Goerigk                                  : TD-DFT with DH, B97 family of functionals
   V. Asgeirsson, H. Jonsson                     : NEB implementation
   FAccTs GmbH                                   : IRC, NEB, NEB-TS, Multilevel, MM, QM/MM, CI optimization
   S Lehtola, MJT Oliveira, MAL Marques          : LibXC Library


 Your calculation uses the libint2 library for the computation of 2-el integrals
 For citations please refer to: http://libint.valeyev.net

 Your ORCA version has been built with support for libXC version: 4.2.3
 For citations please refer to: https://tddft.org/programs/libxc/

 This ORCA versions uses:
   CBLAS   interface :  Fast vector & matrix operations
   LAPACKE interface :  Fast linear algebra routines
   SCALAPACK package :  Parallel linear algebra routines


Your calculation utilizes the DFT-NL dispersion correction.
Cite in your paper:
Vydrov, O. A.; Van Voorhis, T. J. Chem. Phys. 2010, 133, 244103
Hujo, W.; Grimme, S. J. Chem. Theory Comput. 2011, 7, 3866 
   

----- Orbital basis set information -----
Your calculation utilizes the basis: def2-TZVPPD
   F. Weigend and R. Ahlrichs, Phys. Chem. Chem. Phys. 7, 3297 (2005).
   D. Rappoport and F. Furche, J. Chem. Phys. 133 134105 (2010).

----- AuxJK basis set information -----
Your calculation utilizes the auxiliary basis: def2/JK
   H-Ba, Hf-Rn: F. Weigend, J. Comput. Chem. 29, 167 (2008).

================================================================================
                                        WARNINGS
                       Please study these warnings very carefully!
================================================================================

INFO   : Found keyword 'NumGrad' for Energy calculation
  ===> : Setting RunTyp to EnGrad

WARNING: Numerical Gradient with sloppy Convergence Criteria    
         Your results may be not reliable!                      
         Please choose at least TightSCF!                       

WARNING: your system is open-shell and RHF/RKS was chosen
  ===> : WILL SWITCH to UHF/UKS


INFO   : the flag for use of LIBINT has been found!

================================================================================
                                       INPUT FILE
================================================================================
NAME = Cl.in
|  1> #
|  2> # Cl wB97M-V/Def2-TZVPPD
|  3> #
|  4> ! wb97m-v def2-tzvppd def2/jk grid4 nofinalgrid numgrad
|  5> 
|  6> *xyz 0 2
|  7> Cl         0.00000        0.00000        0.00000
|  8> *
|  9> 
| 10> %maxcore 5000
| 11> 
| 12> %pal
| 13> nprocs = 28
| 14> end
| 15> 
| 16> 
| 17>                          ****END OF INPUT****
================================================================================

                     *******************************
                     * Energy+Gradient Calculation *
                     *******************************

---------------------------------
CARTESIAN COORDINATES (ANGSTROEM)
---------------------------------
  Cl     0.000000    0.000000    0.000000

----------------------------
CARTESIAN COORDINATES (A.U.)
----------------------------
  NO LB      ZA    FRAG     MASS         X           Y           Z
   0 Cl   17.0000    0    35.453    0.000000    0.000000    0.000000

--------------------------------
INTERNAL COORDINATES (ANGSTROEM)
--------------------------------
 Cl     0   0   0     0.000000000000     0.00000000     0.00000000

---------------------------
INTERNAL COORDINATES (A.U.)
---------------------------
 Cl     0   0   0     0.000000000000     0.00000000     0.00000000

---------------------
BASIS SET INFORMATION
---------------------
There are 1 groups of distinct atoms

 Group   1 Type Cl  : 15s10p4d1f contracted to 6s6p4d1f pattern {732111/511111/1111/1}

Atom   0Cl   basis set group =>   1
----------------------------------
AUXILIARY/JK BASIS SET INFORMATION
----------------------------------
There are 1 groups of distinct atoms

 Group   1 Type Cl  : 16s12p10d4f1g contracted to 13s11p9d4f1g pattern {4111111111111/21111111111/211111111/1111/1}

Atom   0Cl   basis set group =>   1


           ************************************************************
           *        Program running with 28 parallel MPI-processes    *
           *              working on a common directory               *
           ************************************************************
------------------------------------------------------------------------------
                           ORCA GTO INTEGRAL CALCULATION
------------------------------------------------------------------------------

                         BASIS SET STATISTICS AND STARTUP INFO

 # of primitive gaussian shells          ...   30
 # of primitive gaussian functions       ...   72
 # of contracted shells                  ...   17
 # of contracted basis functions         ...   51
 Highest angular momentum                ...    3
 Maximum contraction depth               ...    7
 Integral package used                   ... LIBINT
 Integral threshhold            Thresh   ...  1.000e-10
 Primitive cut-off              TCut     ...  1.000e-11


------------------------------ INTEGRAL EVALUATION ----------------------------


 * One electron integrals 
 Pre-screening matrix                    ... done
 Shell pair data                         ... done (   0.000 sec)



           ************************************************************
           *        Program running with 28 parallel MPI-processes    *
           *              working on a common directory               *
           ************************************************************
-------------------------------------------------------------------------------
                                 ORCA SCF
-------------------------------------------------------------------------------

------------
SCF SETTINGS
------------
Hamiltonian:
 Density Functional     Method          .... DFT(GTOs)
 Exchange Functional    Exchange        .... WB97M-V
 Correlation Functional Correlation     .... WB97M-V
 Gradients option       PostSCFGGA      .... off
 Hybrid DFT is turned on
   Fraction HF Exchange ScalHFX         ....  0.150000
   Scaling of DF-GGA-X  ScalDFX         ....  0.000000
   Scaling of DF-GGA-C  ScalDFC         ....  1.000000
   Scaling of DF-LDA-C  ScalLDAC        ....  1.000000
   Perturbative correction              ....  0.000000
   Density functional embedding theory  .... OFF
 Long-range corrected/Screened/Range-Separated Hybrid DFT is turned on
   Amount of maximum screened exact exchange              ....  0.850000
   Range separation parameter mu (erf(mu*r12)/r12)        ....  0.300000
   NL short-range parameter             ....  6.000000
   NL long-range parameter              ....  0.010000


General Settings:
 Integral files         IntName         .... Cl
 Hartree-Fock type      HFTyp           .... UHF
 Total Charge           Charge          ....    0
 Multiplicity           Mult            ....    2
 Number of Electrons    NEL             ....   17
 Basis Dimension        Dim             ....   51
 Nuclear Repulsion      ENuc            ....      0.0000000000 Eh

Convergence Acceleration:
 DIIS                   CNVDIIS         .... on
   Start iteration      DIISMaxIt       ....    12
   Startup error        DIISStart       ....  0.200000
   # of expansion vecs  DIISMaxEq       ....     5
   Bias factor          DIISBfac        ....   1.050
   Max. coefficient     DIISMaxC        ....  10.000
 Newton-Raphson         CNVNR           .... off
 SOSCF                  CNVSOSCF        .... off
 Level Shifting         CNVShift        .... on
   Level shift para.    LevelShift      ....    0.2500
   Turn off err/grad.   ShiftErr        ....    0.0010
 Zerner damping         CNVZerner       .... off
 Static damping         CNVDamp         .... on
   Fraction old density DampFac         ....    0.7000
   Max. Damping (<1)    DampMax         ....    0.9800
   Min. Damping (>=0)   DampMin         ....    0.0000
   Turn off err/grad.   DampErr         ....    0.1000
 Fernandez-Rico         CNVRico         .... off

SCF Procedure:
 Maximum # iterations   MaxIter         ....   125
 SCF integral mode      SCFMode         .... Direct
   Integral package                     .... LIBINT
 Reset frequency        DirectResetFreq ....    20
 Integral Threshold     Thresh          ....  1.000e-10 Eh
 Primitive CutOff       TCut            ....  1.000e-11 Eh

Convergence Tolerance:
 Convergence Check Mode ConvCheckMode   .... Total+1el-Energy
 Convergence forced     ConvForced      .... 0
 Energy Change          TolE            ....  1.000e-06 Eh
 1-El. energy change                    ....  1.000e-03 Eh
 DIIS Error             TolErr          ....  1.000e-06


Diagonalization of the overlap matrix:
Smallest eigenvalue                        ... 3.142e-02
Time for diagonalization                   ...    0.001 sec
Threshold for overlap eigenvalues          ... 1.000e-08
Number of eigenvalues below threshold      ... 0
Time for construction of square roots      ...    0.088 sec
Total time needed                          ...    0.089 sec

-------------------
DFT GRID GENERATION
-------------------

General Integration Accuracy     IntAcc      ...  4.670
Radial Grid Type                 RadialGrid  ... Gauss-Chebyshev
Angular Grid (max. acc.)         AngularGrid ... Lebedev-302
Angular grid pruning method      GridPruning ... 3 (G Style)
Weight generation scheme         WeightScheme... Becke
Basis function cutoff            BFCut       ...    1.0000e-10
Integration weight cutoff        WCut        ...    1.0000e-14
Grids for H and He will be reduced by one unit

# of grid points (after initial pruning)     ...   6738 (   0.0 sec)
# of grid points (after weights+screening)   ...   6738 (   0.0 sec)
Grid point division into batches done        ...    0.0 sec
Reduced shell lists constructed in    0.0 sec

Total number of grid points                  ...     6738
Total number of batches                      ...      106
Average number of points per batch           ...       63
Average number of grid points per atom       ...     6738
Average number of shells per batch           ...     3.20 (18.82%)
Average number of basis functions per batch  ...     9.60 (18.82%)
Average number of large shells per batch     ...     2.40 (75.00%)
Average number of large basis fcns per batch ...     7.20 (75.00%)
Maximum spatial batch extension              ...  17.78, 17.78, 17.78 au
Average spatial batch extension              ...   0.56,  0.56,  0.63 au

Time for grid setup =    2.759 sec

------------------------------
INITIAL GUESS: MODEL POTENTIAL
------------------------------
Loading Hartree-Fock densities                     ... done
Calculating cut-offs                               ... done
Setting up the integral package                    ... done
Initializing the effective Hamiltonian             ... done
Starting the Coulomb interaction                   ... done (   0.0 sec)
Reading the grid                                   ... done
Mapping shells                                     ... done
Starting the XC term evaluation                    ... done (   0.0 sec)
  promolecular density results
     # of electrons  =     17.000000665
     EX              =    -27.332812851
     EC              =     -0.649439552
     EX+EC           =    -27.982252403
Transforming the Hamiltonian                       ... done (   0.1 sec)
Diagonalizing the Hamiltonian                      ... done (   0.0 sec)
Back transforming the eigenvectors                 ... done (   0.0 sec)
Now organizing SCF variables                       ... done
                      ------------------
                      INITIAL GUESS DONE (   4.0 sec)
                      ------------------
--------------
SCF ITERATIONS
--------------
ITER       Energy         Delta-E        Max-DP      RMS-DP      [F,P]     Damp
               ***  Starting incremental Fock matrix formation  ***
  0   -460.1940626519   0.000000000000 0.00487152  0.00021862  0.0559146 0.7000
  1   -460.1953435807  -0.001280928848 0.00435339  0.00018482  0.0397014 0.7000
                               ***Turning on DIIS***
  2   -460.1963206688  -0.000977088118 0.01100885  0.00046496  0.0280532 0.0000
  3   -460.1988216763  -0.002501007472 0.00257598  0.00009385  0.0022708 0.0000
  4   -460.1989208487  -0.000099172392 0.00136482  0.00004540  0.0007603 0.0000
  5   -460.1989676065  -0.000046757796 0.00030861  0.00001478  0.0002566 0.0000
  6   -460.1989771020  -0.000009495505 0.00009620  0.00000268  0.0000536 0.0000
  7   -460.1989782346  -0.000001132578 0.00001029  0.00000034  0.0000055 0.0000
                 **** Energy Check signals convergence ****

               *****************************************************
               *                     SUCCESS                       *
               *           SCF CONVERGED AFTER   8 CYCLES          *
               *****************************************************


Setting up the DFT-NL grid :

General Integration Accuracy     IntAcc      ...  4.340
Radial Grid Type                 RadialGrid  ... Gauss-Chebyshev
Angular Grid (max. acc.)         AngularGrid ... Lebedev-110
Angular grid pruning method      GridPruning ... 3 (G Style)
Weight generation scheme         WeightScheme... Becke
Basis function cutoff            BFCut       ...    1.0000e-10
Integration weight cutoff        WCut        ...    1.0000e-14
Grids for H and He will be reduced by one unit

# of grid points (after initial pruning)     ...   1844 (   0.0 sec)
# of grid points (after weights+screening)   ...   1844 (   0.0 sec)
Grid point division into batches done        ...    0.0 sec
Reduced shell lists constructed in    0.0 sec

Total number of grid points                  ...     1844
Total number of batches                      ...       29
Average number of points per batch           ...       63
Average number of grid points per atom       ...     1844
Average number of shells per batch           ...     6.67 (39.22%)
Average number of basis functions per batch  ...    22.67 (44.44%)
Average number of large shells per batch     ...     6.00 (90.00%)
Average number of large basis fcns per batch ...    19.33 (85.29%)
Maximum spatial batch extension              ...  16.21, 29.83, 29.83 au
Average spatial batch extension              ...   1.12,  2.06,  2.06 au

Final grid set up in    2.7 sec

-------------------------------------------------------------------------------
                         DFT-NL dispersion correction                          
-------------------------------------------------------------------------------

SC Energy -460.198978143 
NL    Energy 0.072925538 
SC+NL Energy -460.126052604 
NL done in    2.7 sec
-------------------------------------------------------------------------------

----------------
TOTAL SCF ENERGY
----------------

Total Energy       :         -460.12605260 Eh          -12520.66643 eV

Components:
Nuclear Repulsion  :            0.00000000 Eh               0.00000 eV
Electronic Energy  :         -460.12605260 Eh          -12520.66643 eV
One Electron Energy:         -634.89133034 Eh          -17276.27141 eV
Two Electron Energy:          174.76527773 Eh            4755.60498 eV

Virial components:
Potential Energy   :         -919.50905359 Eh          -25021.11340 eV
Kinetic Energy     :          459.38300098 Eh           12500.44697 eV
Virial Ratio       :            2.00161750


DFT components:
N(Alpha)           :        8.999999944671 electrons
N(Beta)            :        7.999999929068 electrons
N(Total)           :       16.999999873739 electrons
E(X)               :      -21.059240908967 Eh       
E(C)               :       -0.730520592842 Eh       
NL Energy, E(C,NL) :        0.072925538093 Eh       
E(XC)              :      -21.716835963716 Eh       
DFET-embed. en.    :        0.000000000000 Eh       

---------------
SCF CONVERGENCE
---------------

  Last Energy change         ...    9.2081e-08  Tolerance :   1.0000e-06
  Last MAX-Density change    ...    1.6804e-06  Tolerance :   1.0000e-05
  Last RMS-Density change    ...    6.7523e-08  Tolerance :   1.0000e-06
  Last DIIS Error            ...    9.4616e-07  Tolerance :   1.0000e-06

             **** THE GBW FILE WAS UPDATED (Cl.gbw) ****
             **** DENSITY FILE WAS UPDATED (Cl.scfp) ****
             **** ENERGY FILE WAS UPDATED (Cl.en.tmp) ****
----------------------
UHF SPIN CONTAMINATION
----------------------

Warning: in a DFT calculation there is little theoretical justification to 
         calculate <S**2> as in Hartree-Fock theory. We will do it anyways
         but you should keep in mind that the values have only limited relevance

Expectation value of <S**2>     :     0.752266
Ideal value S*(S+1) for S=0.5   :     0.750000
Deviation                       :     0.002266

             **** THE GBW FILE WAS UPDATED (Cl.gbw) ****
             **** DENSITY FILE WAS UPDATED (Cl.scfp) ****
----------------
ORBITAL ENERGIES
----------------
                 SPIN UP ORBITALS
  NO   OCC          E(Eh)            E(eV) 
   0   1.0000    -101.929609     -2773.6457 
   1   1.0000      -9.698284      -263.9037 
   2   1.0000      -7.415063      -201.7741 
   3   1.0000      -7.392448      -201.1587 
   4   1.0000      -7.392448      -201.1587 
   5   1.0000      -0.968441       -26.3526 
   6   1.0000      -0.504854       -13.7378 
   7   1.0000      -0.460718       -12.5368 
   8   1.0000      -0.460718       -12.5368 
   9   0.0000       0.065783         1.7900 
  10   0.0000       0.070254         1.9117 
  11   0.0000       0.070254         1.9117 
  12   0.0000       0.099400         2.7048 
  13   0.0000       0.220602         6.0029 
  14   0.0000       0.224760         6.1160 
  15   0.0000       0.224760         6.1160 
  16   0.0000       0.235692         6.4135 
  17   0.0000       0.235692         6.4135 
  18   0.0000       0.502395        13.6709 
  19   0.0000       0.520388        14.1605 
  20   0.0000       0.520388        14.1605 
  21   0.0000       0.605086        16.4652 
  22   0.0000       0.614482        16.7209 
  23   0.0000       0.614482        16.7209 
  24   0.0000       0.643381        17.5073 
  25   0.0000       0.643381        17.5073 
  26   0.0000       0.849706        23.1217 
  27   0.0000       1.893423        51.5226 
  28   0.0000       1.904900        51.8350 
  29   0.0000       1.904900        51.8350 
  30   0.0000       1.941510        52.8312 
  31   0.0000       1.941510        52.8312 
  32   0.0000       2.089650        56.8623 
  33   0.0000       2.097202        57.0678 
  34   0.0000       2.097202        57.0678 
  35   0.0000       2.117147        57.6105 
  36   0.0000       2.117147        57.6105 
  37   0.0000       2.149533        58.4918 
  38   0.0000       2.149533        58.4918 
  39   0.0000       2.264533        61.6211 
  40   0.0000       2.324250        63.2461 
  41   0.0000       2.324250        63.2461 
  42   0.0000       8.170795       222.3386 
  43   0.0000       8.178036       222.5357 
  44   0.0000       8.178036       222.5357 
  45   0.0000       8.203042       223.2161 
  46   0.0000       8.203042       223.2161 
  47   0.0000      10.830370       294.7093 
  48   0.0000      10.868569       295.7488 
  49   0.0000      10.868569       295.7488 
  50   0.0000      24.471480       665.9028 

                 SPIN DOWN ORBITALS
  NO   OCC          E(Eh)            E(eV) 
   0   1.0000    -101.921768     -2773.4323 
   1   1.0000      -9.692066      -263.7345 
   2   1.0000      -7.390963      -201.1183 
   3   1.0000      -7.387664      -201.0286 
   4   1.0000      -7.387664      -201.0286 
   5   1.0000      -0.917081       -24.9550 
   6   1.0000      -0.442861       -12.0509 
   7   1.0000      -0.442861       -12.0509 
   8   0.0000      -0.158266        -4.3066 
   9   0.0000       0.048280         1.3138 
  10   0.0000       0.070657         1.9227 
  11   0.0000       0.070661         1.9228 
  12   0.0000       0.078704         2.1416 
  13   0.0000       0.203060         5.5255 
  14   0.0000       0.220450         5.9987 
  15   0.0000       0.220464         5.9991 
  16   0.0000       0.237105         6.4520 
  17   0.0000       0.237106         6.4520 
  18   0.0000       0.500193        13.6109 
  19   0.0000       0.522746        14.2246 
  20   0.0000       0.522747        14.2247 
  21   0.0000       0.648110        17.6360 
  22   0.0000       0.648116        17.6361 
  23   0.0000       0.652498        17.7554 
  24   0.0000       0.654034        17.7972 
  25   0.0000       0.654035        17.7972 
  26   0.0000       0.870260        23.6810 
  27   0.0000       1.940846        52.8131 
  28   0.0000       1.947439        52.9925 
  29   0.0000       1.947441        52.9926 
  30   0.0000       1.949822        53.0574 
  31   0.0000       1.949822        53.0574 
  32   0.0000       2.157206        58.7006 
  33   0.0000       2.157206        58.7006 
  34   0.0000       2.159898        58.7738 
  35   0.0000       2.159898        58.7738 
  36   0.0000       2.160160        58.7809 
  37   0.0000       2.160160        58.7809 
  38   0.0000       2.169259        59.0285 
  39   0.0000       2.347058        63.8667 
  40   0.0000       2.347058        63.8667 
  41   0.0000       2.352368        64.0112 
  42   0.0000       8.186947       222.7782 
  43   0.0000       8.189333       222.8431 
  44   0.0000       8.189333       222.8431 
  45   0.0000       8.204179       223.2471 
  46   0.0000       8.204179       223.2471 
  47   0.0000      10.868193       295.7386 
  48   0.0000      10.874445       295.9087 
  49   0.0000      10.874445       295.9087 
  50   0.0000      24.479282       666.1151 

                    ********************************
                    * MULLIKEN POPULATION ANALYSIS *
                    ********************************

--------------------------------------------
MULLIKEN ATOMIC CHARGES AND SPIN POPULATIONS
--------------------------------------------
   0 Cl:   -0.000000    1.000000
Sum of atomic charges         :   -0.0000000
Sum of atomic spin populations:    1.0000000

-----------------------------------------------------
MULLIKEN REDUCED ORBITAL CHARGES AND SPIN POPULATIONS
-----------------------------------------------------
CHARGE
  0 Cls       :     5.999060  s :     5.999060
      pz      :     3.582628  p :    10.999544
      px      :     3.995196
      py      :     3.421720
      dz2     :     0.000015  d :     0.000940
      dxz     :     0.000005
      dyz     :     0.000680
      dx2y2   :     0.000232
      dxy     :     0.000008
      f0      :     0.000051  f :     0.000456
      f+1     :     0.000011
      f-1     :     0.000126
      f+2     :     0.000105
      f-2     :     0.000081
      f+3     :     0.000042
      f-3     :     0.000041

SPIN
  0 Cls       :    -0.000725  s :    -0.000725
      pz      :     0.417062  p :     0.999558
      px      :     0.004548
      py      :     0.577948
      dz2     :     0.000011  d :     0.000725
      dxz     :     0.000004
      dyz     :     0.000525
      dx2y2   :     0.000179
      dxy     :     0.000006
      f0      :     0.000049  f :     0.000442
      f+1     :     0.000010
      f-1     :     0.000122
      f+2     :     0.000105
      f-2     :     0.000076
      f+3     :     0.000040
      f-3     :     0.000040


                     *******************************
                     * LOEWDIN POPULATION ANALYSIS *
                     *******************************

-------------------------------------------
LOEWDIN ATOMIC CHARGES AND SPIN POPULATIONS
-------------------------------------------
   0 Cl:   -0.000000    1.000000

----------------------------------------------------
LOEWDIN REDUCED ORBITAL CHARGES AND SPIN POPULATIONS
----------------------------------------------------
CHARGE
  0 Cls       :     5.999060  s :     5.999060
      pz      :     3.582628  p :    10.999544
      px      :     3.995196
      py      :     3.421720
      dz2     :     0.000015  d :     0.000940
      dxz     :     0.000005
      dyz     :     0.000680
      dx2y2   :     0.000232
      dxy     :     0.000008
      f0      :     0.000051  f :     0.000456
      f+1     :     0.000011
      f-1     :     0.000126
      f+2     :     0.000105
      f-2     :     0.000081
      f+3     :     0.000042
      f-3     :     0.000041

SPIN
  0 Cls       :    -0.000725  s :    -0.000725
      pz      :     0.417062  p :     0.999558
      px      :     0.004548
      py      :     0.577948
      dz2     :     0.000011  d :     0.000725
      dxz     :     0.000004
      dyz     :     0.000525
      dx2y2   :     0.000179
      dxy     :     0.000006
      f0      :     0.000049  f :     0.000442
      f+1     :     0.000010
      f-1     :     0.000122
      f+2     :     0.000105
      f-2     :     0.000076
      f+3     :     0.000040
      f-3     :     0.000040


                      *****************************
                      * MAYER POPULATION ANALYSIS *
                      *****************************

  NA   - Mulliken gross atomic population
  ZA   - Total nuclear charge
  QA   - Mulliken gross atomic charge
  VA   - Mayer's total valence
  BVA  - Mayer's bonded valence
  FA   - Mayer's free valence

  ATOM       NA         ZA         QA         VA         BVA        FA
  0 Cl    17.0000    17.0000    -0.0000     1.0045     0.0000     1.0045

  Mayer bond orders larger than 0.100000


-------
TIMINGS
-------

Total SCF time: 0 days 0 hours 1 min 46 sec 

Total time                  ....     106.778 sec
Sum of individual times     ....     102.576 sec  ( 96.1%)

Fock matrix formation       ....      93.857 sec  ( 87.9%)
  XC integration            ....      94.193 sec  (100.4% of F)
    Basis function eval.    ....       0.003 sec  (  0.0% of XC)
    Density eval.           ....       0.010 sec  (  0.0% of XC)
    XC-Functional eval.     ....       0.012 sec  (  0.0% of XC)
    XC-Potential eval.      ....       0.010 sec  (  0.0% of XC)
Diagonalization             ....       1.141 sec  (  1.1%)
Density matrix formation    ....       0.003 sec  (  0.0%)
Population analysis         ....       0.829 sec  (  0.8%)
Initial guess               ....       1.275 sec  (  1.2%)
Orbital Transformation      ....       0.000 sec  (  0.0%)
Orbital Orthonormalization  ....       0.000 sec  (  0.0%)
DIIS solution               ....       0.055 sec  (  0.1%)
Grid generation             ....       5.415 sec  (  5.1%)

-------------------------   --------------------
FINAL SINGLE POINT ENERGY      -460.126052604408
-------------------------   --------------------


----------------------------------------------------------------------------
                           ORCA NUMERICAL GRADIENT
                              (28-process run)
----------------------------------------------------------------------------

I state                        ... 1
J state                        ... 0
Number of atoms                ... 1
Derivative's order of accuracy ... 2
Central differences            ... used
Number of displacements        ... 6
Numerical increment            ... 5.000e-03 bohr
Translation invariance         ... used

The output will be reduced. Please look at the following files:
SCF program output             ... >Cl.lastscf
Integral program output        ... >Cl.lastint
Gradient program output        ... >Cl.lastgrad


     Note:   There are more processes than displacements to do
     ===>:   Reducing number of processes to   0


------------------------------
CARTESIAN GRADIENT (NUMERICAL)
-------------------------------
   1   Cl  :    0.000000000    0.000000000    0.000000000

Norm of the cartesian gradient     ...    0.000000000
RMS gradient                       ...    0.000000000
MAX gradient                       ...    0.000000000
*** glibc detected *** /mnt/storage/software/apps/orca-4.2.0/orca_4_2_0_linux_x86-64_openmpi314/orca: free(): invalid next size (fast): 0x000000000d0205d0 ***
======= Backtrace: =========
[0xb0928aa]
[0xb09567c]
[0x76d903]
[0x76fb95]
[0x915b4f]
[0x918f24]
[0x487649]
[0xb05c99e]
[0x4870d9]
======= Memory map: ========
00400000-0bf42000 r-xp 00000000 00:2b 4876154                            /mnt/storage/software/apps/orca-4.2.0/orca_4_2_0_linux_x86-64_openmpi314/orca
0c141000-0c203000 rw-p 0bb41000 00:2b 4876154                            /mnt/storage/software/apps/orca-4.2.0/orca_4_2_0_linux_x86-64_openmpi314/orca
0c203000-0c77a000 rw-p 00000000 00:00 0 
0ce79000-0d0e5000 rw-p 00000000 00:00 0                                  [heap]
2b74a5999000-2b74a619a000 rw-p 00000000 00:00 0 
2b74a6999000-2b74a905c000 rw-p 00000000 00:00 0 
2b74ac000000-2b74ac0b3000 rw-p 00000000 00:00 0 
2b74ac0b3000-2b74b0000000 ---p 00000000 00:00 0 
7ffd4d2ad000-7ffd4d3af000 rw-p 00000000 00:00 0                          [stack]
7ffd4d3f7000-7ffd4d3f9000 r-xp 00000000 00:00 0                          [vdso]
ffffffffff600000-ffffffffff601000 r-xp 00000000 00:00 0                  [vsyscall]
