
                                 *****************
                                 * O   R   C   A *
                                 *****************

           --- An Ab Initio, DFT and Semiempirical electronic structure package ---

                  #######################################################
                  #                        -***-                        #
                  #          Department of theory and spectroscopy      #
                  #               Directorship: Frank Neese             #
                  #        Max Planck Institute fuer Kohlenforschung    #
                  #                Kaiser Wilhelm Platz 1               #
                  #                 D-45470 Muelheim/Ruhr               #
                  #                      Germany                        #
                  #                                                     #
                  #                  All rights reserved                #
                  #                        -***-                        #
                  #######################################################


                         Program Version 4.2.0 -  RELEASE  -


 With contributions from (in alphabetic order):
   Daniel Aravena         : Magnetic Suceptibility
   Michael Atanasov       : Ab Initio Ligand Field Theory (pilot matlab implementation)
   Alexander A. Auer      : GIAO ZORA, VPT2
   Ute Becker             : Parallelization
   Giovanni Bistoni       : ED, misc. LED, open-shell LED, HFLED
   Martin Brehm           : Molecular dynamics
   Dmytro Bykov           : SCF Hessian
   Vijay G. Chilkuri      : MRCI spin determinant printing, contributions to CSF-ICE
   Dipayan Datta          : RHF DLPNO-CCSD density
   Achintya Kumar Dutta   : EOM-CC, STEOM-CC
   Dmitry Ganyushin       : Spin-Orbit,Spin-Spin,Magnetic field MRCI
   Miquel Garcia          : C-PCM Hessian, Gaussian charge scheme
   Yang Guo               : DLPNO-NEVPT2, CIM, IAO-localization
   Andreas Hansen         : Spin unrestricted coupled pair/coupled cluster methods
   Benjamin Helmich-Paris : CASSCF linear response (MC-RPA)
   Lee Huntington         : MR-EOM, pCC
   Robert Izsak           : Overlap fitted RIJCOSX, COSX-SCS-MP3, EOM
   Christian Kollmar      : KDIIS, OOCD, Brueckner-CCSD(T), CCSD density
   Simone Kossmann        : Meta GGA functionals, TD-DFT gradient, OOMP2, MP2 Hessian
   Martin Krupicka        : AUTO-CI
   Lucas Lang             : DCDCAS
   Dagmar Lenk            : GEPOL surface, SMD
   Dimitrios Liakos       : Extrapolation schemes; Compound Job, initial MDCI parallelization
   Dimitrios Manganas     : Further ROCIS development; embedding schemes
   Dimitrios Pantazis     : SARC Basis sets
   Taras Petrenko         : DFT Hessian,TD-DFT gradient, ASA, ECA, R-Raman, ABS, FL, XAS/XES, NRVS
   Peter Pinski           : DLPNO-MP2, DLPNO-MP2 Gradient
   Christoph Reimann      : Effective Core Potentials
   Marius Retegan         : Local ZFS, SOC
   Christoph Riplinger    : Optimizer, TS searches, QM/MM, DLPNO-CCSD(T), (RO)-DLPNO pert. Triples
   Tobias Risthaus        : Range-separated hybrids, TD-DFT gradient, RPA, STAB
   Michael Roemelt        : Original ROCIS implementation
   Masaaki Saitow         : Open-shell DLPNO-CCSD energy and density
   Barbara Sandhoefer     : DKH picture change effects
   Avijit Sen             : IP-ROCIS
   Kantharuban Sivalingam : CASSCF convergence, NEVPT2, FIC-MRCI
   Bernardo de Souza      : ESD, SOC TD-DFT
   Georgi Stoychev        : AutoAux, RI-MP2 NMR
   Willem Van den Heuvel  : Paramagnetic NMR
   Boris Wezisla          : Elementary symmetry handling
   Frank Wennmohs         : Technical directorship


 We gratefully acknowledge several colleagues who have allowed us to
 interface, adapt or use parts of their codes:
   Stefan Grimme, W. Hujo, H. Kruse,             : VdW corrections, initial TS optimization,
                  C. Bannwarth                     DFT functionals, gCP, sTDA/sTD-DF
   Ed Valeev, F. Pavosevic, A. Kumar             : LibInt (2-el integral package), F12 methods
   Garnet Chan, S. Sharma, J. Yang, R. Olivares  : DMRG
   Ulf Ekstrom                                   : XCFun DFT Library
   Mihaly Kallay                                 : mrcc  (arbitrary order and MRCC methods)
   Andreas Klamt, Michael Diedenhofen            : otool_cosmo (COSMO solvation model)
   Jiri Pittner, Ondrej Demel                    : Mk-CCSD
   Frank Weinhold                                : gennbo (NPA and NBO analysis)
   Christopher J. Cramer and Donald G. Truhlar   : smd solvation model
   Lars Goerigk                                  : TD-DFT with DH, B97 family of functionals
   V. Asgeirsson, H. Jonsson                     : NEB implementation
   FAccTs GmbH                                   : IRC, NEB, NEB-TS, Multilevel, MM, QM/MM, CI optimization
   S Lehtola, MJT Oliveira, MAL Marques          : LibXC Library


 Your calculation uses the libint2 library for the computation of 2-el integrals
 For citations please refer to: http://libint.valeyev.net

 Your ORCA version has been built with support for libXC version: 4.2.3
 For citations please refer to: https://tddft.org/programs/libxc/

 This ORCA versions uses:
   CBLAS   interface :  Fast vector & matrix operations
   LAPACKE interface :  Fast linear algebra routines
   SCALAPACK package :  Parallel linear algebra routines


Your calculation utilizes the DFT-NL dispersion correction.
Cite in your paper:
Vydrov, O. A.; Van Voorhis, T. J. Chem. Phys. 2010, 133, 244103
Hujo, W.; Grimme, S. J. Chem. Theory Comput. 2011, 7, 3866 
   

----- Orbital basis set information -----
Your calculation utilizes the basis: def2-TZVPPD
   F. Weigend and R. Ahlrichs, Phys. Chem. Chem. Phys. 7, 3297 (2005).
   D. Rappoport and F. Furche, J. Chem. Phys. 133 134105 (2010).

----- AuxJK basis set information -----
Your calculation utilizes the auxiliary basis: def2/JK
   H-Ba, Hf-Rn: F. Weigend, J. Comput. Chem. 29, 167 (2008).

================================================================================
                                        WARNINGS
                       Please study these warnings very carefully!
================================================================================

INFO   : Found keyword 'NumGrad' for Energy calculation
  ===> : Setting RunTyp to EnGrad

WARNING: Numerical Gradient with sloppy Convergence Criteria    
         Your results may be not reliable!                      
         Please choose at least TightSCF!                       

WARNING: your system is open-shell and RHF/RKS was chosen
  ===> : WILL SWITCH to UHF/UKS


INFO   : the flag for use of LIBINT has been found!

================================================================================
                                       INPUT FILE
================================================================================
NAME = CoH.in
|  1> #
|  2> # CoH wB97M-V/Def2-TZVPPD
|  3> #
|  4> ! wb97m-v def2-tzvppd def2/jk grid4 nofinalgrid numgrad
|  5> 
|  6> *xyz 0 3
|  7> Co         0.00000        0.00000        0.00000
|  8> H          0.00000        0.00000        1.53100
|  9> *
| 10> 
| 11> %maxcore 5000
| 12> 
| 13> %pal
| 14> nprocs = 28
| 15> end
| 16> 
| 17> 
| 18>                          ****END OF INPUT****
================================================================================

                     *******************************
                     * Energy+Gradient Calculation *
                     *******************************

---------------------------------
CARTESIAN COORDINATES (ANGSTROEM)
---------------------------------
  Co     0.000000    0.000000    0.000000
  H      0.000000    0.000000    1.531000

----------------------------
CARTESIAN COORDINATES (A.U.)
----------------------------
  NO LB      ZA    FRAG     MASS         X           Y           Z
   0 Co   27.0000    0    58.930    0.000000    0.000000    0.000000
   1 H     1.0000    0     1.008    0.000000    0.000000    2.893171

--------------------------------
INTERNAL COORDINATES (ANGSTROEM)
--------------------------------
 Co     0   0   0     0.000000000000     0.00000000     0.00000000
 H      1   0   0     1.531000000000     0.00000000     0.00000000

---------------------------
INTERNAL COORDINATES (A.U.)
---------------------------
 Co     0   0   0     0.000000000000     0.00000000     0.00000000
 H      1   0   0     2.893170711033     0.00000000     0.00000000

---------------------
BASIS SET INFORMATION
---------------------
There are 2 groups of distinct atoms

 Group   1 Type Co  : 17s13p7d2f1g contracted to 6s6p4d2f1g pattern {842111/631111/4111/11/1}
 Group   2 Type H   : 5s3p1d contracted to 3s3p1d pattern {311/111/1}

Atom   0Co   basis set group =>   1
Atom   1H    basis set group =>   2
----------------------------------
AUXILIARY/JK BASIS SET INFORMATION
----------------------------------
There are 2 groups of distinct atoms

 Group   1 Type Co  : 19s14p12d10f7g3h1i contracted to 16s13p11d9f5g3h1i pattern {4111111111111111/2111111111111/21111111111/211111111/31111/111/1}
 Group   2 Type H   : 4s2p2d contracted to 2s2p2d pattern {31/11/11}

Atom   0Co   basis set group =>   1
Atom   1H    basis set group =>   2


           ************************************************************
           *        Program running with 28 parallel MPI-processes    *
           *              working on a common directory               *
           ************************************************************
------------------------------------------------------------------------------
                           ORCA GTO INTEGRAL CALCULATION
------------------------------------------------------------------------------

                         BASIS SET STATISTICS AND STARTUP INFO

 # of primitive gaussian shells          ...   49
 # of primitive gaussian functions       ...  133
 # of contracted shells                  ...   26
 # of contracted basis functions         ...   84
 Highest angular momentum                ...    4
 Maximum contraction depth               ...    8
 Integral package used                   ... LIBINT
 Integral threshhold            Thresh   ...  1.000e-10
 Primitive cut-off              TCut     ...  1.000e-11


------------------------------ INTEGRAL EVALUATION ----------------------------


 * One electron integrals 
 Pre-screening matrix                    ... done
 Shell pair data                         ... done (   0.000 sec)



           ************************************************************
           *        Program running with 28 parallel MPI-processes    *
           *              working on a common directory               *
           ************************************************************
-------------------------------------------------------------------------------
                                 ORCA SCF
-------------------------------------------------------------------------------

------------
SCF SETTINGS
------------
Hamiltonian:
 Density Functional     Method          .... DFT(GTOs)
 Exchange Functional    Exchange        .... WB97M-V
 Correlation Functional Correlation     .... WB97M-V
 Gradients option       PostSCFGGA      .... off
 Hybrid DFT is turned on
   Fraction HF Exchange ScalHFX         ....  0.150000
   Scaling of DF-GGA-X  ScalDFX         ....  0.000000
   Scaling of DF-GGA-C  ScalDFC         ....  1.000000
   Scaling of DF-LDA-C  ScalLDAC        ....  1.000000
   Perturbative correction              ....  0.000000
   Density functional embedding theory  .... OFF
 Long-range corrected/Screened/Range-Separated Hybrid DFT is turned on
   Amount of maximum screened exact exchange              ....  0.850000
   Range separation parameter mu (erf(mu*r12)/r12)        ....  0.300000
   NL short-range parameter             ....  6.000000
   NL long-range parameter              ....  0.010000


General Settings:
 Integral files         IntName         .... CoH
 Hartree-Fock type      HFTyp           .... UHF
 Total Charge           Charge          ....    0
 Multiplicity           Mult            ....    3
 Number of Electrons    NEL             ....   28
 Basis Dimension        Dim             ....   84
 Nuclear Repulsion      ENuc            ....      9.3323217662 Eh

Convergence Acceleration:
 DIIS                   CNVDIIS         .... on
   Start iteration      DIISMaxIt       ....    12
   Startup error        DIISStart       ....  0.200000
   # of expansion vecs  DIISMaxEq       ....     5
   Bias factor          DIISBfac        ....   1.050
   Max. coefficient     DIISMaxC        ....  10.000
 Newton-Raphson         CNVNR           .... off
 SOSCF                  CNVSOSCF        .... off
 Level Shifting         CNVShift        .... on
   Level shift para.    LevelShift      ....    0.2500
   Turn off err/grad.   ShiftErr        ....    0.0010
 Zerner damping         CNVZerner       .... off
 Static damping         CNVDamp         .... on
   Fraction old density DampFac         ....    0.7000
   Max. Damping (<1)    DampMax         ....    0.9800
   Min. Damping (>=0)   DampMin         ....    0.0000
   Turn off err/grad.   DampErr         ....    0.1000
 Fernandez-Rico         CNVRico         .... off

SCF Procedure:
 Maximum # iterations   MaxIter         ....   125
 SCF integral mode      SCFMode         .... Direct
   Integral package                     .... LIBINT
 Reset frequency        DirectResetFreq ....    20
 Integral Threshold     Thresh          ....  1.000e-10 Eh
 Primitive CutOff       TCut            ....  1.000e-11 Eh

Convergence Tolerance:
 Convergence Check Mode ConvCheckMode   .... Total+1el-Energy
 Convergence forced     ConvForced      .... 0
 Energy Change          TolE            ....  1.000e-06 Eh
 1-El. energy change                    ....  1.000e-03 Eh
 DIIS Error             TolErr          ....  1.000e-06


Diagonalization of the overlap matrix:
Smallest eigenvalue                        ... 3.034e-03
Time for diagonalization                   ...    0.002 sec
Threshold for overlap eigenvalues          ... 1.000e-08
Number of eigenvalues below threshold      ... 0
Time for construction of square roots      ...    0.202 sec
Total time needed                          ...    0.204 sec

-------------------
DFT GRID GENERATION
-------------------

General Integration Accuracy     IntAcc      ...  4.670
Radial Grid Type                 RadialGrid  ... Gauss-Chebyshev
Angular Grid (max. acc.)         AngularGrid ... Lebedev-302
Angular grid pruning method      GridPruning ... 3 (G Style)
Weight generation scheme         WeightScheme... Becke
Basis function cutoff            BFCut       ...    1.0000e-10
Integration weight cutoff        WCut        ...    1.0000e-14
Grids for H and He will be reduced by one unit

# of grid points (after initial pruning)     ...  13034 (   0.0 sec)
# of grid points (after weights+screening)   ...  12998 (   0.0 sec)
nearest neighbour list constructed           ...    0.0 sec
Grid point re-assignment to atoms done       ...    0.0 sec
Grid point division into batches done        ...    0.1 sec
Reduced shell lists constructed in    0.1 sec

Total number of grid points                  ...    12998
Total number of batches                      ...      204
Average number of points per batch           ...       63
Average number of grid points per atom       ...     6499
Average number of shells per batch           ...     5.22 (20.09%)
Average number of basis functions per batch  ...    13.89 (16.53%)
Average number of large shells per batch     ...     2.44 (46.81%)
Average number of large basis fcns per batch ...     6.22 (44.80%)
Maximum spatial batch extension              ...  31.41, 28.57, 18.66 au
Average spatial batch extension              ...   0.94,  0.82,  0.62 au

Time for grid setup =    2.792 sec

------------------------------
INITIAL GUESS: MODEL POTENTIAL
------------------------------
Loading Hartree-Fock densities                     ... done
Calculating cut-offs                               ... done
Setting up the integral package                    ... done
Initializing the effective Hamiltonian             ... done
Starting the Coulomb interaction                   ... done (   0.0 sec)
Reading the grid                                   ... done
Mapping shells                                     ... done
Starting the XC term evaluation                    ... done (   0.0 sec)
  promolecular density results
     # of electrons  =     27.999537490
     EX              =    -58.008978788
     EC              =     -1.228978616
     EX+EC           =    -59.237957404
Transforming the Hamiltonian                       ... done (   0.1 sec)
Diagonalizing the Hamiltonian                      ... done (   0.0 sec)
Back transforming the eigenvectors                 ... done (   0.0 sec)
Now organizing SCF variables                       ... done
                      ------------------
                      INITIAL GUESS DONE (   4.0 sec)
                      ------------------
--------------
SCF ITERATIONS
--------------
ITER       Energy         Delta-E        Max-DP      RMS-DP      [F,P]     Damp
               ***  Starting incremental Fock matrix formation  ***
  0  -1383.2371111121   0.000000000000 0.02663740  0.00109318  0.2940158 0.7000
  1  -1383.2804038539  -0.043292741767 0.01290229  0.00052822  0.0728453 0.7000
                               ***Turning on DIIS***
  2  -1383.2960661963  -0.015662342386 0.03458641  0.00100937  0.0533286 0.0000
  3  -1383.3416863835  -0.045620187278 0.00984673  0.00030159  0.0195013 0.0000
  4  -1383.3446577728  -0.002971389281 0.00619341  0.00017077  0.0225198 0.0000
  5  -1383.3462165845  -0.001558811680 0.00762298  0.00023244  0.0126650 0.0000
  6  -1383.3479019006  -0.001685316090 0.00564276  0.00017817  0.0091469 0.0000
  7  -1383.3485967885  -0.000694887867 0.00256238  0.00008747  0.0041898 0.0000
  8  -1383.3487384582  -0.000141669696 0.00120599  0.00003905  0.0016239 0.0000
  9  -1383.3487683014  -0.000029843196 0.00062731  0.00002474  0.0007554 0.0000
 10  -1383.3487881831  -0.000019881709 0.00028496  0.00000709  0.0001314 0.0000
 11  -1383.3487943913  -0.000006208236 0.00012185  0.00000326  0.0001669 0.0000
 12  -1383.3487974505  -0.000003059160 0.00021253  0.00000402  0.0001415 0.0000
 13  -1383.3488003063  -0.000002855886 0.00020862  0.00000341  0.0000388 0.0000
 14  -1383.3488025539  -0.000002247539 0.00016379  0.00000260  0.0000255 0.0000
 15  -1383.3488040143  -0.000001460432 0.00005575  0.00000089  0.0000118 0.0000
                 **** Energy Check signals convergence ****

               *****************************************************
               *                     SUCCESS                       *
               *           SCF CONVERGED AFTER  16 CYCLES          *
               *****************************************************


Setting up the DFT-NL grid :

General Integration Accuracy     IntAcc      ...  4.340
Radial Grid Type                 RadialGrid  ... Gauss-Chebyshev
Angular Grid (max. acc.)         AngularGrid ... Lebedev-110
Angular grid pruning method      GridPruning ... 3 (G Style)
Weight generation scheme         WeightScheme... Becke
Basis function cutoff            BFCut       ...    1.0000e-10
Integration weight cutoff        WCut        ...    1.0000e-14
Grids for H and He will be reduced by one unit

# of grid points (after initial pruning)     ...   3706 (   0.0 sec)
# of grid points (after weights+screening)   ...   3680 (   0.0 sec)
nearest neighbour list constructed           ...    0.0 sec
Grid point re-assignment to atoms done       ...    0.0 sec
Grid point division into batches done        ...    0.0 sec
Reduced shell lists constructed in    0.0 sec

Total number of grid points                  ...     3680
Total number of batches                      ...       59
Average number of points per batch           ...       62
Average number of grid points per atom       ...     1840
Average number of shells per batch           ...     8.50 (32.69%)
Average number of basis functions per batch  ...    22.50 (26.79%)
Average number of large shells per batch     ...     6.75 (79.41%)
Average number of large basis fcns per batch ...    18.75 (83.33%)
Maximum spatial batch extension              ...  37.20, 28.73, 20.01 au
Average spatial batch extension              ...   1.30,  1.32,  0.87 au

Final grid set up in    2.8 sec

-------------------------------------------------------------------------------
                         DFT-NL dispersion correction                          
-------------------------------------------------------------------------------

SC Energy -1383.348804464 
NL    Energy 0.118785058 
SC+NL Energy -1383.230019405 
NL done in    2.4 sec
-------------------------------------------------------------------------------

----------------
TOTAL SCF ENERGY
----------------

Total Energy       :        -1383.23001941 Eh          -37639.60239 eV

Components:
Nuclear Repulsion  :            9.33232177 Eh             253.94539 eV
Electronic Energy  :        -1392.56234117 Eh          -37893.54777 eV
One Electron Energy:        -1936.85137891 Eh          -52704.40546 eV
Two Electron Energy:          544.28903774 Eh           14810.85769 eV

Virial components:
Potential Energy   :        -2764.50191195 Eh          -75225.92144 eV
Kinetic Energy     :         1381.27189254 Eh           37586.31905 eV
Virial Ratio       :            2.00141763


DFT components:
N(Alpha)           :       14.999999133392 electrons
N(Beta)            :       12.999999805420 electrons
N(Total)           :       27.999998938812 electrons
E(X)               :      -45.744339347010 Eh       
E(C)               :       -1.434943485296 Eh       
NL Energy, E(C,NL) :        0.118785058440 Eh       
E(XC)              :      -47.060497773866 Eh       
DFET-embed. en.    :        0.000000000000 Eh       

---------------
SCF CONVERGENCE
---------------

  Last Energy change         ...   -4.4959e-07  Tolerance :   1.0000e-06
  Last MAX-Density change    ...    1.9092e-05  Tolerance :   1.0000e-05
  Last RMS-Density change    ...    3.3948e-07  Tolerance :   1.0000e-06
  Last DIIS Error            ...    4.9005e-06  Tolerance :   1.0000e-06

             **** THE GBW FILE WAS UPDATED (CoH.gbw) ****
             **** DENSITY FILE WAS UPDATED (CoH.scfp) ****
             **** ENERGY FILE WAS UPDATED (CoH.en.tmp) ****
----------------------
UHF SPIN CONTAMINATION
----------------------

Warning: in a DFT calculation there is little theoretical justification to 
         calculate <S**2> as in Hartree-Fock theory. We will do it anyways
         but you should keep in mind that the values have only limited relevance

Expectation value of <S**2>     :     2.010388
Ideal value S*(S+1) for S=1.0   :     2.000000
Deviation                       :     0.010388

             **** THE GBW FILE WAS UPDATED (CoH.gbw) ****
             **** DENSITY FILE WAS UPDATED (CoH.scfp) ****
----------------
ORBITAL ENERGIES
----------------
                 SPIN UP ORBITALS
  NO   OCC          E(Eh)            E(eV) 
   0   1.0000    -277.980888     -7564.2445 
   1   1.0000     -33.029821      -898.7871 
   2   1.0000     -28.576344      -777.6019 
   3   1.0000     -28.576344      -777.6019 
   4   1.0000     -28.575022      -777.5659 
   5   1.0000      -3.853157      -104.8497 
   6   1.0000      -2.514808       -68.4314 
   7   1.0000      -2.514571       -68.4250 
   8   1.0000      -2.514571       -68.4250 
   9   1.0000      -0.410025       -11.1573 
  10   1.0000      -0.376760       -10.2522 
  11   1.0000      -0.351594        -9.5674 
  12   1.0000      -0.351594        -9.5674 
  13   1.0000      -0.349056        -9.4983 
  14   1.0000      -0.313016        -8.5176 
  15   0.0000      -0.015747        -0.4285 
  16   0.0000       0.029021         0.7897 
  17   0.0000       0.029021         0.7897 
  18   0.0000       0.099762         2.7147 
  19   0.0000       0.114486         3.1153 
  20   0.0000       0.171833         4.6758 
  21   0.0000       0.171833         4.6758 
  22   0.0000       0.216608         5.8942 
  23   0.0000       0.247815         6.7434 
  24   0.0000       0.247815         6.7434 
  25   0.0000       0.269857         7.3432 
  26   0.0000       0.271112         7.3773 
  27   0.0000       0.352711         9.5978 
  28   0.0000       0.357171         9.7191 
  29   0.0000       0.357171         9.7191 
  30   0.0000       0.460976        12.5438 
  31   0.0000       0.540412        14.7053 
  32   0.0000       0.689740        18.7688 
  33   0.0000       0.689740        18.7688 
  34   0.0000       0.730903        19.8889 
  35   0.0000       0.935969        25.4690 
  36   0.0000       0.935969        25.4690 
  37   0.0000       1.075774        29.2733 
  38   0.0000       1.081178        29.4204 
  39   0.0000       1.177196        32.0331 
  40   0.0000       1.236177        33.6381 
  41   0.0000       1.236177        33.6381 
  42   0.0000       1.374182        37.3934 
  43   0.0000       2.514711        68.4288 
  44   0.0000       2.688767        73.1651 
  45   0.0000       2.702470        73.5379 
  46   0.0000       2.702470        73.5379 
  47   0.0000       2.795315        76.0644 
  48   0.0000       2.795315        76.0644 
  49   0.0000       2.798024        76.1381 
  50   0.0000       2.810710        76.4833 
  51   0.0000       2.826327        76.9083 
  52   0.0000       2.826327        76.9083 
  53   0.0000       3.058623        83.2294 
  54   0.0000       3.257055        88.6290 
  55   0.0000       3.351214        91.1912 
  56   0.0000       3.352582        91.2284 
  57   0.0000       3.744147       101.8834 
  58   0.0000       3.744147       101.8834 
  59   0.0000       3.810248       103.6821 
  60   0.0000       3.936427       107.1156 
  61   0.0000       3.962951       107.8374 
  62   0.0000       4.001638       108.8901 
  63   0.0000       4.001638       108.8901 
  64   0.0000       4.031853       109.7123 
  65   0.0000       4.031853       109.7123 
  66   0.0000       4.189021       113.9891 
  67   0.0000       5.116168       139.2180 
  68   0.0000      10.160311       276.4761 
  69   0.0000      10.162086       276.5244 
  70   0.0000      10.169841       276.7355 
  71   0.0000      10.178480       276.9705 
  72   0.0000      10.178480       276.9705 
  73   0.0000      10.190701       277.3031 
  74   0.0000      10.197736       277.4945 
  75   0.0000      10.197736       277.4945 
  76   0.0000      10.216162       277.9959 
  77   0.0000      10.689826       290.8849 
  78   0.0000      10.689826       290.8849 
  79   0.0000      10.702034       291.2172 
  80   0.0000      10.727302       291.9047 
  81   0.0000      10.801025       293.9108 
  82   0.0000      10.801025       293.9108 
  83   0.0000      11.083947       301.6095 

                 SPIN DOWN ORBITALS
  NO   OCC          E(Eh)            E(eV) 
   0   1.0000    -277.979805     -7564.2150 
   1   1.0000     -32.984473      -897.5531 
   2   1.0000     -28.542281      -776.6749 
   3   1.0000     -28.539442      -776.5977 
   4   1.0000     -28.539442      -776.5977 
   5   1.0000      -3.763206      -102.4020 
   6   1.0000      -2.417991       -65.7969 
   7   1.0000      -2.415058       -65.7171 
   8   1.0000      -2.415058       -65.7171 
   9   1.0000      -0.367264        -9.9938 
  10   1.0000      -0.306905        -8.3513 
  11   1.0000      -0.306905        -8.3513 
  12   1.0000      -0.305926        -8.3247 
  13   0.0000      -0.034006        -0.9253 
  14   0.0000       0.008694         0.2366 
  15   0.0000       0.008694         0.2366 
  16   0.0000       0.046605         1.2682 
  17   0.0000       0.093505         2.5444 
  18   0.0000       0.106016         2.8848 
  19   0.0000       0.124970         3.4006 
  20   0.0000       0.161178         4.3859 
  21   0.0000       0.161178         4.3859 
  22   0.0000       0.226209         6.1555 
  23   0.0000       0.244286         6.6474 
  24   0.0000       0.244286         6.6474 
  25   0.0000       0.254735         6.9317 
  26   0.0000       0.264835         7.2065 
  27   0.0000       0.349197         9.5021 
  28   0.0000       0.349197         9.5021 
  29   0.0000       0.353986         9.6325 
  30   0.0000       0.458939        12.4884 
  31   0.0000       0.540800        14.7159 
  32   0.0000       0.687988        18.7211 
  33   0.0000       0.687988        18.7211 
  34   0.0000       0.735114        20.0035 
  35   0.0000       0.936617        25.4866 
  36   0.0000       0.936617        25.4866 
  37   0.0000       1.092139        29.7186 
  38   0.0000       1.099055        29.9068 
  39   0.0000       1.199608        32.6430 
  40   0.0000       1.242031        33.7974 
  41   0.0000       1.242031        33.7974 
  42   0.0000       1.375624        37.4326 
  43   0.0000       2.527651        68.7809 
  44   0.0000       2.688428        73.1558 
  45   0.0000       2.723730        74.1165 
  46   0.0000       2.723730        74.1165 
  47   0.0000       2.817064        76.6562 
  48   0.0000       2.837448        77.2109 
  49   0.0000       2.849431        77.5370 
  50   0.0000       2.849431        77.5370 
  51   0.0000       2.889217        78.6196 
  52   0.0000       2.889217        78.6196 
  53   0.0000       3.095903        84.2438 
  54   0.0000       3.313149        90.1554 
  55   0.0000       3.334640        90.7402 
  56   0.0000       3.336747        90.7975 
  57   0.0000       3.734462       101.6199 
  58   0.0000       3.734462       101.6199 
  59   0.0000       3.889341       105.8344 
  60   0.0000       4.000289       108.8534 
  61   0.0000       4.002853       108.9232 
  62   0.0000       4.002853       108.9232 
  63   0.0000       4.050454       110.2184 
  64   0.0000       4.050454       110.2184 
  65   0.0000       4.051820       110.2556 
  66   0.0000       4.182213       113.8038 
  67   0.0000       5.143305       139.9565 
  68   0.0000      10.232671       278.4451 
  69   0.0000      10.234556       278.4964 
  70   0.0000      10.234556       278.4964 
  71   0.0000      10.250731       278.9366 
  72   0.0000      10.250889       278.9409 
  73   0.0000      10.257128       279.1106 
  74   0.0000      10.271080       279.4903 
  75   0.0000      10.271080       279.4903 
  76   0.0000      10.315946       280.7112 
  77   0.0000      10.760721       292.8141 
  78   0.0000      10.792256       293.6722 
  79   0.0000      10.799191       293.8609 
  80   0.0000      10.799191       293.8609 
  81   0.0000      10.902118       296.6617 
  82   0.0000      10.902118       296.6617 
  83   0.0000      11.207781       304.9792 

                    ********************************
                    * MULLIKEN POPULATION ANALYSIS *
                    ********************************

--------------------------------------------
MULLIKEN ATOMIC CHARGES AND SPIN POPULATIONS
--------------------------------------------
   0 Co:    0.032202    2.070850
   1 H :   -0.032202   -0.070850
Sum of atomic charges         :   -0.0000000
Sum of atomic spin populations:    2.0000000

-----------------------------------------------------
MULLIKEN REDUCED ORBITAL CHARGES AND SPIN POPULATIONS
-----------------------------------------------------
CHARGE
  0 Cos       :     6.833887  s :     6.833887
      pz      :     4.126397  p :    12.130121
      px      :     4.001862
      py      :     4.001862
      dz2     :     1.012044  d :     8.003032
      dxz     :     1.995547
      dyz     :     1.995547
      dx2y2   :     1.999928
      dxy     :     0.999965
      f0      :     0.000462  f :     0.000733
      f+1     :     0.000063
      f-1     :     0.000063
      f+2     :     0.000052
      f-2     :     0.000025
      f+3     :     0.000034
      f-3     :     0.000034
      g0      :     0.000010  g :     0.000025
      g+1     :     0.000000
      g-1     :     0.000000
      g+2     :     0.000001
      g-2     :     0.000003
      g+3     :     0.000002
      g-3     :     0.000002
      g+4     :     0.000008
      g-4     :     0.000000
  1 H s       :     1.037717  s :     1.037717
      pz      :    -0.011266  p :    -0.007195
      px      :     0.002036
      py      :     0.002036
      dz2     :     0.000742  d :     0.001680
      dxz     :     0.000456
      dyz     :     0.000456
      dx2y2   :     0.000019
      dxy     :     0.000007

SPIN
  0 Cos       :     0.224710  s :     0.224710
      pz      :    -0.003662  p :    -0.005321
      px      :    -0.000829
      py      :    -0.000829
      dz2     :     0.848853  d :     1.851556
      dxz     :     0.001366
      dyz     :     0.001366
      dx2y2   :     0.000005
      dxy     :     0.999965
      f0      :    -0.000036  f :    -0.000097
      f+1     :    -0.000017
      f-1     :    -0.000017
      f+2     :    -0.000001
      f-2     :     0.000025
      f+3     :    -0.000026
      f-3     :    -0.000026
      g0      :     0.000000  g :     0.000001
      g+1     :     0.000000
      g-1     :     0.000000
      g+2     :    -0.000000
      g-2     :     0.000003
      g+3     :    -0.000000
      g-3     :    -0.000000
      g+4     :    -0.000001
      g-4     :    -0.000000
  1 H s       :    -0.066950  s :    -0.066950
      pz      :    -0.003303  p :    -0.004268
      px      :    -0.000483
      py      :    -0.000483
      dz2     :     0.000387  d :     0.000368
      dxz     :    -0.000011
      dyz     :    -0.000011
      dx2y2   :    -0.000004
      dxy     :     0.000007


                     *******************************
                     * LOEWDIN POPULATION ANALYSIS *
                     *******************************

-------------------------------------------
LOEWDIN ATOMIC CHARGES AND SPIN POPULATIONS
-------------------------------------------
   0 Co:    0.228467    1.994787
   1 H :   -0.228467    0.005213

----------------------------------------------------
LOEWDIN REDUCED ORBITAL CHARGES AND SPIN POPULATIONS
----------------------------------------------------
CHARGE
  0 Cos       :     6.653605  s :     6.653605
      pz      :     4.137286  p :    12.141753
      px      :     4.002234
      py      :     4.002234
      dz2     :     1.033101  d :     7.974634
      dxz     :     1.971030
      dyz     :     1.971030
      dx2y2   :     1.999629
      dxy     :     0.999843
      f0      :     0.001028  f :     0.001513
      f+1     :     0.000169
      f-1     :     0.000169
      f+2     :     0.000054
      f-2     :     0.000026
      f+3     :     0.000034
      f-3     :     0.000034
      g0      :     0.000012  g :     0.000028
      g+1     :     0.000000
      g-1     :     0.000000
      g+2     :     0.000001
      g-2     :     0.000003
      g+3     :     0.000002
      g-3     :     0.000002
      g+4     :     0.000008
      g-4     :     0.000000
  1 H s       :     1.090815  s :     1.090815
      pz      :     0.077763  p :     0.122024
      px      :     0.022131
      py      :     0.022131
      dz2     :     0.006383  d :     0.015628
      dxz     :     0.004401
      dyz     :     0.004401
      dx2y2   :     0.000316
      dxy     :     0.000128

SPIN
  0 Cos       :     0.169669  s :     0.169669
      pz      :    -0.014873  p :    -0.017510
      px      :    -0.001318
      py      :    -0.001318
      dz2     :     0.836340  d :     1.842797
      dxz     :     0.003292
      dyz     :     0.003292
      dx2y2   :     0.000029
      dxy     :     0.999843
      f0      :    -0.000095  f :    -0.000165
      f+1     :    -0.000022
      f-1     :    -0.000022
      f+2     :    -0.000001
      f-2     :     0.000026
      f+3     :    -0.000026
      f-3     :    -0.000026
      g0      :    -0.000003  g :    -0.000003
      g+1     :    -0.000000
      g-1     :    -0.000000
      g+2     :    -0.000000
      g-2     :     0.000003
      g+3     :    -0.000000
      g-3     :    -0.000000
      g+4     :    -0.000001
      g-4     :    -0.000000
  1 H s       :    -0.012138  s :    -0.012138
      pz      :     0.018903  p :     0.015260
      px      :    -0.001821
      py      :    -0.001821
      dz2     :     0.002199  d :     0.002091
      dxz     :    -0.000104
      dyz     :    -0.000104
      dx2y2   :    -0.000028
      dxy     :     0.000128


                      *****************************
                      * MAYER POPULATION ANALYSIS *
                      *****************************

  NA   - Mulliken gross atomic population
  ZA   - Total nuclear charge
  QA   - Mulliken gross atomic charge
  VA   - Mayer's total valence
  BVA  - Mayer's bonded valence
  FA   - Mayer's free valence

  ATOM       NA         ZA         QA         VA         BVA        FA
  0 Co    26.9678    27.0000     0.0322     2.9907     0.9785     2.0122
  1 H      1.0322     1.0000    -0.0322     0.9829     0.9785     0.0044

  Mayer bond orders larger than 0.100000
B(  0-Co,  1-H ) :   0.9785 

-------
TIMINGS
-------

Total SCF time: 0 days 0 hours 3 min 26 sec 

Total time                  ....     206.596 sec
Sum of individual times     ....     202.708 sec  ( 98.1%)

Fock matrix formation       ....     191.444 sec  ( 92.7%)
  XC integration            ....     187.604 sec  ( 98.0% of F)
    Basis function eval.    ....       0.019 sec  (  0.0% of XC)
    Density eval.           ....       0.045 sec  (  0.0% of XC)
    XC-Functional eval.     ....       0.029 sec  (  0.0% of XC)
    XC-Potential eval.      ....       0.094 sec  (  0.1% of XC)
Diagonalization             ....       3.594 sec  (  1.7%)
Density matrix formation    ....       0.010 sec  (  0.0%)
Population analysis         ....       0.654 sec  (  0.3%)
Initial guess               ....       1.243 sec  (  0.6%)
Orbital Transformation      ....       0.000 sec  (  0.0%)
Orbital Orthonormalization  ....       0.000 sec  (  0.0%)
DIIS solution               ....       0.167 sec  (  0.1%)
Grid generation             ....       5.597 sec  (  2.7%)

-------------------------   --------------------
FINAL SINGLE POINT ENERGY     -1383.230019405462
-------------------------   --------------------


----------------------------------------------------------------------------
                           ORCA NUMERICAL GRADIENT
                              (28-process run)
----------------------------------------------------------------------------

I state                        ... 1
J state                        ... 0
Number of atoms                ... 2
Derivative's order of accuracy ... 2
Central differences            ... used
Number of displacements        ... 12
Numerical increment            ... 5.000e-03 bohr
Translation invariance         ... used

The output will be reduced. Please look at the following files:
SCF program output             ... >CoH.lastscf
Integral program output        ... >CoH.lastint
Gradient program output        ... >CoH.lastgrad


     Note:   There are more processes than displacements to do
     ===>:   Reducing number of processes to   3

             <<<Displacing   2/coordinate 1 (+)>>>
             <<<Displacing   2/coordinate 3 (+)>>>
             <<<Displacing   2/coordinate 2 (+)>>>
             <<<Displacing   2/coordinate 1 (-)>>>
             <<<Displacing   2/coordinate 2 (-)>>>
             <<<Displacing   2/coordinate 3 (-)>>>

------------------------------
CARTESIAN GRADIENT (NUMERICAL)
-------------------------------
   1   Co  :   -0.000001064   -0.000000165    0.004120172
   2   H   :    0.000001064    0.000000165   -0.004120172

Norm of the cartesian gradient     ...    0.005826803
RMS gradient                       ...    0.002378782
MAX gradient                       ...    0.004120172

-------
TIMINGS
-------

Total numerical gradient time      ...       24.420 sec


                            ***************************************
                            *     ORCA property calculations      *
                            ***************************************

                                    ---------------------
                                    Active property flags
                                    ---------------------
   (+) Dipole Moment


------------------------------------------------------------------------------
                       ORCA ELECTRIC PROPERTIES CALCULATION
------------------------------------------------------------------------------

Dipole Moment Calculation                       ... on
Quadrupole Moment Calculation                   ... off
Polarizability Calculation                      ... off
GBWName                                         ... CoH.gbw
Electron density file                           ... CoH.scfp
The origin for moment calculation is the CENTER OF MASS  = ( 0.000000,  0.000000  0.048656)

-------------
DIPOLE MOMENT
-------------
                                X             Y             Z
Electronic contribution:     -0.00000      -0.00000      -2.82244
Nuclear contribution   :      0.00000       0.00000       1.53082
                        -----------------------------------------
Total Dipole Moment    :     -0.00000      -0.00000      -1.29163
                        -----------------------------------------
Magnitude (a.u.)       :      1.29163
Magnitude (Debye)      :      3.28305



--------------------
Rotational spectrum 
--------------------
 
Rotational constants in cm-1:     0.000000     7.256911     7.256911 
Rotational constants in MHz :     0.000000 217556.717096 217556.717096 

 Dipole components along the rotational axes: 
x,y,z [a.u.] :    -1.291625    -0.000000    -0.000000 
x,y,z [Debye]:    -3.283050    -0.000000    -0.000000 

 

Timings for individual modules:

Sum of individual times         ...      238.410 sec (=   3.974 min)
GTO integral calculation        ...        6.571 sec (=   0.110 min)   2.8 %
SCF iterations                  ...      207.419 sec (=   3.457 min)  87.0 %
SCF Gradient evaluation         ...       24.420 sec (=   0.407 min)  10.2 %
                             ****ORCA TERMINATED NORMALLY****
TOTAL RUN TIME: 0 days 0 hours 5 minutes 18 seconds 93 msec
