
                                 *****************
                                 * O   R   C   A *
                                 *****************

           --- An Ab Initio, DFT and Semiempirical electronic structure package ---

                  #######################################################
                  #                        -***-                        #
                  #          Department of theory and spectroscopy      #
                  #               Directorship: Frank Neese             #
                  #        Max Planck Institute fuer Kohlenforschung    #
                  #                Kaiser Wilhelm Platz 1               #
                  #                 D-45470 Muelheim/Ruhr               #
                  #                      Germany                        #
                  #                                                     #
                  #                  All rights reserved                #
                  #                        -***-                        #
                  #######################################################


                         Program Version 4.2.0 -  RELEASE  -


 With contributions from (in alphabetic order):
   Daniel Aravena         : Magnetic Suceptibility
   Michael Atanasov       : Ab Initio Ligand Field Theory (pilot matlab implementation)
   Alexander A. Auer      : GIAO ZORA, VPT2
   Ute Becker             : Parallelization
   Giovanni Bistoni       : ED, misc. LED, open-shell LED, HFLED
   Martin Brehm           : Molecular dynamics
   Dmytro Bykov           : SCF Hessian
   Vijay G. Chilkuri      : MRCI spin determinant printing, contributions to CSF-ICE
   Dipayan Datta          : RHF DLPNO-CCSD density
   Achintya Kumar Dutta   : EOM-CC, STEOM-CC
   Dmitry Ganyushin       : Spin-Orbit,Spin-Spin,Magnetic field MRCI
   Miquel Garcia          : C-PCM Hessian, Gaussian charge scheme
   Yang Guo               : DLPNO-NEVPT2, CIM, IAO-localization
   Andreas Hansen         : Spin unrestricted coupled pair/coupled cluster methods
   Benjamin Helmich-Paris : CASSCF linear response (MC-RPA)
   Lee Huntington         : MR-EOM, pCC
   Robert Izsak           : Overlap fitted RIJCOSX, COSX-SCS-MP3, EOM
   Christian Kollmar      : KDIIS, OOCD, Brueckner-CCSD(T), CCSD density
   Simone Kossmann        : Meta GGA functionals, TD-DFT gradient, OOMP2, MP2 Hessian
   Martin Krupicka        : AUTO-CI
   Lucas Lang             : DCDCAS
   Dagmar Lenk            : GEPOL surface, SMD
   Dimitrios Liakos       : Extrapolation schemes; Compound Job, initial MDCI parallelization
   Dimitrios Manganas     : Further ROCIS development; embedding schemes
   Dimitrios Pantazis     : SARC Basis sets
   Taras Petrenko         : DFT Hessian,TD-DFT gradient, ASA, ECA, R-Raman, ABS, FL, XAS/XES, NRVS
   Peter Pinski           : DLPNO-MP2, DLPNO-MP2 Gradient
   Christoph Reimann      : Effective Core Potentials
   Marius Retegan         : Local ZFS, SOC
   Christoph Riplinger    : Optimizer, TS searches, QM/MM, DLPNO-CCSD(T), (RO)-DLPNO pert. Triples
   Tobias Risthaus        : Range-separated hybrids, TD-DFT gradient, RPA, STAB
   Michael Roemelt        : Original ROCIS implementation
   Masaaki Saitow         : Open-shell DLPNO-CCSD energy and density
   Barbara Sandhoefer     : DKH picture change effects
   Avijit Sen             : IP-ROCIS
   Kantharuban Sivalingam : CASSCF convergence, NEVPT2, FIC-MRCI
   Bernardo de Souza      : ESD, SOC TD-DFT
   Georgi Stoychev        : AutoAux, RI-MP2 NMR
   Willem Van den Heuvel  : Paramagnetic NMR
   Boris Wezisla          : Elementary symmetry handling
   Frank Wennmohs         : Technical directorship


 We gratefully acknowledge several colleagues who have allowed us to
 interface, adapt or use parts of their codes:
   Stefan Grimme, W. Hujo, H. Kruse,             : VdW corrections, initial TS optimization,
                  C. Bannwarth                     DFT functionals, gCP, sTDA/sTD-DF
   Ed Valeev, F. Pavosevic, A. Kumar             : LibInt (2-el integral package), F12 methods
   Garnet Chan, S. Sharma, J. Yang, R. Olivares  : DMRG
   Ulf Ekstrom                                   : XCFun DFT Library
   Mihaly Kallay                                 : mrcc  (arbitrary order and MRCC methods)
   Andreas Klamt, Michael Diedenhofen            : otool_cosmo (COSMO solvation model)
   Jiri Pittner, Ondrej Demel                    : Mk-CCSD
   Frank Weinhold                                : gennbo (NPA and NBO analysis)
   Christopher J. Cramer and Donald G. Truhlar   : smd solvation model
   Lars Goerigk                                  : TD-DFT with DH, B97 family of functionals
   V. Asgeirsson, H. Jonsson                     : NEB implementation
   FAccTs GmbH                                   : IRC, NEB, NEB-TS, Multilevel, MM, QM/MM, CI optimization
   S Lehtola, MJT Oliveira, MAL Marques          : LibXC Library


 Your calculation uses the libint2 library for the computation of 2-el integrals
 For citations please refer to: http://libint.valeyev.net

 Your ORCA version has been built with support for libXC version: 4.2.3
 For citations please refer to: https://tddft.org/programs/libxc/

 This ORCA versions uses:
   CBLAS   interface :  Fast vector & matrix operations
   LAPACKE interface :  Fast linear algebra routines
   SCALAPACK package :  Parallel linear algebra routines


Your calculation utilizes the DFT-NL dispersion correction.
Cite in your paper:
Vydrov, O. A.; Van Voorhis, T. J. Chem. Phys. 2010, 133, 244103
Hujo, W.; Grimme, S. J. Chem. Theory Comput. 2011, 7, 3866 
   

----- Orbital basis set information -----
Your calculation utilizes the basis: def2-TZVPPD
   F. Weigend and R. Ahlrichs, Phys. Chem. Chem. Phys. 7, 3297 (2005).
   D. Rappoport and F. Furche, J. Chem. Phys. 133 134105 (2010).

----- AuxJK basis set information -----
Your calculation utilizes the auxiliary basis: def2/JK
   H-Ba, Hf-Rn: F. Weigend, J. Comput. Chem. 29, 167 (2008).

================================================================================
                                        WARNINGS
                       Please study these warnings very carefully!
================================================================================

INFO   : Found keyword 'NumGrad' for Energy calculation
  ===> : Setting RunTyp to EnGrad

WARNING: Numerical Gradient with sloppy Convergence Criteria    
         Your results may be not reliable!                      
         Please choose at least TightSCF!                       

WARNING: your system is open-shell and RHF/RKS was chosen
  ===> : WILL SWITCH to UHF/UKS


INFO   : the flag for use of LIBINT has been found!

================================================================================
                                       INPUT FILE
================================================================================
NAME = Cr+.in
|  1> #
|  2> # Cr+ wB97M-V/Def2-TZVPPD
|  3> #
|  4> ! wb97m-v def2-tzvppd def2/jk grid4 nofinalgrid numgrad
|  5> 
|  6> *xyz 1 6
|  7> Cr         0.00000        0.00000        0.00000
|  8> *
|  9> 
| 10> %maxcore 5000
| 11> 
| 12> %pal
| 13> nprocs = 28
| 14> end
| 15> 
| 16> 
| 17>                          ****END OF INPUT****
================================================================================

                     *******************************
                     * Energy+Gradient Calculation *
                     *******************************

---------------------------------
CARTESIAN COORDINATES (ANGSTROEM)
---------------------------------
  Cr     0.000000    0.000000    0.000000

----------------------------
CARTESIAN COORDINATES (A.U.)
----------------------------
  NO LB      ZA    FRAG     MASS         X           Y           Z
   0 Cr   24.0000    0    52.000    0.000000    0.000000    0.000000

--------------------------------
INTERNAL COORDINATES (ANGSTROEM)
--------------------------------
 Cr     0   0   0     0.000000000000     0.00000000     0.00000000

---------------------------
INTERNAL COORDINATES (A.U.)
---------------------------
 Cr     0   0   0     0.000000000000     0.00000000     0.00000000

---------------------
BASIS SET INFORMATION
---------------------
There are 1 groups of distinct atoms

 Group   1 Type Cr  : 17s13p7d2f1g contracted to 6s6p4d2f1g pattern {842111/631111/4111/11/1}

Atom   0Cr   basis set group =>   1
----------------------------------
AUXILIARY/JK BASIS SET INFORMATION
----------------------------------
There are 1 groups of distinct atoms

 Group   1 Type Cr  : 19s14p12d10f7g3h1i contracted to 16s13p11d9f5g3h1i pattern {4111111111111111/2111111111111/21111111111/211111111/31111/111/1}

Atom   0Cr   basis set group =>   1


           ************************************************************
           *        Program running with 28 parallel MPI-processes    *
           *              working on a common directory               *
           ************************************************************
------------------------------------------------------------------------------
                           ORCA GTO INTEGRAL CALCULATION
------------------------------------------------------------------------------

                         BASIS SET STATISTICS AND STARTUP INFO

 # of primitive gaussian shells          ...   40
 # of primitive gaussian functions       ...  114
 # of contracted shells                  ...   19
 # of contracted basis functions         ...   67
 Highest angular momentum                ...    4
 Maximum contraction depth               ...    8
 Integral package used                   ... LIBINT
 Integral threshhold            Thresh   ...  1.000e-10
 Primitive cut-off              TCut     ...  1.000e-11


------------------------------ INTEGRAL EVALUATION ----------------------------


 * One electron integrals 
 Pre-screening matrix                    ... done
 Shell pair data                         ... done (   0.000 sec)



           ************************************************************
           *        Program running with 28 parallel MPI-processes    *
           *              working on a common directory               *
           ************************************************************
-------------------------------------------------------------------------------
                                 ORCA SCF
-------------------------------------------------------------------------------

------------
SCF SETTINGS
------------
Hamiltonian:
 Density Functional     Method          .... DFT(GTOs)
 Exchange Functional    Exchange        .... WB97M-V
 Correlation Functional Correlation     .... WB97M-V
 Gradients option       PostSCFGGA      .... off
 Hybrid DFT is turned on
   Fraction HF Exchange ScalHFX         ....  0.150000
   Scaling of DF-GGA-X  ScalDFX         ....  0.000000
   Scaling of DF-GGA-C  ScalDFC         ....  1.000000
   Scaling of DF-LDA-C  ScalLDAC        ....  1.000000
   Perturbative correction              ....  0.000000
   Density functional embedding theory  .... OFF
 Long-range corrected/Screened/Range-Separated Hybrid DFT is turned on
   Amount of maximum screened exact exchange              ....  0.850000
   Range separation parameter mu (erf(mu*r12)/r12)        ....  0.300000
   NL short-range parameter             ....  6.000000
   NL long-range parameter              ....  0.010000


General Settings:
 Integral files         IntName         .... Cr+
 Hartree-Fock type      HFTyp           .... UHF
 Total Charge           Charge          ....    1
 Multiplicity           Mult            ....    6
 Number of Electrons    NEL             ....   23
 Basis Dimension        Dim             ....   67
 Nuclear Repulsion      ENuc            ....      0.0000000000 Eh

Convergence Acceleration:
 DIIS                   CNVDIIS         .... on
   Start iteration      DIISMaxIt       ....    12
   Startup error        DIISStart       ....  0.200000
   # of expansion vecs  DIISMaxEq       ....     5
   Bias factor          DIISBfac        ....   1.050
   Max. coefficient     DIISMaxC        ....  10.000
 Newton-Raphson         CNVNR           .... off
 SOSCF                  CNVSOSCF        .... off
 Level Shifting         CNVShift        .... on
   Level shift para.    LevelShift      ....    0.2500
   Turn off err/grad.   ShiftErr        ....    0.0010
 Zerner damping         CNVZerner       .... off
 Static damping         CNVDamp         .... on
   Fraction old density DampFac         ....    0.7000
   Max. Damping (<1)    DampMax         ....    0.9800
   Min. Damping (>=0)   DampMin         ....    0.0000
   Turn off err/grad.   DampErr         ....    0.1000
 Fernandez-Rico         CNVRico         .... off

SCF Procedure:
 Maximum # iterations   MaxIter         ....   125
 SCF integral mode      SCFMode         .... Direct
   Integral package                     .... LIBINT
 Reset frequency        DirectResetFreq ....    20
 Integral Threshold     Thresh          ....  1.000e-10 Eh
 Primitive CutOff       TCut            ....  1.000e-11 Eh

Convergence Tolerance:
 Convergence Check Mode ConvCheckMode   .... Total+1el-Energy
 Convergence forced     ConvForced      .... 0
 Energy Change          TolE            ....  1.000e-06 Eh
 1-El. energy change                    ....  1.000e-03 Eh
 DIIS Error             TolErr          ....  1.000e-06


Diagonalization of the overlap matrix:
Smallest eigenvalue                        ... 4.166e-02
Time for diagonalization                   ...    0.002 sec
Threshold for overlap eigenvalues          ... 1.000e-08
Number of eigenvalues below threshold      ... 0
Time for construction of square roots      ...    0.097 sec
Total time needed                          ...    0.099 sec

-------------------
DFT GRID GENERATION
-------------------

General Integration Accuracy     IntAcc      ...  4.670
Radial Grid Type                 RadialGrid  ... Gauss-Chebyshev
Angular Grid (max. acc.)         AngularGrid ... Lebedev-302
Angular grid pruning method      GridPruning ... 3 (G Style)
Weight generation scheme         WeightScheme... Becke
Basis function cutoff            BFCut       ...    1.0000e-10
Integration weight cutoff        WCut        ...    1.0000e-14
Grids for H and He will be reduced by one unit

# of grid points (after initial pruning)     ...   9664 (   0.0 sec)
# of grid points (after weights+screening)   ...   9664 (   0.0 sec)
Grid point division into batches done        ...    0.1 sec
Reduced shell lists constructed in    0.1 sec

Total number of grid points                  ...     9664
Total number of batches                      ...      152
Average number of points per batch           ...       63
Average number of grid points per atom       ...     9664
Average number of shells per batch           ...     3.43 (18.05%)
Average number of basis functions per batch  ...    10.29 (15.35%)
Average number of large shells per batch     ...     3.43 (100.00%)
Average number of large basis fcns per batch ...    10.29 (100.00%)
Maximum spatial batch extension              ...  22.27, 22.27, 22.27 au
Average spatial batch extension              ...   0.77,  0.76,  0.74 au

Time for grid setup =    1.067 sec

------------------------------
INITIAL GUESS: MODEL POTENTIAL
------------------------------
Loading Hartree-Fock densities                     ... done
Calculating cut-offs                               ... done
Setting up the integral package                    ... done
Initializing the effective Hamiltonian             ... done
Starting the Coulomb interaction                   ... done (   0.0 sec)
Reading the grid                                   ... done
Mapping shells                                     ... done
Starting the XC term evaluation                    ... done (   0.0 sec)
  promolecular density results
     # of electrons  =     24.000004859
     EX              =    -47.171868566
     EC              =     -1.006455159
     EX+EC           =    -48.178323726
Transforming the Hamiltonian                       ... done (   0.0 sec)
Diagonalizing the Hamiltonian                      ... done (   0.0 sec)
Back transforming the eigenvectors                 ... done (   0.0 sec)
Now organizing SCF variables                       ... done
                      ------------------
                      INITIAL GUESS DONE (   1.3 sec)
                      ------------------
--------------
SCF ITERATIONS
--------------
ITER       Energy         Delta-E        Max-DP      RMS-DP      [F,P]     Damp
               ***  Starting incremental Fock matrix formation  ***
  0  -1044.1884746317   0.000000000000 0.01442850  0.00050634  0.0997526 0.7000
  1  -1044.1935462890  -0.005071657264 0.11703105  0.00286877  0.0568141 0.7000
                               ***Turning on DIIS***
  2  -1044.0756207023   0.117925586744 0.07312194  0.00143978  0.1178163 0.7000
  3  -1044.0852632876  -0.009642585347 0.02739919  0.00081182  0.1189205 0.7000
  4  -1044.1097034501  -0.024440162451 0.02545225  0.00070798  0.1102341 0.7000
  5  -1044.1210341966  -0.011330746516 0.50631678  0.01259833  0.1285335 0.7000
  6  -1042.1128394706   2.008194726020 0.34617444  0.00846708  0.3603729 0.7000
  7  -1040.5924541686   1.520385301957 0.25574820  0.00640373  0.5479463 0.7000
  8  -1041.7120252988  -1.119571130248 0.17902379  0.00453109  0.4174548 0.7000
  9  -1042.4775521042  -0.765526805359 0.12531665  0.00317897  0.3073133 0.7000
 10  -1043.0037335438  -0.526181439619 0.08772166  0.00226138  0.2300071 0.7000
 11  -1043.3751645558  -0.371431011960 0.06140516  0.00158092  0.1604924 0.7000
 12  -1043.6308815961  -0.255717040338 0.04298361  0.00110704  0.1123213 0.7000
 13  -1043.8076329261  -0.176751330009 0.10029510  0.00257958  0.0771162 0.0000
 14  -1044.2030018462  -0.395368920072 4.74189807  0.09094245  0.0089974 0.0000
 15  -1042.0897692470   2.113232599246 0.00096409  0.00002568  0.2312641 0.7000
 16  -1042.0896019797   0.000167267287 0.00124071  0.00003137  0.2313190 0.7000
 17  -1042.0894402203   0.000161759362 0.00141803  0.00003420  0.2313916 0.7000
 18  -1042.0893930400   0.000047180311 0.00387796  0.00009302  0.2314126 0.7000
 19  -1042.0902219661  -0.000828926065 1.42265672  0.02734842  0.2306648 0.7000
               *** Restarting incremental Fock matrix formation ***
                                   *** Resetting DIIS ***
 20  -1042.7859601667  -0.695738200655 3.31953214  0.06368633  0.0717829 0.0000
 21  -1044.0593746244  -1.273414457725 0.00983167  0.00038655  0.2212720 0.7000
 22  -1044.0869597416  -0.027585117141 0.00875977  0.00032990  0.1936046 0.7000
 23  -1044.1094008037  -0.022441062104 0.00724186  0.00026541  0.1697559 0.7000
 24  -1044.1265133972  -0.017112593513 0.00624502  0.00022288  0.1505263 0.7000
 25  -1044.1400649089  -0.013551511733 0.01730280  0.00060382  0.1344311 0.7000
 26  -1044.1646136351  -0.024548726156 0.04366942  0.00149739  0.0908943 0.0000
 27  -1044.2035747632  -0.038961128145 0.00422065  0.00012721  0.0105019 0.0000
 28  -1044.2035222404   0.000052522816 0.00196123  0.00006041  0.0033541 0.0000
 29  -1044.2034005274   0.000121713056 0.00077695  0.00002488  0.0005138 0.0000
 30  -1044.2033116355   0.000088891841 0.00046193  0.00001307  0.0001379 0.0000
 31  -1044.2032973024   0.000014333072 0.00022998  0.00000687  0.0020708 0.0000
 32  -1044.2032954273   0.000001875176 0.00023931  0.00000408  0.0002795 0.0000
 33  -1044.2032933862   0.000002041066 0.00004795  0.00000092  0.0003226 0.0000
                 **** Energy Check signals convergence ****

               *****************************************************
               *                     SUCCESS                       *
               *           SCF CONVERGED AFTER  34 CYCLES          *
               *****************************************************


Setting up the DFT-NL grid :

General Integration Accuracy     IntAcc      ...  4.340
Radial Grid Type                 RadialGrid  ... Gauss-Chebyshev
Angular Grid (max. acc.)         AngularGrid ... Lebedev-110
Angular grid pruning method      GridPruning ... 3 (G Style)
Weight generation scheme         WeightScheme... Becke
Basis function cutoff            BFCut       ...    1.0000e-10
Integration weight cutoff        WCut        ...    1.0000e-14
Grids for H and He will be reduced by one unit

# of grid points (after initial pruning)     ...   2972 (   0.0 sec)
# of grid points (after weights+screening)   ...   2972 (   0.0 sec)
Grid point division into batches done        ...    0.0 sec
Reduced shell lists constructed in    0.0 sec

Total number of grid points                  ...     2972
Total number of batches                      ...       47
Average number of points per batch           ...       63
Average number of grid points per atom       ...     2972
Average number of shells per batch           ...     4.67 (24.56%)
Average number of basis functions per batch  ...    14.00 (20.90%)
Average number of large shells per batch     ...     4.67 (100.00%)
Average number of large basis fcns per batch ...    14.00 (100.00%)
Maximum spatial batch extension              ...  18.71, 28.73, 28.73 au
Average spatial batch extension              ...   0.80,  1.22,  1.22 au

Final grid set up in    2.3 sec

-------------------------------------------------------------------------------
                         DFT-NL dispersion correction                          
-------------------------------------------------------------------------------

SC Energy -1044.203293462 
NL    Energy 0.099355406 
SC+NL Energy -1044.103938056 
NL done in    2.1 sec
-------------------------------------------------------------------------------

----------------
TOTAL SCF ENERGY
----------------

Total Energy       :        -1044.10393806 Eh          -28411.51257 eV

Components:
Nuclear Repulsion  :            0.00000000 Eh               0.00000 eV
Electronic Energy  :        -1044.10393806 Eh          -28411.51257 eV
One Electron Energy:        -1432.43718584 Eh          -38978.59746 eV
Two Electron Energy:          388.33324779 Eh           10567.08489 eV

Virial components:
Potential Energy   :        -2086.70103974 Eh          -56782.02203 eV
Kinetic Energy     :         1042.59710168 Eh           28370.50947 eV
Virial Ratio       :            2.00144527


DFT components:
N(Alpha)           :       13.999999926990 electrons
N(Beta)            :        8.999999968169 electrons
N(Total)           :       22.999999895159 electrons
E(X)               :      -37.202386659858 Eh       
E(C)               :       -1.130457378796 Eh       
NL Energy, E(C,NL) :        0.099355406336 Eh       
E(XC)              :      -38.233488632318 Eh       
DFET-embed. en.    :        0.000000000000 Eh       

---------------
SCF CONVERGENCE
---------------

  Last Energy change         ...   -7.6092e-08  Tolerance :   1.0000e-06
  Last MAX-Density change    ...    4.0881e-05  Tolerance :   1.0000e-05
  Last RMS-Density change    ...    8.3379e-07  Tolerance :   1.0000e-06
  Last DIIS Error            ...    2.7931e-04  Tolerance :   1.0000e-06

             **** THE GBW FILE WAS UPDATED (Cr+.gbw) ****
             **** DENSITY FILE WAS UPDATED (Cr+.scfp) ****
             **** ENERGY FILE WAS UPDATED (Cr+.en.tmp) ****
----------------------
UHF SPIN CONTAMINATION
----------------------

Warning: in a DFT calculation there is little theoretical justification to 
         calculate <S**2> as in Hartree-Fock theory. We will do it anyways
         but you should keep in mind that the values have only limited relevance

Expectation value of <S**2>     :     8.750535
Ideal value S*(S+1) for S=2.5   :     8.750000
Deviation                       :     0.000535

             **** THE GBW FILE WAS UPDATED (Cr+.gbw) ****
             **** DENSITY FILE WAS UPDATED (Cr+.scfp) ****
----------------
ORBITAL ENERGIES
----------------
                 SPIN UP ORBITALS
  NO   OCC          E(Eh)            E(eV) 
   0   1.0000    -216.353026     -5887.2651 
   1   1.0000     -25.088971      -682.7056 
   2   1.0000     -21.293738      -579.4321 
   3   1.0000     -21.293706      -579.4312 
   4   1.0000     -21.293677      -579.4304 
   5   1.0000      -3.252586       -88.5074 
   6   1.0000      -2.195768       -59.7499 
   7   1.0000      -2.195746       -59.7493 
   8   1.0000      -2.195720       -59.7486 
   9   1.0000      -0.560103       -15.2412 
  10   1.0000      -0.560102       -15.2412 
  11   1.0000      -0.560099       -15.2411 
  12   1.0000      -0.560088       -15.2408 
  13   1.0000      -0.560086       -15.2407 
  14   0.0000      -0.256602        -6.9825 
  15   0.0000      -0.152726        -4.1559 
  16   0.0000      -0.152724        -4.1558 
  17   0.0000      -0.152720        -4.1557 
  18   0.0000      -0.044070        -1.1992 
  19   0.0000      -0.033551        -0.9130 
  20   0.0000      -0.033550        -0.9129 
  21   0.0000      -0.033537        -0.9126 
  22   0.0000      -0.033527        -0.9123 
  23   0.0000      -0.033525        -0.9123 
  24   0.0000      -0.031608        -0.8601 
  25   0.0000      -0.031604        -0.8600 
  26   0.0000      -0.031597        -0.8598 
  27   0.0000       0.260260         7.0820 
  28   0.0000       0.260310         7.0834 
  29   0.0000       0.260356         7.0847 
  30   0.0000       0.364337         9.9141 
  31   0.0000       0.364341         9.9142 
  32   0.0000       0.364370         9.9150 
  33   0.0000       0.364396         9.9157 
  34   0.0000       0.364401         9.9159 
  35   0.0000       1.364923        37.1414 
  36   0.0000       1.364924        37.1415 
  37   0.0000       1.364949        37.1421 
  38   0.0000       1.364957        37.1424 
  39   0.0000       1.364965        37.1426 
  40   0.0000       1.364992        37.1433 
  41   0.0000       1.364992        37.1433 
  42   0.0000       1.634792        44.4850 
  43   0.0000       1.634815        44.4856 
  44   0.0000       1.634841        44.4863 
  45   0.0000       1.779104        48.4119 
  46   0.0000       1.936186        52.6863 
  47   0.0000       1.936186        52.6863 
  48   0.0000       1.936189        52.6864 
  49   0.0000       1.936193        52.6865 
  50   0.0000       1.936194        52.6865 
  51   0.0000       5.457631       148.5097 
  52   0.0000       5.457631       148.5097 
  53   0.0000       5.457665       148.5106 
  54   0.0000       5.457667       148.5107 
  55   0.0000       5.457685       148.5112 
  56   0.0000       5.457699       148.5115 
  57   0.0000       5.457703       148.5116 
  58   0.0000       5.457733       148.5125 
  59   0.0000       5.457734       148.5125 
  60   0.0000       6.104191       166.1035 
  61   0.0000       6.104191       166.1035 
  62   0.0000       6.104207       166.1039 
  63   0.0000       6.104211       166.1040 
  64   0.0000       6.104217       166.1042 
  65   0.0000       6.104231       166.1046 
  66   0.0000       6.104231       166.1046 

                 SPIN DOWN ORBITALS
  NO   OCC          E(Eh)            E(eV) 
   0   1.0000    -216.352047     -5887.2385 
   1   1.0000     -25.013042      -680.6395 
   2   1.0000     -21.232907      -577.7768 
   3   1.0000     -21.232881      -577.7761 
   4   1.0000     -21.232855      -577.7754 
   5   1.0000      -3.066778       -83.4513 
   6   1.0000      -1.987339       -54.0782 
   7   1.0000      -1.987335       -54.0781 
   8   1.0000      -1.987325       -54.0779 
   9   0.0000      -0.555779       -15.1235 
  10   0.0000      -0.554920       -15.1001 
  11   0.0000      -0.554289       -15.0830 
  12   0.0000      -0.550989       -14.9932 
  13   0.0000      -0.389723       -10.6049 
  14   0.0000      -0.388410       -10.5692 
  15   0.0000      -0.372299       -10.1308 
  16   0.0000      -0.365342        -9.9415 
  17   0.0000      -0.364378        -9.9152 
  18   0.0000      -0.247448        -6.7334 
  19   0.0000      -0.236071        -6.4238 
  20   0.0000      -0.212059        -5.7704 
  21   0.0000      -0.151182        -4.1139 
  22   0.0000      -0.084915        -2.3106 
  23   0.0000      -0.084472        -2.2986 
  24   0.0000      -0.076123        -2.0714 
  25   0.0000      -0.072067        -1.9610 
  26   0.0000      -0.067246        -1.8299 
  27   0.0000       0.082789         2.2528 
  28   0.0000       0.086949         2.3660 
  29   0.0000       0.089482         2.4349 
  30   0.0000       0.275361         7.4930 
  31   0.0000       0.275716         7.5026 
  32   0.0000       0.285603         7.7716 
  33   0.0000       0.290291         7.8992 
  34   0.0000       0.292547         7.9606 
  35   0.0000       1.432166        38.9712 
  36   0.0000       1.432168        38.9713 
  37   0.0000       1.432278        38.9743 
  38   0.0000       1.432308        38.9751 
  39   0.0000       1.432345        38.9761 
  40   0.0000       1.432442        38.9787 
  41   0.0000       1.432445        38.9788 
  42   0.0000       1.666131        45.3377 
  43   0.0000       1.667745        45.3817 
  44   0.0000       1.668613        45.4053 
  45   0.0000       1.876869        51.0722 
  46   0.0000       2.019437        54.9517 
  47   0.0000       2.019497        54.9533 
  48   0.0000       2.020764        54.9878 
  49   0.0000       2.021328        55.0031 
  50   0.0000       2.021550        55.0092 
  51   0.0000       5.605042       152.5209 
  52   0.0000       5.605042       152.5209 
  53   0.0000       5.605100       152.5225 
  54   0.0000       5.605104       152.5226 
  55   0.0000       5.605134       152.5234 
  56   0.0000       5.605156       152.5241 
  57   0.0000       5.605163       152.5242 
  58   0.0000       5.605213       152.5256 
  59   0.0000       5.605213       152.5256 
  60   0.0000       6.292327       171.2229 
  61   0.0000       6.292327       171.2229 
  62   0.0000       6.292341       171.2233 
  63   0.0000       6.292344       171.2234 
  64   0.0000       6.292349       171.2235 
  65   0.0000       6.292359       171.2238 
  66   0.0000       6.292360       171.2238 

                    ********************************
                    * MULLIKEN POPULATION ANALYSIS *
                    ********************************

--------------------------------------------
MULLIKEN ATOMIC CHARGES AND SPIN POPULATIONS
--------------------------------------------
   0 Cr:    1.000000    5.000000
Sum of atomic charges         :    1.0000000
Sum of atomic spin populations:    5.0000000

-----------------------------------------------------
MULLIKEN REDUCED ORBITAL CHARGES AND SPIN POPULATIONS
-----------------------------------------------------
CHARGE
  0 Crs       :     6.000012  s :     6.000012
      pz      :     4.000000  p :    12.000000
      px      :     4.000000
      py      :     4.000000
      dz2     :     1.000000  d :     4.999988
      dxz     :     0.999999
      dyz     :     1.000000
      dx2y2   :     0.999990
      dxy     :     0.999999
      f0      :     0.000000  f :     0.000000
      f+1     :     0.000000
      f-1     :     0.000000
      f+2     :     0.000000
      f-2     :     0.000000
      f+3     :     0.000000
      f-3     :     0.000000
      g0      :     0.000000  g :     0.000000
      g+1     :     0.000000
      g-1     :     0.000000
      g+2     :     0.000000
      g-2     :     0.000000
      g+3     :     0.000000
      g-3     :     0.000000
      g+4     :     0.000000
      g-4     :     0.000000

SPIN
  0 Crs       :     0.000012  s :     0.000012
      pz      :     0.000000  p :     0.000000
      px      :     0.000000
      py      :     0.000000
      dz2     :     1.000000  d :     4.999988
      dxz     :     0.999999
      dyz     :     1.000000
      dx2y2   :     0.999990
      dxy     :     0.999999
      f0      :    -0.000000  f :    -0.000000
      f+1     :    -0.000000
      f-1     :    -0.000000
      f+2     :    -0.000000
      f-2     :    -0.000000
      f+3     :    -0.000000
      f-3     :    -0.000000
      g0      :     0.000000  g :     0.000000
      g+1     :     0.000000
      g-1     :     0.000000
      g+2     :     0.000000
      g-2     :     0.000000
      g+3     :     0.000000
      g-3     :     0.000000
      g+4     :     0.000000
      g-4     :     0.000000


                     *******************************
                     * LOEWDIN POPULATION ANALYSIS *
                     *******************************

-------------------------------------------
LOEWDIN ATOMIC CHARGES AND SPIN POPULATIONS
-------------------------------------------
   0 Cr:    1.000000    5.000000

----------------------------------------------------
LOEWDIN REDUCED ORBITAL CHARGES AND SPIN POPULATIONS
----------------------------------------------------
CHARGE
  0 Crs       :     6.000012  s :     6.000012
      pz      :     4.000000  p :    12.000000
      px      :     4.000000
      py      :     4.000000
      dz2     :     1.000000  d :     4.999988
      dxz     :     0.999999
      dyz     :     1.000000
      dx2y2   :     0.999990
      dxy     :     0.999999
      f0      :     0.000000  f :     0.000000
      f+1     :     0.000000
      f-1     :     0.000000
      f+2     :     0.000000
      f-2     :     0.000000
      f+3     :     0.000000
      f-3     :     0.000000
      g0      :     0.000000  g :     0.000000
      g+1     :     0.000000
      g-1     :     0.000000
      g+2     :     0.000000
      g-2     :     0.000000
      g+3     :     0.000000
      g-3     :     0.000000
      g+4     :     0.000000
      g-4     :     0.000000

SPIN
  0 Crs       :     0.000012  s :     0.000012
      pz      :     0.000000  p :     0.000000
      px      :     0.000000
      py      :     0.000000
      dz2     :     1.000000  d :     4.999988
      dxz     :     0.999999
      dyz     :     1.000000
      dx2y2   :     0.999990
      dxy     :     0.999999
      f0      :    -0.000000  f :    -0.000000
      f+1     :    -0.000000
      f-1     :    -0.000000
      f+2     :    -0.000000
      f-2     :    -0.000000
      f+3     :    -0.000000
      f-3     :    -0.000000
      g0      :     0.000000  g :     0.000000
      g+1     :     0.000000
      g-1     :     0.000000
      g+2     :     0.000000
      g-2     :     0.000000
      g+3     :     0.000000
      g-3     :     0.000000
      g+4     :     0.000000
      g-4     :     0.000000


                      *****************************
                      * MAYER POPULATION ANALYSIS *
                      *****************************

  NA   - Mulliken gross atomic population
  ZA   - Total nuclear charge
  QA   - Mulliken gross atomic charge
  VA   - Mayer's total valence
  BVA  - Mayer's bonded valence
  FA   - Mayer's free valence

  ATOM       NA         ZA         QA         VA         BVA        FA
  0 Cr    23.0000    24.0000     1.0000     5.0011     0.0000     5.0011

  Mayer bond orders larger than 0.100000


-------
TIMINGS
-------

Total SCF time: 0 days 0 hours 5 min 40 sec 

Total time                  ....     340.860 sec
Sum of individual times     ....     337.168 sec  ( 98.9%)

Fock matrix formation       ....     327.712 sec  ( 96.1%)
  XC integration            ....     319.884 sec  ( 97.6% of F)
    Basis function eval.    ....       0.025 sec  (  0.0% of XC)
    Density eval.           ....       0.068 sec  (  0.0% of XC)
    XC-Functional eval.     ....       0.050 sec  (  0.0% of XC)
    XC-Potential eval.      ....       0.104 sec  (  0.0% of XC)
Diagonalization             ....       4.595 sec  (  1.3%)
Density matrix formation    ....       0.012 sec  (  0.0%)
Population analysis         ....       0.881 sec  (  0.3%)
Initial guess               ....       0.258 sec  (  0.1%)
Orbital Transformation      ....       0.000 sec  (  0.0%)
Orbital Orthonormalization  ....       0.000 sec  (  0.0%)
DIIS solution               ....       0.348 sec  (  0.1%)
Grid generation             ....       3.362 sec  (  1.0%)

-------------------------   --------------------
FINAL SINGLE POINT ENERGY     -1044.103938055963
-------------------------   --------------------


----------------------------------------------------------------------------
                           ORCA NUMERICAL GRADIENT
                              (28-process run)
----------------------------------------------------------------------------

I state                        ... 1
J state                        ... 0
Number of atoms                ... 1
Derivative's order of accuracy ... 2
Central differences            ... used
Number of displacements        ... 6
Numerical increment            ... 5.000e-03 bohr
Translation invariance         ... used

The output will be reduced. Please look at the following files:
SCF program output             ... >Cr+.lastscf
Integral program output        ... >Cr+.lastint
Gradient program output        ... >Cr+.lastgrad


     Note:   There are more processes than displacements to do
     ===>:   Reducing number of processes to   0


------------------------------
CARTESIAN GRADIENT (NUMERICAL)
-------------------------------
   1   Cr  :    0.000000000    0.000000000    0.000000000

Norm of the cartesian gradient     ...    0.000000000
RMS gradient                       ...    0.000000000
MAX gradient                       ...    0.000000000
*** glibc detected *** /mnt/storage/software/apps/orca-4.2.0/orca_4_2_0_linux_x86-64_openmpi314/orca: free(): invalid next size (fast): 0x000000000dd5be60 ***
======= Backtrace: =========
[0xb0928aa]
[0xb09567c]
[0x76d903]
[0x76fb95]
[0x915b4f]
[0x918f24]
[0x487649]
[0xb05c99e]
[0x4870d9]
======= Memory map: ========
00400000-0bf42000 r-xp 00000000 00:2b 4876154                            /mnt/storage/software/apps/orca-4.2.0/orca_4_2_0_linux_x86-64_openmpi314/orca
0c141000-0c203000 rw-p 0bb41000 00:2b 4876154                            /mnt/storage/software/apps/orca-4.2.0/orca_4_2_0_linux_x86-64_openmpi314/orca
0c203000-0c77a000 rw-p 00000000 00:00 0 
0db18000-0dd87000 rw-p 00000000 00:00 0                                  [heap]
2ab68fa90000-2ab690291000 rw-p 00000000 00:00 0 
2ab690a90000-2ab693153000 rw-p 00000000 00:00 0 
2ab694000000-2ab6940b3000 rw-p 00000000 00:00 0 
2ab6940b3000-2ab698000000 ---p 00000000 00:00 0 
7fffabeea000-7fffabfec000 rw-p 00000000 00:00 0                          [stack]
7fffabfee000-7fffabff0000 r-xp 00000000 00:00 0                          [vdso]
ffffffffff600000-ffffffffff601000 r-xp 00000000 00:00 0                  [vsyscall]
