
                                 *****************
                                 * O   R   C   A *
                                 *****************

           --- An Ab Initio, DFT and Semiempirical electronic structure package ---

                  #######################################################
                  #                        -***-                        #
                  #          Department of theory and spectroscopy      #
                  #               Directorship: Frank Neese             #
                  #        Max Planck Institute fuer Kohlenforschung    #
                  #                Kaiser Wilhelm Platz 1               #
                  #                 D-45470 Muelheim/Ruhr               #
                  #                      Germany                        #
                  #                                                     #
                  #                  All rights reserved                #
                  #                        -***-                        #
                  #######################################################


                         Program Version 4.2.0 -  RELEASE  -


 With contributions from (in alphabetic order):
   Daniel Aravena         : Magnetic Suceptibility
   Michael Atanasov       : Ab Initio Ligand Field Theory (pilot matlab implementation)
   Alexander A. Auer      : GIAO ZORA, VPT2
   Ute Becker             : Parallelization
   Giovanni Bistoni       : ED, misc. LED, open-shell LED, HFLED
   Martin Brehm           : Molecular dynamics
   Dmytro Bykov           : SCF Hessian
   Vijay G. Chilkuri      : MRCI spin determinant printing, contributions to CSF-ICE
   Dipayan Datta          : RHF DLPNO-CCSD density
   Achintya Kumar Dutta   : EOM-CC, STEOM-CC
   Dmitry Ganyushin       : Spin-Orbit,Spin-Spin,Magnetic field MRCI
   Miquel Garcia          : C-PCM Hessian, Gaussian charge scheme
   Yang Guo               : DLPNO-NEVPT2, CIM, IAO-localization
   Andreas Hansen         : Spin unrestricted coupled pair/coupled cluster methods
   Benjamin Helmich-Paris : CASSCF linear response (MC-RPA)
   Lee Huntington         : MR-EOM, pCC
   Robert Izsak           : Overlap fitted RIJCOSX, COSX-SCS-MP3, EOM
   Christian Kollmar      : KDIIS, OOCD, Brueckner-CCSD(T), CCSD density
   Simone Kossmann        : Meta GGA functionals, TD-DFT gradient, OOMP2, MP2 Hessian
   Martin Krupicka        : AUTO-CI
   Lucas Lang             : DCDCAS
   Dagmar Lenk            : GEPOL surface, SMD
   Dimitrios Liakos       : Extrapolation schemes; Compound Job, initial MDCI parallelization
   Dimitrios Manganas     : Further ROCIS development; embedding schemes
   Dimitrios Pantazis     : SARC Basis sets
   Taras Petrenko         : DFT Hessian,TD-DFT gradient, ASA, ECA, R-Raman, ABS, FL, XAS/XES, NRVS
   Peter Pinski           : DLPNO-MP2, DLPNO-MP2 Gradient
   Christoph Reimann      : Effective Core Potentials
   Marius Retegan         : Local ZFS, SOC
   Christoph Riplinger    : Optimizer, TS searches, QM/MM, DLPNO-CCSD(T), (RO)-DLPNO pert. Triples
   Tobias Risthaus        : Range-separated hybrids, TD-DFT gradient, RPA, STAB
   Michael Roemelt        : Original ROCIS implementation
   Masaaki Saitow         : Open-shell DLPNO-CCSD energy and density
   Barbara Sandhoefer     : DKH picture change effects
   Avijit Sen             : IP-ROCIS
   Kantharuban Sivalingam : CASSCF convergence, NEVPT2, FIC-MRCI
   Bernardo de Souza      : ESD, SOC TD-DFT
   Georgi Stoychev        : AutoAux, RI-MP2 NMR
   Willem Van den Heuvel  : Paramagnetic NMR
   Boris Wezisla          : Elementary symmetry handling
   Frank Wennmohs         : Technical directorship


 We gratefully acknowledge several colleagues who have allowed us to
 interface, adapt or use parts of their codes:
   Stefan Grimme, W. Hujo, H. Kruse,             : VdW corrections, initial TS optimization,
                  C. Bannwarth                     DFT functionals, gCP, sTDA/sTD-DF
   Ed Valeev, F. Pavosevic, A. Kumar             : LibInt (2-el integral package), F12 methods
   Garnet Chan, S. Sharma, J. Yang, R. Olivares  : DMRG
   Ulf Ekstrom                                   : XCFun DFT Library
   Mihaly Kallay                                 : mrcc  (arbitrary order and MRCC methods)
   Andreas Klamt, Michael Diedenhofen            : otool_cosmo (COSMO solvation model)
   Jiri Pittner, Ondrej Demel                    : Mk-CCSD
   Frank Weinhold                                : gennbo (NPA and NBO analysis)
   Christopher J. Cramer and Donald G. Truhlar   : smd solvation model
   Lars Goerigk                                  : TD-DFT with DH, B97 family of functionals
   V. Asgeirsson, H. Jonsson                     : NEB implementation
   FAccTs GmbH                                   : IRC, NEB, NEB-TS, Multilevel, MM, QM/MM, CI optimization
   S Lehtola, MJT Oliveira, MAL Marques          : LibXC Library


 Your calculation uses the libint2 library for the computation of 2-el integrals
 For citations please refer to: http://libint.valeyev.net

 Your ORCA version has been built with support for libXC version: 4.2.3
 For citations please refer to: https://tddft.org/programs/libxc/

 This ORCA versions uses:
   CBLAS   interface :  Fast vector & matrix operations
   LAPACKE interface :  Fast linear algebra routines
   SCALAPACK package :  Parallel linear algebra routines


Your calculation utilizes the DFT-NL dispersion correction.
Cite in your paper:
Vydrov, O. A.; Van Voorhis, T. J. Chem. Phys. 2010, 133, 244103
Hujo, W.; Grimme, S. J. Chem. Theory Comput. 2011, 7, 3866 
   

----- Orbital basis set information -----
Your calculation utilizes the basis: def2-TZVPPD
   F. Weigend and R. Ahlrichs, Phys. Chem. Chem. Phys. 7, 3297 (2005).
   D. Rappoport and F. Furche, J. Chem. Phys. 133 134105 (2010).

----- AuxJK basis set information -----
Your calculation utilizes the auxiliary basis: def2/JK
   H-Ba, Hf-Rn: F. Weigend, J. Comput. Chem. 29, 167 (2008).

================================================================================
                                        WARNINGS
                       Please study these warnings very carefully!
================================================================================

INFO   : Found keyword 'NumGrad' for Energy calculation
  ===> : Setting RunTyp to EnGrad

WARNING: Numerical Gradient with sloppy Convergence Criteria    
         Your results may be not reliable!                      
         Please choose at least TightSCF!                       

WARNING: your system is open-shell and RHF/RKS was chosen
  ===> : WILL SWITCH to UHF/UKS


INFO   : the flag for use of LIBINT has been found!

================================================================================
                                       INPUT FILE
================================================================================
NAME = CrCH3+.in
|  1> #
|  2> # CrCH3+ wB97M-V/Def2-TZVPPD
|  3> #
|  4> ! wb97m-v def2-tzvppd def2/jk grid4 nofinalgrid numgrad
|  5> 
|  6> *xyz 1 5
|  7> C          0.00000        0.00000        0.00000
|  8> H          0.00000        0.00000        1.10000
|  9> H          1.03709        0.00000       -0.36667
| 10> H         -0.51855        0.89815       -0.36667
| 11> Cr        -0.89567       -1.55134       -0.63333
| 12> *
| 13> 
| 14> %maxcore 5000
| 15> 
| 16> %pal
| 17> nprocs = 28
| 18> end
| 19> 
| 20> 
| 21>                          ****END OF INPUT****
================================================================================

                     *******************************
                     * Energy+Gradient Calculation *
                     *******************************

---------------------------------
CARTESIAN COORDINATES (ANGSTROEM)
---------------------------------
  C      0.000000    0.000000    0.000000
  H      0.000000    0.000000    1.100000
  H      1.037090    0.000000   -0.366670
  H     -0.518550    0.898150   -0.366670
  Cr    -0.895670   -1.551340   -0.633330

----------------------------
CARTESIAN COORDINATES (A.U.)
----------------------------
  NO LB      ZA    FRAG     MASS         X           Y           Z
   0 C     6.0000    0    12.011    0.000000    0.000000    0.000000
   1 H     1.0000    0     1.008    0.000000    0.000000    2.078699
   2 H     1.0000    0     1.008    1.959816    0.000000   -0.692906
   3 H     1.0000    0     1.008   -0.979917    1.697258   -0.692906
   4 Cr   24.0000    0    52.000   -1.692571   -2.931608   -1.196820

--------------------------------
INTERNAL COORDINATES (ANGSTROEM)
--------------------------------
 C      0   0   0     0.000000000000     0.00000000     0.00000000
 H      1   0   0     1.100000000000     0.00000000     0.00000000
 H      1   2   0     1.100001162272   109.47138339     0.00000000
 H      1   2   3     1.100006551753   109.47128414   239.99986337
 Cr     1   2   3     1.899996692997   109.47114928   120.00009510

---------------------------
INTERNAL COORDINATES (A.U.)
---------------------------
 C      0   0   0     0.000000000000     0.00000000     0.00000000
 H      1   0   0     2.078698747313     0.00000000     0.00000000
 H      1   2   0     2.078700943689   109.47138339     0.00000000
 H      1   2   3     2.078711128333   109.47128414   239.99986337
 Cr     1   2   3     3.590473405121   109.47114928   120.00009510

---------------------
BASIS SET INFORMATION
---------------------
There are 3 groups of distinct atoms

 Group   1 Type C   : 12s6p3d1f contracted to 6s3p3d1f pattern {621111/411/111/1}
 Group   2 Type H   : 5s3p1d contracted to 3s3p1d pattern {311/111/1}
 Group   3 Type Cr  : 17s13p7d2f1g contracted to 6s6p4d2f1g pattern {842111/631111/4111/11/1}

Atom   0C    basis set group =>   1
Atom   1H    basis set group =>   2
Atom   2H    basis set group =>   2
Atom   3H    basis set group =>   2
Atom   4Cr   basis set group =>   3
----------------------------------
AUXILIARY/JK BASIS SET INFORMATION
----------------------------------
There are 3 groups of distinct atoms

 Group   1 Type C   : 14s10p6d2f1g contracted to 10s8p5d1f1g pattern {5111111111/31111111/21111/2/1}
 Group   2 Type H   : 4s2p2d contracted to 2s2p2d pattern {31/11/11}
 Group   3 Type Cr  : 19s14p12d10f7g3h1i contracted to 16s13p11d9f5g3h1i pattern {4111111111111111/2111111111111/21111111111/211111111/31111/111/1}

Atom   0C    basis set group =>   1
Atom   1H    basis set group =>   2
Atom   2H    basis set group =>   2
Atom   3H    basis set group =>   2
Atom   4Cr   basis set group =>   3


           ************************************************************
           *        Program running with 28 parallel MPI-processes    *
           *              working on a common directory               *
           ************************************************************
------------------------------------------------------------------------------
                           ORCA GTO INTEGRAL CALCULATION
------------------------------------------------------------------------------

                         BASIS SET STATISTICS AND STARTUP INFO

 # of primitive gaussian shells          ...   89
 # of primitive gaussian functions       ...  223
 # of contracted shells                  ...   53
 # of contracted basis functions         ...  155
 Highest angular momentum                ...    4
 Maximum contraction depth               ...    8
 Integral package used                   ... LIBINT
 Integral threshhold            Thresh   ...  1.000e-10
 Primitive cut-off              TCut     ...  1.000e-11


------------------------------ INTEGRAL EVALUATION ----------------------------


 * One electron integrals 
 Pre-screening matrix                    ... done
 Shell pair data                         ... done (   0.001 sec)



           ************************************************************
           *        Program running with 28 parallel MPI-processes    *
           *              working on a common directory               *
           ************************************************************
-------------------------------------------------------------------------------
                                 ORCA SCF
-------------------------------------------------------------------------------

------------
SCF SETTINGS
------------
Hamiltonian:
 Density Functional     Method          .... DFT(GTOs)
 Exchange Functional    Exchange        .... WB97M-V
 Correlation Functional Correlation     .... WB97M-V
 Gradients option       PostSCFGGA      .... off
 Hybrid DFT is turned on
   Fraction HF Exchange ScalHFX         ....  0.150000
   Scaling of DF-GGA-X  ScalDFX         ....  0.000000
   Scaling of DF-GGA-C  ScalDFC         ....  1.000000
   Scaling of DF-LDA-C  ScalLDAC        ....  1.000000
   Perturbative correction              ....  0.000000
   Density functional embedding theory  .... OFF
 Long-range corrected/Screened/Range-Separated Hybrid DFT is turned on
   Amount of maximum screened exact exchange              ....  0.850000
   Range separation parameter mu (erf(mu*r12)/r12)        ....  0.300000
   NL short-range parameter             ....  6.000000
   NL long-range parameter              ....  0.010000


General Settings:
 Integral files         IntName         .... CrCH3+
 Hartree-Fock type      HFTyp           .... UHF
 Total Charge           Charge          ....    1
 Multiplicity           Mult            ....    5
 Number of Electrons    NEL             ....   32
 Basis Dimension        Dim             ....  155
 Nuclear Repulsion      ENuc            ....     64.9343749420 Eh

Convergence Acceleration:
 DIIS                   CNVDIIS         .... on
   Start iteration      DIISMaxIt       ....    12
   Startup error        DIISStart       ....  0.200000
   # of expansion vecs  DIISMaxEq       ....     5
   Bias factor          DIISBfac        ....   1.050
   Max. coefficient     DIISMaxC        ....  10.000
 Newton-Raphson         CNVNR           .... off
 SOSCF                  CNVSOSCF        .... off
 Level Shifting         CNVShift        .... on
   Level shift para.    LevelShift      ....    0.2500
   Turn off err/grad.   ShiftErr        ....    0.0010
 Zerner damping         CNVZerner       .... off
 Static damping         CNVDamp         .... on
   Fraction old density DampFac         ....    0.7000
   Max. Damping (<1)    DampMax         ....    0.9800
   Min. Damping (>=0)   DampMin         ....    0.0000
   Turn off err/grad.   DampErr         ....    0.1000
 Fernandez-Rico         CNVRico         .... off

SCF Procedure:
 Maximum # iterations   MaxIter         ....   125
 SCF integral mode      SCFMode         .... Direct
   Integral package                     .... LIBINT
 Reset frequency        DirectResetFreq ....    20
 Integral Threshold     Thresh          ....  1.000e-10 Eh
 Primitive CutOff       TCut            ....  1.000e-11 Eh

Convergence Tolerance:
 Convergence Check Mode ConvCheckMode   .... Total+1el-Energy
 Convergence forced     ConvForced      .... 0
 Energy Change          TolE            ....  1.000e-06 Eh
 1-El. energy change                    ....  1.000e-03 Eh
 DIIS Error             TolErr          ....  1.000e-06


Diagonalization of the overlap matrix:
Smallest eigenvalue                        ... 3.767e-05
Time for diagonalization                   ...    0.004 sec
Threshold for overlap eigenvalues          ... 1.000e-08
Number of eigenvalues below threshold      ... 0
Time for construction of square roots      ...    0.192 sec
Total time needed                          ...    0.197 sec

-------------------
DFT GRID GENERATION
-------------------

General Integration Accuracy     IntAcc      ...  4.670
Radial Grid Type                 RadialGrid  ... Gauss-Chebyshev
Angular Grid (max. acc.)         AngularGrid ... Lebedev-302
Angular grid pruning method      GridPruning ... 3 (G Style)
Weight generation scheme         WeightScheme... Becke
Basis function cutoff            BFCut       ...    1.0000e-10
Integration weight cutoff        WCut        ...    1.0000e-14
Grids for H and He will be reduced by one unit

# of grid points (after initial pruning)     ...  26058 (   0.0 sec)
# of grid points (after weights+screening)   ...  25443 (   0.0 sec)
nearest neighbour list constructed           ...    0.0 sec
Grid point re-assignment to atoms done       ...    0.0 sec
Grid point division into batches done        ...    0.1 sec
Reduced shell lists constructed in    0.2 sec

Total number of grid points                  ...    25443
Total number of batches                      ...      402
Average number of points per batch           ...       63
Average number of grid points per atom       ...     5089
Average number of shells per batch           ...    47.00 (88.68%)
Average number of basis functions per batch  ...   140.12 (90.40%)
Average number of large shells per batch     ...    44.88 (95.48%)
Average number of large basis fcns per batch ...   134.12 (95.72%)
Maximum spatial batch extension              ...   1.69,  1.76,  1.53 au
Average spatial batch extension              ...   0.05,  0.05,  0.04 au

Time for grid setup =    3.306 sec

------------------------------
INITIAL GUESS: MODEL POTENTIAL
------------------------------
Loading Hartree-Fock densities                     ... done
Calculating cut-offs                               ... done
Setting up the integral package                    ... done
Initializing the effective Hamiltonian             ... done
Starting the Coulomb interaction                   ... done (   0.0 sec)
Reading the grid                                   ... done
Mapping shells                                     ... done
Starting the XC term evaluation                    ... done (   0.0 sec)
  promolecular density results
     # of electrons  =     32.998539096
     EX              =    -53.193590880
     EC              =     -1.293105305
     EX+EC           =    -54.486696185
Transforming the Hamiltonian                       ... done (   0.1 sec)
Diagonalizing the Hamiltonian                      ... done (   0.0 sec)
Back transforming the eigenvectors                 ... done (   0.0 sec)
Now organizing SCF variables                       ... done
                      ------------------
                      INITIAL GUESS DONE (   4.0 sec)
                      ------------------
--------------
SCF ITERATIONS
--------------
ITER       Energy         Delta-E        Max-DP      RMS-DP      [F,P]     Damp
               ***  Starting incremental Fock matrix formation  ***
  0  -1083.9404431613   0.000000000000 0.03287682  0.00076783  0.2663710 0.7000
  1  -1084.0184710119  -0.078027850615 0.02877476  0.00059621  0.1398118 0.7000
                               ***Turning on DIIS***
  2  -1084.0511841733  -0.032713161396 0.04764465  0.00121263  0.0554614 0.0000
  3  -1084.1039591847  -0.052775011379 0.01818194  0.00033671  0.0725658 0.0000
  4  -1084.1159885215  -0.012029336761 0.00631743  0.00018637  0.0138683 0.0000
  5  -1084.1173916786  -0.001403157162 0.00266639  0.00008852  0.0083260 0.0000
  6  -1084.1181692963  -0.000777617693 0.00275646  0.00008112  0.0023244 0.0000
  7  -1084.1187241638  -0.000554867519 0.00230573  0.00006879  0.0015412 0.0000
  8  -1084.1190834158  -0.000359251936 0.00318791  0.00007372  0.0006988 0.0000
  9  -1084.1193529628  -0.000269547040 0.00043257  0.00000484  0.0008106 0.0000
 10  -1084.1193635319  -0.000010569096 0.00034040  0.00000882  0.0007828 0.0000
 11  -1084.1193779499  -0.000014418014 0.00161561  0.00002005  0.0003778 0.0000
 12  -1084.1194211597  -0.000043209737 0.00069670  0.00001106  0.0008349 0.0000
 13  -1084.1194469748  -0.000025815135 0.00259481  0.00003988  0.0007401 0.0000
 14  -1084.1195218757  -0.000074900940 0.00190195  0.00002712  0.0005753 0.0000
 15  -1084.1195579599  -0.000036084114 0.00229794  0.00003124  0.0005175 0.0000
 16  -1084.1195843442  -0.000026384369 0.00367334  0.00004805  0.0003351 0.0000
 17  -1084.1195983727  -0.000014028515 0.00199825  0.00002451  0.0001933 0.0000
 18  -1084.1195936917   0.000004681076 0.00031872  0.00000617  0.0001101 0.0000
 19  -1084.1195970006  -0.000003308940 0.00010324  0.00000308  0.0000261 0.0000
               *** Restarting incremental Fock matrix formation ***
                                   *** Resetting DIIS ***
 20  -1084.1195981773  -0.000001176666 0.00001121  0.00000016  0.0000031 0.0000
                 **** Energy Check signals convergence ****

               *****************************************************
               *                     SUCCESS                       *
               *           SCF CONVERGED AFTER  21 CYCLES          *
               *****************************************************


Setting up the DFT-NL grid :

General Integration Accuracy     IntAcc      ...  4.340
Radial Grid Type                 RadialGrid  ... Gauss-Chebyshev
Angular Grid (max. acc.)         AngularGrid ... Lebedev-110
Angular grid pruning method      GridPruning ... 3 (G Style)
Weight generation scheme         WeightScheme... Becke
Basis function cutoff            BFCut       ...    1.0000e-10
Integration weight cutoff        WCut        ...    1.0000e-14
Grids for H and He will be reduced by one unit

# of grid points (after initial pruning)     ...   7010 (   0.0 sec)
# of grid points (after weights+screening)   ...   6867 (   0.0 sec)
nearest neighbour list constructed           ...    0.0 sec
Grid point re-assignment to atoms done       ...    0.0 sec
Grid point division into batches done        ...    0.0 sec
Reduced shell lists constructed in    0.0 sec

Total number of grid points                  ...     6867
Total number of batches                      ...      110
Average number of points per batch           ...       62
Average number of grid points per atom       ...     1373
Average number of shells per batch           ...    41.20 (77.74%)
Average number of basis functions per batch  ...   122.40 (78.97%)
Average number of large shells per batch     ...    39.40 (95.63%)
Average number of large basis fcns per batch ...   119.40 (97.55%)
Maximum spatial batch extension              ...   2.23,  2.24,  2.15 au
Average spatial batch extension              ...   0.07,  0.08,  0.07 au

Final grid set up in    1.7 sec

-------------------------------------------------------------------------------
                         DFT-NL dispersion correction                          
-------------------------------------------------------------------------------

SC Energy -1084.119598157 
NL    Energy 0.134012611 
SC+NL Energy -1083.985585546 
NL done in    1.4 sec
-------------------------------------------------------------------------------

----------------
TOTAL SCF ENERGY
----------------

Total Energy       :        -1083.98558555 Eh          -29496.74737 eV

Components:
Nuclear Repulsion  :           64.93437494 Eh            1766.95417 eV
Electronic Energy  :        -1148.91996049 Eh          -31263.70154 eV
One Electron Energy:        -1611.69193667 Eh          -43856.36721 eV
Two Electron Energy:          462.77197618 Eh           12592.66567 eV

Virial components:
Potential Energy   :        -2166.44191233 Eh          -58951.88149 eV
Kinetic Energy     :         1082.45632679 Eh           29455.13412 eV
Virial Ratio       :            2.00141277


DFT components:
N(Alpha)           :       17.999997212639 electrons
N(Beta)            :       13.999997471187 electrons
N(Total)           :       31.999994683826 electrons
E(X)               :      -41.306547314585 Eh       
E(C)               :       -1.390875629720 Eh       
NL Energy, E(C,NL) :        0.134012610892 Eh       
E(XC)              :      -42.563410333412 Eh       
DFET-embed. en.    :        0.000000000000 Eh       

---------------
SCF CONVERGENCE
---------------

  Last Energy change         ...    2.0084e-08  Tolerance :   1.0000e-06
  Last MAX-Density change    ...    1.2922e-05  Tolerance :   1.0000e-05
  Last RMS-Density change    ...    1.8771e-07  Tolerance :   1.0000e-06
  Last DIIS Error            ...    3.0662e-06  Tolerance :   1.0000e-06

             **** THE GBW FILE WAS UPDATED (CrCH3+.gbw) ****
             **** DENSITY FILE WAS UPDATED (CrCH3+.scfp) ****
             **** ENERGY FILE WAS UPDATED (CrCH3+.en.tmp) ****
----------------------
UHF SPIN CONTAMINATION
----------------------

Warning: in a DFT calculation there is little theoretical justification to 
         calculate <S**2> as in Hartree-Fock theory. We will do it anyways
         but you should keep in mind that the values have only limited relevance

Expectation value of <S**2>     :     6.132531
Ideal value S*(S+1) for S=2.0   :     6.000000
Deviation                       :     0.132531

             **** THE GBW FILE WAS UPDATED (CrCH3+.gbw) ****
             **** DENSITY FILE WAS UPDATED (CrCH3+.scfp) ****
----------------
ORBITAL ENERGIES
----------------
                 SPIN UP ORBITALS
  NO   OCC          E(Eh)            E(eV) 
   0   1.0000    -216.409064     -5888.7900 
   1   1.0000     -25.157064      -684.5585 
   2   1.0000     -21.366965      -581.4247 
   3   1.0000     -21.358199      -581.1861 
   4   1.0000     -21.358198      -581.1861 
   5   1.0000     -10.512611      -286.0627 
   6   1.0000      -3.304022       -89.9070 
   7   1.0000      -2.243056       -61.0367 
   8   1.0000      -2.243056       -61.0366 
   9   1.0000      -2.241290       -60.9886 
  10   1.0000      -0.982461       -26.7341 
  11   1.0000      -0.702662       -19.1204 
  12   1.0000      -0.702660       -19.1203 
  13   1.0000      -0.603813       -16.4306 
  14   1.0000      -0.596893       -16.2423 
  15   1.0000      -0.596892       -16.2422 
  16   1.0000      -0.592048       -16.1104 
  17   1.0000      -0.592046       -16.1104 
  18   0.0000      -0.260214        -7.0808 
  19   0.0000      -0.195624        -5.3232 
  20   0.0000      -0.142744        -3.8843 
  21   0.0000      -0.142742        -3.8842 
  22   0.0000      -0.096250        -2.6191 
  23   0.0000      -0.057096        -1.5537 
  24   0.0000      -0.047508        -1.2928 
  25   0.0000      -0.047507        -1.2927 
  26   0.0000      -0.041757        -1.1363 
  27   0.0000      -0.041752        -1.1361 
  28   0.0000      -0.024294        -0.6611 
  29   0.0000      -0.021702        -0.5905 
  30   0.0000      -0.021698        -0.5904 
  31   0.0000       0.013590         0.3698 
  32   0.0000       0.032846         0.8938 
  33   0.0000       0.032847         0.8938 
  34   0.0000       0.050770         1.3815 
  35   0.0000       0.073005         1.9866 
  36   0.0000       0.073016         1.9869 
  37   0.0000       0.126166         3.4332 
  38   0.0000       0.169366         4.6087 
  39   0.0000       0.169372         4.6088 
  40   0.0000       0.177120         4.8197 
  41   0.0000       0.182374         4.9626 
  42   0.0000       0.192296         5.2326 
  43   0.0000       0.192312         5.2331 
  44   0.0000       0.202606         5.5132 
  45   0.0000       0.211387         5.7521 
  46   0.0000       0.211388         5.7522 
  47   0.0000       0.220159         5.9908 
  48   0.0000       0.236465         6.4345 
  49   0.0000       0.236471         6.4347 
  50   0.0000       0.324078         8.8186 
  51   0.0000       0.340242         9.2584 
  52   0.0000       0.340261         9.2590 
  53   0.0000       0.380117        10.3435 
  54   0.0000       0.388366        10.5680 
  55   0.0000       0.388381        10.5684 
  56   0.0000       0.408678        11.1207 
  57   0.0000       0.408692        11.1211 
  58   0.0000       0.471488        12.8298 
  59   0.0000       0.576299        15.6819 
  60   0.0000       0.576321        15.6825 
  61   0.0000       0.610822        16.6213 
  62   0.0000       0.610828        16.6215 
  63   0.0000       0.611916        16.6511 
  64   0.0000       0.681777        18.5521 
  65   0.0000       0.711698        19.3663 
  66   0.0000       0.711711        19.3666 
  67   0.0000       0.920589        25.0505 
  68   0.0000       0.938470        25.5371 
  69   0.0000       0.938485        25.5375 
  70   0.0000       0.966054        26.2877 
  71   0.0000       1.021889        27.8070 
  72   0.0000       1.021915        27.8077 
  73   0.0000       1.133835        30.8532 
  74   0.0000       1.151015        31.3207 
  75   0.0000       1.151029        31.3211 
  76   0.0000       1.318667        35.8827 
  77   0.0000       1.358112        36.9561 
  78   0.0000       1.418679        38.6042 
  79   0.0000       1.460421        39.7401 
  80   0.0000       1.460469        39.7414 
  81   0.0000       1.544411        42.0256 
  82   0.0000       1.544432        42.0261 
  83   0.0000       1.561291        42.4849 
  84   0.0000       1.616846        43.9966 
  85   0.0000       1.616858        43.9969 
  86   0.0000       1.698964        46.2312 
  87   0.0000       1.712392        46.5966 
  88   0.0000       1.712398        46.5967 
  89   0.0000       1.827716        49.7347 
  90   0.0000       1.876847        51.0716 
  91   0.0000       1.932322        52.5812 
  92   0.0000       1.932338        52.5816 
  93   0.0000       1.938745        52.7559 
  94   0.0000       1.938750        52.7561 
  95   0.0000       1.945453        52.9385 
  96   0.0000       2.128200        57.9113 
  97   0.0000       2.128209        57.9115 
  98   0.0000       2.334457        63.5238 
  99   0.0000       2.592024        70.5326 
 100   0.0000       2.601862        70.8003 
 101   0.0000       2.601923        70.8019 
 102   0.0000       2.745681        74.7138 
 103   0.0000       2.845969        77.4427 
 104   0.0000       2.845983        77.4431 
 105   0.0000       2.870664        78.1147 
 106   0.0000       2.870688        78.1154 
 107   0.0000       3.027211        82.3746 
 108   0.0000       3.027243        82.3755 
 109   0.0000       3.054657        83.1214 
 110   0.0000       3.218864        87.5897 
 111   0.0000       3.337462        90.8170 
 112   0.0000       3.337485        90.8176 
 113   0.0000       3.428204        93.2862 
 114   0.0000       3.428252        93.2875 
 115   0.0000       3.464111        94.2633 
 116   0.0000       3.708154       100.9040 
 117   0.0000       3.720540       101.2410 
 118   0.0000       3.720571       101.2419 
 119   0.0000       3.828596       104.1814 
 120   0.0000       3.926436       106.8438 
 121   0.0000       3.926464       106.8445 
 122   0.0000       4.016615       109.2976 
 123   0.0000       4.109512       111.8255 
 124   0.0000       4.109529       111.8260 
 125   0.0000       4.182989       113.8249 
 126   0.0000       4.447090       121.0115 
 127   0.0000       4.447097       121.0117 
 128   0.0000       4.490966       122.2054 
 129   0.0000       4.885335       132.9367 
 130   0.0000       4.885349       132.9371 
 131   0.0000       4.966515       135.1457 
 132   0.0000       4.979369       135.4955 
 133   0.0000       5.100648       138.7957 
 134   0.0000       5.160142       140.4146 
 135   0.0000       5.160188       140.4159 
 136   0.0000       5.420832       147.5083 
 137   0.0000       5.420844       147.5087 
 138   0.0000       5.425987       147.6486 
 139   0.0000       5.430325       147.7667 
 140   0.0000       5.430451       147.7701 
 141   0.0000       5.430469       147.7706 
 142   0.0000       5.501566       149.7052 
 143   0.0000       5.501578       149.7055 
 144   0.0000       5.595736       152.2677 
 145   0.0000       5.595750       152.2681 
 146   0.0000       5.646380       153.6458 
 147   0.0000       6.062500       164.9690 
 148   0.0000       6.070335       165.1822 
 149   0.0000       6.141523       167.1193 
 150   0.0000       6.141529       167.1195 
 151   0.0000       6.349112       172.7681 
 152   0.0000       6.349117       172.7682 
 153   0.0000       6.407907       174.3680 
 154   0.0000      23.404552       636.8702 

                 SPIN DOWN ORBITALS
  NO   OCC          E(Eh)            E(eV) 
   0   1.0000    -216.408416     -5888.7724 
   1   1.0000     -25.088593      -682.6953 
   2   1.0000     -21.318579      -580.1080 
   3   1.0000     -21.300086      -579.6048 
   4   1.0000     -21.300085      -579.6048 
   5   1.0000     -10.516160      -286.1593 
   6   1.0000      -3.139403       -85.4275 
   7   1.0000      -2.079209       -56.5781 
   8   1.0000      -2.047676       -55.7201 
   9   1.0000      -2.047675       -55.7201 
  10   1.0000      -0.985507       -26.8170 
  11   1.0000      -0.691397       -18.8139 
  12   1.0000      -0.691395       -18.8138 
  13   1.0000      -0.579108       -15.7583 
  14   0.0000      -0.265851        -7.2342 
  15   0.0000      -0.188161        -5.1201 
  16   0.0000      -0.188160        -5.1201 
  17   0.0000      -0.171201        -4.6586 
  18   0.0000      -0.154023        -4.1912 
  19   0.0000      -0.154022        -4.1912 
  20   0.0000      -0.125058        -3.4030 
  21   0.0000      -0.125057        -3.4030 
  22   0.0000      -0.087939        -2.3930 
  23   0.0000      -0.068325        -1.8592 
  24   0.0000      -0.055919        -1.5216 
  25   0.0000      -0.055914        -1.5215 
  26   0.0000      -0.037525        -1.0211 
  27   0.0000      -0.037521        -1.0210 
  28   0.0000      -0.033520        -0.9121 
  29   0.0000      -0.033518        -0.9121 
  30   0.0000      -0.029283        -0.7968 
  31   0.0000       0.012565         0.3419 
  32   0.0000       0.027621         0.7516 
  33   0.0000       0.027627         0.7518 
  34   0.0000       0.052101         1.4177 
  35   0.0000       0.070068         1.9066 
  36   0.0000       0.070078         1.9069 
  37   0.0000       0.117267         3.1910 
  38   0.0000       0.164909         4.4874 
  39   0.0000       0.164913         4.4875 
  40   0.0000       0.173556         4.7227 
  41   0.0000       0.174113         4.7379 
  42   0.0000       0.189079         5.1451 
  43   0.0000       0.189089         5.1454 
  44   0.0000       0.201219         5.4754 
  45   0.0000       0.207248         5.6395 
  46   0.0000       0.207252         5.6396 
  47   0.0000       0.217118         5.9081 
  48   0.0000       0.230780         6.2798 
  49   0.0000       0.230789         6.2801 
  50   0.0000       0.326527         8.8852 
  51   0.0000       0.343146         9.3375 
  52   0.0000       0.343154         9.3377 
  53   0.0000       0.374462        10.1896 
  54   0.0000       0.389406        10.5963 
  55   0.0000       0.389418        10.5966 
  56   0.0000       0.407393        11.0857 
  57   0.0000       0.407401        11.0859 
  58   0.0000       0.457945        12.4613 
  59   0.0000       0.569217        15.4892 
  60   0.0000       0.569236        15.4897 
  61   0.0000       0.604854        16.4589 
  62   0.0000       0.604860        16.4591 
  63   0.0000       0.608364        16.5544 
  64   0.0000       0.678788        18.4708 
  65   0.0000       0.707927        19.2637 
  66   0.0000       0.707943        19.2641 
  67   0.0000       0.920500        25.0481 
  68   0.0000       0.938076        25.5263 
  69   0.0000       0.938092        25.5268 
  70   0.0000       0.961283        26.1578 
  71   0.0000       1.022885        27.8341 
  72   0.0000       1.022910        27.8348 
  73   0.0000       1.132386        30.8138 
  74   0.0000       1.166847        31.7515 
  75   0.0000       1.166860        31.7519 
  76   0.0000       1.335584        36.3431 
  77   0.0000       1.401283        38.1309 
  78   0.0000       1.437356        39.1124 
  79   0.0000       1.466696        39.9108 
  80   0.0000       1.466756        39.9125 
  81   0.0000       1.572672        42.7946 
  82   0.0000       1.585708        43.1493 
  83   0.0000       1.585720        43.1496 
  84   0.0000       1.642259        44.6881 
  85   0.0000       1.642276        44.6886 
  86   0.0000       1.702288        46.3216 
  87   0.0000       1.776958        48.3535 
  88   0.0000       1.776966        48.3537 
  89   0.0000       1.855014        50.4775 
  90   0.0000       1.952911        53.1414 
  91   0.0000       1.985536        54.0292 
  92   0.0000       1.985540        54.0293 
  93   0.0000       2.024261        55.0829 
  94   0.0000       2.035051        55.3766 
  95   0.0000       2.035052        55.3766 
  96   0.0000       2.186675        59.5024 
  97   0.0000       2.186682        59.5026 
  98   0.0000       2.339494        63.6609 
  99   0.0000       2.591607        70.5212 
 100   0.0000       2.601280        70.7844 
 101   0.0000       2.601346        70.7862 
 102   0.0000       2.735962        74.4493 
 103   0.0000       2.837903        77.2233 
 104   0.0000       2.837928        77.2239 
 105   0.0000       2.865786        77.9820 
 106   0.0000       2.865816        77.9828 
 107   0.0000       3.007586        81.8406 
 108   0.0000       3.007635        81.8419 
 109   0.0000       3.054188        83.1087 
 110   0.0000       3.217672        87.5573 
 111   0.0000       3.331174        90.6458 
 112   0.0000       3.331215        90.6470 
 113   0.0000       3.428256        93.2876 
 114   0.0000       3.428304        93.2889 
 115   0.0000       3.464793        94.2818 
 116   0.0000       3.710747       100.9746 
 117   0.0000       3.717399       101.1556 
 118   0.0000       3.717437       101.1566 
 119   0.0000       3.837425       104.4216 
 120   0.0000       3.927566       106.8745 
 121   0.0000       3.927596       106.8753 
 122   0.0000       4.020668       109.4079 
 123   0.0000       4.111685       111.8846 
 124   0.0000       4.111702       111.8851 
 125   0.0000       4.186771       113.9278 
 126   0.0000       4.444270       120.9347 
 127   0.0000       4.444277       120.9349 
 128   0.0000       4.488649       122.1424 
 129   0.0000       4.878648       132.7548 
 130   0.0000       4.878668       132.7553 
 131   0.0000       4.957777       134.9080 
 132   0.0000       4.972697       135.3140 
 133   0.0000       5.084479       138.3557 
 134   0.0000       5.157451       140.3414 
 135   0.0000       5.157506       140.3429 
 136   0.0000       5.414632       147.3396 
 137   0.0000       5.414669       147.3406 
 138   0.0000       5.555810       151.1813 
 139   0.0000       5.555813       151.1814 
 140   0.0000       5.566189       151.4637 
 141   0.0000       5.570179       151.5723 
 142   0.0000       5.624603       153.0532 
 143   0.0000       5.624605       153.0533 
 144   0.0000       5.702475       155.1722 
 145   0.0000       5.702484       155.1725 
 146   0.0000       5.742823       156.2702 
 147   0.0000       6.236878       169.7141 
 148   0.0000       6.244139       169.9116 
 149   0.0000       6.316764       171.8879 
 150   0.0000       6.316770       171.8881 
 151   0.0000       6.491461       176.6416 
 152   0.0000       6.491468       176.6418 
 153   0.0000       6.533559       177.7872 
 154   0.0000      23.399403       636.7301 

                    ********************************
                    * MULLIKEN POPULATION ANALYSIS *
                    ********************************

--------------------------------------------
MULLIKEN ATOMIC CHARGES AND SPIN POPULATIONS
--------------------------------------------
   0 C :   -0.947521   -0.211012
   1 H :    0.313504    0.011405
   2 H :    0.313677    0.011415
   3 H :    0.313544    0.011406
   4 Cr:    1.006795    4.176786
Sum of atomic charges         :    1.0000000
Sum of atomic spin populations:    4.0000000

-----------------------------------------------------
MULLIKEN REDUCED ORBITAL CHARGES AND SPIN POPULATIONS
-----------------------------------------------------
CHARGE
  0 C s       :     3.248476  s :     3.248476
      pz      :     1.250242  p :     3.643723
      px      :     1.232398
      py      :     1.161082
      dz2     :     0.020249  d :     0.053566
      dxz     :     0.009367
      dyz     :     0.004811
      dx2y2   :     0.010013
      dxy     :     0.009127
      f0      :     0.000340  f :     0.001755
      f+1     :     0.000099
      f-1     :     0.000253
      f+2     :     0.000111
      f-2     :     0.000227
      f+3     :     0.000397
      f-3     :     0.000328
  1 H s       :     0.658757  s :     0.658757
      pz      :     0.017858  p :     0.025489
      px      :     0.008308
      py      :    -0.000676
      dz2     :     0.000560  d :     0.002249
      dxz     :     0.000820
      dyz     :     0.000875
      dx2y2   :    -0.000001
      dxy     :    -0.000005
  2 H s       :     0.658664  s :     0.658664
      pz      :     0.011593  p :     0.025409
      px      :     0.014527
      py      :    -0.000711
      dz2     :     0.000328  d :     0.002249
      dxz     :     0.000666
      dyz     :     0.000084
      dx2y2   :     0.000385
      dxy     :     0.000786
  3 H s       :     0.658791  s :     0.658791
      pz      :     0.011584  p :     0.025416
      px      :     0.010412
      py      :     0.003420
      dz2     :     0.000328  d :     0.002249
      dxz     :     0.000263
      dyz     :     0.000487
      dx2y2   :     0.000675
      dxy     :     0.000496
  4 Crs       :     6.305107  s :     6.305107
      pz      :     4.015765  p :    12.067670
      px      :     4.019172
      py      :     4.032733
      dz2     :     0.959802  d :     4.615348
      dxz     :     0.972530
      dyz     :     0.914287
      dx2y2   :     0.949443
      dxy     :     0.819285
      f0      :     0.000390  f :     0.004986
      f+1     :     0.000326
      f-1     :     0.000875
      f+2     :     0.000444
      f-2     :     0.000814
      f+3     :     0.000951
      f-3     :     0.001187
      g0      :     0.000006  g :     0.000094
      g+1     :     0.000005
      g-1     :     0.000013
      g+2     :     0.000003
      g-2     :     0.000008
      g+3     :     0.000021
      g-3     :     0.000006
      g+4     :     0.000015
      g-4     :     0.000018

SPIN
  0 C s       :    -0.027709  s :    -0.027709
      pz      :    -0.016572  p :    -0.188156
      px      :    -0.039655
      py      :    -0.131929
      dz2     :     0.002013  d :     0.003847
      dxz     :    -0.001907
      dyz     :    -0.000117
      dx2y2   :     0.002477
      dxy     :     0.001380
      f0      :     0.000097  f :     0.001007
      f+1     :     0.000070
      f-1     :     0.000180
      f+2     :     0.000137
      f-2     :     0.000123
      f+3     :     0.000117
      f-3     :     0.000283
  1 H s       :     0.008823  s :     0.008823
      pz      :     0.002958  p :     0.002805
      px      :     0.001466
      py      :    -0.001619
      dz2     :     0.000025  d :    -0.000223
      dxz     :    -0.000075
      dyz     :    -0.000165
      dx2y2   :    -0.000003
      dxy     :    -0.000005
  2 H s       :     0.008837  s :     0.008837
      pz      :     0.001141  p :     0.002802
      px      :     0.003281
      py      :    -0.001620
      dz2     :    -0.000021  d :    -0.000223
      dxz     :    -0.000048
      dyz     :    -0.000016
      dx2y2   :     0.000016
      dxy     :    -0.000154
  3 H s       :     0.008829  s :     0.008829
      pz      :     0.001144  p :     0.002800
      px      :    -0.000721
      py      :     0.002377
      dz2     :    -0.000021  d :    -0.000223
      dxz     :    -0.000041
      dyz     :    -0.000022
      dx2y2   :    -0.000123
      dxy     :    -0.000016
  4 Crs       :    -0.075712  s :    -0.075712
      pz      :    -0.002505  p :    -0.015406
      px      :    -0.003819
      py      :    -0.009082
      dz2     :     0.916608  d :     4.267679
      dxz     :     0.944556
      dyz     :     0.836600
      dx2y2   :     0.881623
      dxy     :     0.688292
      f0      :    -0.000013  f :     0.000267
      f+1     :     0.000044
      f-1     :     0.000101
      f+2     :     0.000038
      f-2     :    -0.000003
      f+3     :    -0.000065
      f-3     :     0.000164
      g0      :    -0.000000  g :    -0.000041
      g+1     :    -0.000003
      g-1     :    -0.000009
      g+2     :     0.000000
      g-2     :    -0.000001
      g+3     :    -0.000014
      g-3     :    -0.000000
      g+4     :    -0.000004
      g-4     :    -0.000010


                     *******************************
                     * LOEWDIN POPULATION ANALYSIS *
                     *******************************

-------------------------------------------
LOEWDIN ATOMIC CHARGES AND SPIN POPULATIONS
-------------------------------------------
   0 C :    0.089905   -0.119761
   1 H :   -0.059677   -0.013128
   2 H :   -0.059673   -0.013128
   3 H :   -0.059671   -0.013127
   4 Cr:    1.089116    4.159144

----------------------------------------------------
LOEWDIN REDUCED ORBITAL CHARGES AND SPIN POPULATIONS
----------------------------------------------------
CHARGE
  0 C s       :     2.722771  s :     2.722771
      pz      :     0.970843  p :     2.894100
      px      :     0.967770
      py      :     0.955487
      dz2     :     0.071779  d :     0.271103
      dxz     :     0.036768
      dyz     :     0.041156
      dx2y2   :     0.054741
      dxy     :     0.066659
      f0      :     0.005218  f :     0.022121
      f+1     :     0.001227
      f-1     :     0.001984
      f+2     :     0.003392
      f-2     :     0.003429
      f+3     :     0.004997
      f-3     :     0.001873
  1 H s       :     0.708999  s :     0.708999
      pz      :     0.145095  p :     0.319907
      px      :     0.084884
      py      :     0.089928
      dz2     :     0.010461  d :     0.030772
      dxz     :     0.009835
      dyz     :     0.010384
      dx2y2   :     0.000029
      dxy     :     0.000063
  2 H s       :     0.708996  s :     0.708996
      pz      :     0.088996  p :     0.319905
      px      :     0.140981
      py      :     0.089928
      dz2     :     0.004537  d :     0.030771
      dxz     :     0.008642
      dyz     :     0.000847
      dx2y2   :     0.007147
      dxy     :     0.009599
  3 H s       :     0.708997  s :     0.708997
      pz      :     0.088995  p :     0.319903
      px      :     0.095632
      py      :     0.135277
      dz2     :     0.004537  d :     0.030771
      dxz     :     0.002736
      dyz     :     0.006753
      dx2y2   :     0.009414
      dxy     :     0.007332
  4 Crs       :     6.044586  s :     6.044586
      pz      :     4.037243  p :    12.142826
      px      :     4.042426
      py      :     4.063157
      dz2     :     0.973181  d :     4.705860
      dxz     :     0.975794
      dyz     :     0.933681
      dx2y2   :     0.973612
      dxy     :     0.849593
      f0      :     0.001641  f :     0.017328
      f+1     :     0.000939
      f-1     :     0.002619
      f+2     :     0.001686
      f-2     :     0.003028
      f+3     :     0.003885
      f-3     :     0.003530
      g0      :     0.000020  g :     0.000284
      g+1     :     0.000014
      g-1     :     0.000037
      g+2     :     0.000010
      g-2     :     0.000027
      g+3     :     0.000058
      g-3     :     0.000021
      g+4     :     0.000045
      g-4     :     0.000053

SPIN
  0 C s       :    -0.011662  s :    -0.011662
      pz      :    -0.019322  p :    -0.163133
      px      :    -0.036850
      py      :    -0.106961
      dz2     :     0.013830  d :     0.049529
      dxz     :     0.004960
      dyz     :     0.007769
      dx2y2   :     0.015767
      dxy     :     0.007202
      f0      :     0.000226  f :     0.005506
      f+1     :     0.000353
      f-1     :     0.000904
      f+2     :     0.001097
      f-2     :     0.001001
      f+3     :     0.000499
      f-3     :     0.001425
  1 H s       :     0.010994  s :     0.010994
      pz      :    -0.001981  p :    -0.022113
      px      :    -0.004824
      py      :    -0.015308
      dz2     :    -0.000135  d :    -0.002009
      dxz     :    -0.000504
      dyz     :    -0.001385
      dx2y2   :     0.000007
      dxy     :     0.000007
  2 H s       :     0.010994  s :     0.010994
      pz      :    -0.002897  p :    -0.022113
      px      :    -0.003908
      py      :    -0.015309
      dz2     :    -0.000154  d :    -0.002009
      dxz     :    -0.000369
      dyz     :    -0.000132
      dx2y2   :    -0.000109
      dxy     :    -0.001246
  3 H s       :     0.010994  s :     0.010994
      pz      :    -0.002896  p :    -0.022113
      px      :    -0.006212
      py      :    -0.013005
      dz2     :    -0.000154  d :    -0.002009
      dxz     :    -0.000357
      dyz     :    -0.000144
      dx2y2   :    -0.001140
      dxy     :    -0.000214
  4 Crs       :    -0.048798  s :    -0.048798
      pz      :     0.006071  p :     0.008272
      px      :     0.004414
      py      :    -0.002212
      dz2     :     0.905471  d :     4.200130
      dxz     :     0.934568
      dyz     :     0.821548
      dx2y2   :     0.863646
      dxy     :     0.674896
      f0      :    -0.000233  f :    -0.000404
      f+1     :     0.000086
      f-1     :     0.000202
      f+2     :     0.000016
      f-2     :    -0.000246
      f+3     :    -0.000651
      f-3     :     0.000422
      g0      :     0.000001  g :    -0.000056
      g+1     :    -0.000005
      g-1     :    -0.000014
      g+2     :     0.000000
      g-2     :     0.000001
      g+3     :    -0.000021
      g-3     :     0.000001
      g+4     :    -0.000004
      g-4     :    -0.000016


                      *****************************
                      * MAYER POPULATION ANALYSIS *
                      *****************************

  NA   - Mulliken gross atomic population
  ZA   - Total nuclear charge
  QA   - Mulliken gross atomic charge
  VA   - Mayer's total valence
  BVA  - Mayer's bonded valence
  FA   - Mayer's free valence

  ATOM       NA         ZA         QA         VA         BVA        FA
  0 C      6.9475     6.0000    -0.9475     3.8081     3.7522     0.0559
  1 H      0.6865     1.0000     0.3135     0.9557     0.9560    -0.0003
  2 H      0.6863     1.0000     0.3137     0.9555     0.9558    -0.0003
  3 H      0.6865     1.0000     0.3135     0.9555     0.9558    -0.0003
  4 Cr    22.9932    24.0000     1.0068     5.1592     1.1177     4.0415

  Mayer bond orders larger than 0.100000
B(  0-C ,  1-H ) :   0.8885 B(  0-C ,  2-H ) :   0.8883 B(  0-C ,  3-H ) :   0.8883 
B(  0-C ,  4-Cr) :   1.0872 

-------
TIMINGS
-------

Total SCF time: 0 days 0 hours 4 min 9 sec 

Total time                  ....     249.711 sec
Sum of individual times     ....     246.773 sec  ( 98.8%)

Fock matrix formation       ....     235.474 sec  ( 94.3%)
  XC integration            ....     222.444 sec  ( 94.5% of F)
    Basis function eval.    ....       0.099 sec  (  0.0% of XC)
    Density eval.           ....       0.282 sec  (  0.1% of XC)
    XC-Functional eval.     ....       0.054 sec  (  0.0% of XC)
    XC-Potential eval.      ....       0.646 sec  (  0.3% of XC)
Diagonalization             ....       4.775 sec  (  1.9%)
Density matrix formation    ....       0.020 sec  (  0.0%)
Population analysis         ....       0.470 sec  (  0.2%)
Initial guess               ....       0.721 sec  (  0.3%)
Orbital Transformation      ....       0.000 sec  (  0.0%)
Orbital Orthonormalization  ....       0.000 sec  (  0.0%)
DIIS solution               ....       0.293 sec  (  0.1%)
Grid generation             ....       5.021 sec  (  2.0%)

-------------------------   --------------------
FINAL SINGLE POINT ENERGY     -1083.985585546297
-------------------------   --------------------


----------------------------------------------------------------------------
                           ORCA NUMERICAL GRADIENT
                              (28-process run)
----------------------------------------------------------------------------

I state                        ... 1
J state                        ... 0
Number of atoms                ... 5
Derivative's order of accuracy ... 2
Central differences            ... used
Number of displacements        ... 30
Numerical increment            ... 5.000e-03 bohr
Translation invariance         ... used

The output will be reduced. Please look at the following files:
SCF program output             ... >CrCH3+.lastscf
Integral program output        ... >CrCH3+.lastint
Gradient program output        ... >CrCH3+.lastgrad


     Note:   There are more processes than displacements to do
     ===>:   Reducing number of processes to  12

             <<<Displacing   2/coordinate 1 (+)>>>
             <<<Displacing   4/coordinate 3 (+)>>>
             <<<Displacing   3/coordinate 1 (+)>>>
             <<<Displacing   4/coordinate 2 (+)>>>
             <<<Displacing   2/coordinate 2 (+)>>>
             <<<Displacing   3/coordinate 2 (+)>>>
             <<<Displacing   4/coordinate 1 (+)>>>
             <<<Displacing   5/coordinate 2 (+)>>>
             <<<Displacing   5/coordinate 1 (+)>>>
             <<<Displacing   3/coordinate 3 (+)>>>
             <<<Displacing   5/coordinate 3 (+)>>>
             <<<Displacing   2/coordinate 3 (+)>>>
             <<<Displacing   4/coordinate 3 (-)>>>
             <<<Displacing   3/coordinate 2 (-)>>>
             <<<Displacing   2/coordinate 1 (-)>>>
             <<<Displacing   2/coordinate 2 (-)>>>
             <<<Displacing   4/coordinate 2 (-)>>>
             <<<Displacing   3/coordinate 1 (-)>>>
             <<<Displacing   3/coordinate 3 (-)>>>
             <<<Displacing   4/coordinate 1 (-)>>>
             <<<Displacing   2/coordinate 3 (-)>>>
             <<<Displacing   5/coordinate 2 (-)>>>
             <<<Displacing   5/coordinate 3 (-)>>>
             <<<Displacing   5/coordinate 1 (-)>>>

------------------------------
CARTESIAN GRADIENT (NUMERICAL)
-------------------------------
   1   C   :   -0.016166361   -0.027984635   -0.011410958
   2   H   :   -0.000114205   -0.000189716    0.004071424
   3   H   :    0.003827340   -0.000187781   -0.001445786
   4   H   :   -0.002070287    0.003198628   -0.001463679
   5   Cr  :    0.014523513    0.025163504    0.010248999

Norm of the cartesian gradient     ...    0.046625494
RMS gradient                       ...    0.012038651
MAX gradient                       ...    0.027984635

-------
TIMINGS
-------

Total numerical gradient time      ...       62.213 sec


                            ***************************************
                            *     ORCA property calculations      *
                            ***************************************

                                    ---------------------
                                    Active property flags
                                    ---------------------
   (+) Dipole Moment


------------------------------------------------------------------------------
                       ORCA ELECTRIC PROPERTIES CALCULATION
------------------------------------------------------------------------------

Dipole Moment Calculation                       ... on
Quadrupole Moment Calculation                   ... off
Polarizability Calculation                      ... off
GBWName                                         ... CrCH3+.gbw
Electron density file                           ... CrCH3+.scfp
The origin for moment calculation is the CENTER OF MASS  = (-1.298217, -2.248568 -0.917972)

-------------
DIPOLE MOMENT
-------------
                                X             Y             Z
Electronic contribution:     -3.67619      -6.36733      -2.59942
Nuclear contribution   :      3.19934       5.54142       2.26226
                        -----------------------------------------
Total Dipole Moment    :     -0.47684      -0.82591      -0.33716
                        -----------------------------------------
Magnitude (a.u.)       :      1.01152
Magnitude (Debye)      :      2.57108



--------------------
Rotational spectrum 
--------------------
 
Rotational constants in cm-1:     5.182984     0.355754     0.355754 
Rotational constants in MHz : 155381.939270 10665.239464 10665.237606 

 Dipole components along the rotational axes: 
x,y,z [a.u.] :     1.011521     0.000004     0.000017 
x,y,z [Debye]:     2.571082     0.000011     0.000044 

 

Timings for individual modules:

Sum of individual times         ...      319.200 sec (=   5.320 min)
GTO integral calculation        ...        6.501 sec (=   0.108 min)   2.0 %
SCF iterations                  ...      250.486 sec (=   4.175 min)  78.5 %
SCF Gradient evaluation         ...       62.213 sec (=   1.037 min)  19.5 %
                             ****ORCA TERMINATED NORMALLY****
TOTAL RUN TIME: 0 days 0 hours 6 minutes 7 seconds 272 msec
