
                                 *****************
                                 * O   R   C   A *
                                 *****************

           --- An Ab Initio, DFT and Semiempirical electronic structure package ---

                  #######################################################
                  #                        -***-                        #
                  #          Department of theory and spectroscopy      #
                  #               Directorship: Frank Neese             #
                  #        Max Planck Institute fuer Kohlenforschung    #
                  #                Kaiser Wilhelm Platz 1               #
                  #                 D-45470 Muelheim/Ruhr               #
                  #                      Germany                        #
                  #                                                     #
                  #                  All rights reserved                #
                  #                        -***-                        #
                  #######################################################


                         Program Version 4.2.0 -  RELEASE  -


 With contributions from (in alphabetic order):
   Daniel Aravena         : Magnetic Suceptibility
   Michael Atanasov       : Ab Initio Ligand Field Theory (pilot matlab implementation)
   Alexander A. Auer      : GIAO ZORA, VPT2
   Ute Becker             : Parallelization
   Giovanni Bistoni       : ED, misc. LED, open-shell LED, HFLED
   Martin Brehm           : Molecular dynamics
   Dmytro Bykov           : SCF Hessian
   Vijay G. Chilkuri      : MRCI spin determinant printing, contributions to CSF-ICE
   Dipayan Datta          : RHF DLPNO-CCSD density
   Achintya Kumar Dutta   : EOM-CC, STEOM-CC
   Dmitry Ganyushin       : Spin-Orbit,Spin-Spin,Magnetic field MRCI
   Miquel Garcia          : C-PCM Hessian, Gaussian charge scheme
   Yang Guo               : DLPNO-NEVPT2, CIM, IAO-localization
   Andreas Hansen         : Spin unrestricted coupled pair/coupled cluster methods
   Benjamin Helmich-Paris : CASSCF linear response (MC-RPA)
   Lee Huntington         : MR-EOM, pCC
   Robert Izsak           : Overlap fitted RIJCOSX, COSX-SCS-MP3, EOM
   Christian Kollmar      : KDIIS, OOCD, Brueckner-CCSD(T), CCSD density
   Simone Kossmann        : Meta GGA functionals, TD-DFT gradient, OOMP2, MP2 Hessian
   Martin Krupicka        : AUTO-CI
   Lucas Lang             : DCDCAS
   Dagmar Lenk            : GEPOL surface, SMD
   Dimitrios Liakos       : Extrapolation schemes; Compound Job, initial MDCI parallelization
   Dimitrios Manganas     : Further ROCIS development; embedding schemes
   Dimitrios Pantazis     : SARC Basis sets
   Taras Petrenko         : DFT Hessian,TD-DFT gradient, ASA, ECA, R-Raman, ABS, FL, XAS/XES, NRVS
   Peter Pinski           : DLPNO-MP2, DLPNO-MP2 Gradient
   Christoph Reimann      : Effective Core Potentials
   Marius Retegan         : Local ZFS, SOC
   Christoph Riplinger    : Optimizer, TS searches, QM/MM, DLPNO-CCSD(T), (RO)-DLPNO pert. Triples
   Tobias Risthaus        : Range-separated hybrids, TD-DFT gradient, RPA, STAB
   Michael Roemelt        : Original ROCIS implementation
   Masaaki Saitow         : Open-shell DLPNO-CCSD energy and density
   Barbara Sandhoefer     : DKH picture change effects
   Avijit Sen             : IP-ROCIS
   Kantharuban Sivalingam : CASSCF convergence, NEVPT2, FIC-MRCI
   Bernardo de Souza      : ESD, SOC TD-DFT
   Georgi Stoychev        : AutoAux, RI-MP2 NMR
   Willem Van den Heuvel  : Paramagnetic NMR
   Boris Wezisla          : Elementary symmetry handling
   Frank Wennmohs         : Technical directorship


 We gratefully acknowledge several colleagues who have allowed us to
 interface, adapt or use parts of their codes:
   Stefan Grimme, W. Hujo, H. Kruse,             : VdW corrections, initial TS optimization,
                  C. Bannwarth                     DFT functionals, gCP, sTDA/sTD-DF
   Ed Valeev, F. Pavosevic, A. Kumar             : LibInt (2-el integral package), F12 methods
   Garnet Chan, S. Sharma, J. Yang, R. Olivares  : DMRG
   Ulf Ekstrom                                   : XCFun DFT Library
   Mihaly Kallay                                 : mrcc  (arbitrary order and MRCC methods)
   Andreas Klamt, Michael Diedenhofen            : otool_cosmo (COSMO solvation model)
   Jiri Pittner, Ondrej Demel                    : Mk-CCSD
   Frank Weinhold                                : gennbo (NPA and NBO analysis)
   Christopher J. Cramer and Donald G. Truhlar   : smd solvation model
   Lars Goerigk                                  : TD-DFT with DH, B97 family of functionals
   V. Asgeirsson, H. Jonsson                     : NEB implementation
   FAccTs GmbH                                   : IRC, NEB, NEB-TS, Multilevel, MM, QM/MM, CI optimization
   S Lehtola, MJT Oliveira, MAL Marques          : LibXC Library


 Your calculation uses the libint2 library for the computation of 2-el integrals
 For citations please refer to: http://libint.valeyev.net

 Your ORCA version has been built with support for libXC version: 4.2.3
 For citations please refer to: https://tddft.org/programs/libxc/

 This ORCA versions uses:
   CBLAS   interface :  Fast vector & matrix operations
   LAPACKE interface :  Fast linear algebra routines
   SCALAPACK package :  Parallel linear algebra routines


Your calculation utilizes the DFT-NL dispersion correction.
Cite in your paper:
Vydrov, O. A.; Van Voorhis, T. J. Chem. Phys. 2010, 133, 244103
Hujo, W.; Grimme, S. J. Chem. Theory Comput. 2011, 7, 3866 
   

----- Orbital basis set information -----
Your calculation utilizes the basis: def2-TZVPPD
   F. Weigend and R. Ahlrichs, Phys. Chem. Chem. Phys. 7, 3297 (2005).
   D. Rappoport and F. Furche, J. Chem. Phys. 133 134105 (2010).

----- AuxJK basis set information -----
Your calculation utilizes the auxiliary basis: def2/JK
   H-Ba, Hf-Rn: F. Weigend, J. Comput. Chem. 29, 167 (2008).

================================================================================
                                        WARNINGS
                       Please study these warnings very carefully!
================================================================================

INFO   : Found keyword 'NumGrad' for Energy calculation
  ===> : Setting RunTyp to EnGrad

WARNING: Numerical Gradient with sloppy Convergence Criteria    
         Your results may be not reliable!                      
         Please choose at least TightSCF!                       

INFO   : the flag for use of LIBINT has been found!

================================================================================
                                       INPUT FILE
================================================================================
NAME = Cu2.in
|  1> #
|  2> # Cu2 wB97M-V/Def2-TZVPPD
|  3> #
|  4> ! wb97m-v def2-tzvppd def2/jk grid4 nofinalgrid numgrad
|  5> 
|  6> *xyz 0 1
|  7> Cu         0.00000        0.00000        0.00000
|  8> Cu         0.00000        0.00000        2.22000
|  9> *
| 10> 
| 11> %maxcore 5000
| 12> 
| 13> %pal
| 14> nprocs = 28
| 15> end
| 16> 
| 17> 
| 18>                          ****END OF INPUT****
================================================================================

                     *******************************
                     * Energy+Gradient Calculation *
                     *******************************

---------------------------------
CARTESIAN COORDINATES (ANGSTROEM)
---------------------------------
  Cu     0.000000    0.000000    0.000000
  Cu     0.000000    0.000000    2.220000

----------------------------
CARTESIAN COORDINATES (A.U.)
----------------------------
  NO LB      ZA    FRAG     MASS         X           Y           Z
   0 Cu   29.0000    0    63.550    0.000000    0.000000    0.000000
   1 Cu   29.0000    0    63.550    0.000000    0.000000    4.195192

--------------------------------
INTERNAL COORDINATES (ANGSTROEM)
--------------------------------
 Cu     0   0   0     0.000000000000     0.00000000     0.00000000
 Cu     1   0   0     2.220000000000     0.00000000     0.00000000

---------------------------
INTERNAL COORDINATES (A.U.)
---------------------------
 Cu     0   0   0     0.000000000000     0.00000000     0.00000000
 Cu     1   0   0     4.195192017305     0.00000000     0.00000000

---------------------
BASIS SET INFORMATION
---------------------
There are 1 groups of distinct atoms

 Group   1 Type Cu  : 17s13p7d2f1g contracted to 6s6p4d2f1g pattern {842111/631111/4111/11/1}

Atom   0Cu   basis set group =>   1
Atom   1Cu   basis set group =>   1
----------------------------------
AUXILIARY/JK BASIS SET INFORMATION
----------------------------------
There are 1 groups of distinct atoms

 Group   1 Type Cu  : 19s14p12d10f7g3h1i contracted to 16s13p11d9f5g3h1i pattern {4111111111111111/2111111111111/21111111111/211111111/31111/111/1}

Atom   0Cu   basis set group =>   1
Atom   1Cu   basis set group =>   1


           ************************************************************
           *        Program running with 28 parallel MPI-processes    *
           *              working on a common directory               *
           ************************************************************
------------------------------------------------------------------------------
                           ORCA GTO INTEGRAL CALCULATION
------------------------------------------------------------------------------

                         BASIS SET STATISTICS AND STARTUP INFO

 # of primitive gaussian shells          ...   80
 # of primitive gaussian functions       ...  228
 # of contracted shells                  ...   38
 # of contracted basis functions         ...  134
 Highest angular momentum                ...    4
 Maximum contraction depth               ...    8
 Integral package used                   ... LIBINT
 Integral threshhold            Thresh   ...  1.000e-10
 Primitive cut-off              TCut     ...  1.000e-11


------------------------------ INTEGRAL EVALUATION ----------------------------


 * One electron integrals 
 Pre-screening matrix                    ... done
 Shell pair data                         ... done (   0.000 sec)



           ************************************************************
           *        Program running with 28 parallel MPI-processes    *
           *              working on a common directory               *
           ************************************************************
-------------------------------------------------------------------------------
                                 ORCA SCF
-------------------------------------------------------------------------------

------------
SCF SETTINGS
------------
Hamiltonian:
 Density Functional     Method          .... DFT(GTOs)
 Exchange Functional    Exchange        .... WB97M-V
 Correlation Functional Correlation     .... WB97M-V
 Gradients option       PostSCFGGA      .... off
 Hybrid DFT is turned on
   Fraction HF Exchange ScalHFX         ....  0.150000
   Scaling of DF-GGA-X  ScalDFX         ....  0.000000
   Scaling of DF-GGA-C  ScalDFC         ....  1.000000
   Scaling of DF-LDA-C  ScalLDAC        ....  1.000000
   Perturbative correction              ....  0.000000
   Density functional embedding theory  .... OFF
 Long-range corrected/Screened/Range-Separated Hybrid DFT is turned on
   Amount of maximum screened exact exchange              ....  0.850000
   Range separation parameter mu (erf(mu*r12)/r12)        ....  0.300000
   NL short-range parameter             ....  6.000000
   NL long-range parameter              ....  0.010000


General Settings:
 Integral files         IntName         .... Cu2
 Hartree-Fock type      HFTyp           .... RHF
 Total Charge           Charge          ....    0
 Multiplicity           Mult            ....    1
 Number of Electrons    NEL             ....   58
 Basis Dimension        Dim             ....  134
 Nuclear Repulsion      ENuc            ....    200.4675820632 Eh

Convergence Acceleration:
 DIIS                   CNVDIIS         .... on
   Start iteration      DIISMaxIt       ....    12
   Startup error        DIISStart       ....  0.200000
   # of expansion vecs  DIISMaxEq       ....     5
   Bias factor          DIISBfac        ....   1.050
   Max. coefficient     DIISMaxC        ....  10.000
 Newton-Raphson         CNVNR           .... off
 SOSCF                  CNVSOSCF        .... off
 Level Shifting         CNVShift        .... on
   Level shift para.    LevelShift      ....    0.2500
   Turn off err/grad.   ShiftErr        ....    0.0010
 Zerner damping         CNVZerner       .... off
 Static damping         CNVDamp         .... on
   Fraction old density DampFac         ....    0.7000
   Max. Damping (<1)    DampMax         ....    0.9800
   Min. Damping (>=0)   DampMin         ....    0.0000
   Turn off err/grad.   DampErr         ....    0.1000
 Fernandez-Rico         CNVRico         .... off

SCF Procedure:
 Maximum # iterations   MaxIter         ....   125
 SCF integral mode      SCFMode         .... Direct
   Integral package                     .... LIBINT
 Reset frequency        DirectResetFreq ....    20
 Integral Threshold     Thresh          ....  1.000e-10 Eh
 Primitive CutOff       TCut            ....  1.000e-11 Eh

Convergence Tolerance:
 Convergence Check Mode ConvCheckMode   .... Total+1el-Energy
 Convergence forced     ConvForced      .... 0
 Energy Change          TolE            ....  1.000e-06 Eh
 1-El. energy change                    ....  1.000e-03 Eh
 DIIS Error             TolErr          ....  1.000e-06


Diagonalization of the overlap matrix:
Smallest eigenvalue                        ... 7.789e-04
Time for diagonalization                   ...    0.003 sec
Threshold for overlap eigenvalues          ... 1.000e-08
Number of eigenvalues below threshold      ... 0
Time for construction of square roots      ...    0.057 sec
Total time needed                          ...    0.061 sec

-------------------
DFT GRID GENERATION
-------------------

General Integration Accuracy     IntAcc      ...  4.670
Radial Grid Type                 RadialGrid  ... Gauss-Chebyshev
Angular Grid (max. acc.)         AngularGrid ... Lebedev-302
Angular grid pruning method      GridPruning ... 3 (G Style)
Weight generation scheme         WeightScheme... Becke
Basis function cutoff            BFCut       ...    1.0000e-10
Integration weight cutoff        WCut        ...    1.0000e-14
Grids for H and He will be reduced by one unit

# of grid points (after initial pruning)     ...  19112 (   0.0 sec)
# of grid points (after weights+screening)   ...  19084 (   0.0 sec)
nearest neighbour list constructed           ...    0.0 sec
Grid point re-assignment to atoms done       ...    0.0 sec
Grid point division into batches done        ...    0.1 sec
Reduced shell lists constructed in    0.2 sec

Total number of grid points                  ...    19084
Total number of batches                      ...      300
Average number of points per batch           ...       63
Average number of grid points per atom       ...     9542
Average number of shells per batch           ...     7.17 (18.86%)
Average number of basis functions per batch  ...    20.00 (14.93%)
Average number of large shells per batch     ...     5.50 (76.74%)
Average number of large basis fcns per batch ...    15.83 (79.17%)
Maximum spatial batch extension              ...  22.17, 22.17, 16.37 au
Average spatial batch extension              ...   0.65,  0.64,  0.49 au

Time for grid setup =    1.928 sec

------------------------------
INITIAL GUESS: MODEL POTENTIAL
------------------------------
Loading Hartree-Fock densities                     ... done
Calculating cut-offs                               ... done
Setting up the integral package                    ... done
Initializing the effective Hamiltonian             ... done
Starting the Coulomb interaction                   ... done (   0.0 sec)
Reading the grid                                   ... done
Mapping shells                                     ... done
Starting the XC term evaluation                    ... done (   0.0 sec)
  promolecular density results
     # of electrons  =     58.000033924
     EX              =   -130.945276993
     EC              =     -2.692507760
     EX+EC           =   -133.637784753
Transforming the Hamiltonian                       ... done (   0.0 sec)
Diagonalizing the Hamiltonian                      ... done (   0.0 sec)
Back transforming the eigenvectors                 ... done (   0.0 sec)
Now organizing SCF variables                       ... done
                      ------------------
                      INITIAL GUESS DONE (   2.3 sec)
                      ------------------
--------------
SCF ITERATIONS
--------------
ITER       Energy         Delta-E        Max-DP      RMS-DP      [F,P]     Damp
               ***  Starting incremental Fock matrix formation  ***
  0  -3281.0081131454   0.000000000000 0.05064313  0.00147007  0.1942822 0.7000
  1  -3281.0488839530  -0.040770807647 0.04868917  0.00094796  0.0479887 0.7000
                               ***Turning on DIIS***
  2  -3281.0645741874  -0.015690234347 0.12251000  0.00215153  0.0296649 0.0000
  3  -3281.1028610240  -0.038286836622 0.00996666  0.00029168  0.0214370 0.0000
  4  -3281.1038775933  -0.001016569266 0.01061732  0.00019950  0.0096386 0.0000
  5  -3281.1040268488  -0.000149255505 0.00858583  0.00014265  0.0060615 0.0000
  6  -3281.1041348035  -0.000107954696 0.00978230  0.00015376  0.0009612 0.0000
  7  -3281.1041611340  -0.000026330540 0.00220063  0.00003569  0.0002536 0.0000
  8  -3281.1041629633  -0.000001829249 0.00015847  0.00000458  0.0000993 0.0000
  9  -3281.1041631328  -0.000000169540 0.00011933  0.00000273  0.0000510 0.0000
                 **** Energy Check signals convergence ****

               *****************************************************
               *                     SUCCESS                       *
               *           SCF CONVERGED AFTER  10 CYCLES          *
               *****************************************************


Setting up the DFT-NL grid :

General Integration Accuracy     IntAcc      ...  4.340
Radial Grid Type                 RadialGrid  ... Gauss-Chebyshev
Angular Grid (max. acc.)         AngularGrid ... Lebedev-110
Angular grid pruning method      GridPruning ... 3 (G Style)
Weight generation scheme         WeightScheme... Becke
Basis function cutoff            BFCut       ...    1.0000e-10
Integration weight cutoff        WCut        ...    1.0000e-14
Grids for H and He will be reduced by one unit

# of grid points (after initial pruning)     ...   5824 (   0.0 sec)
# of grid points (after weights+screening)   ...   5798 (   0.0 sec)
nearest neighbour list constructed           ...    0.0 sec
Grid point re-assignment to atoms done       ...    0.0 sec
Grid point division into batches done        ...    0.0 sec
Reduced shell lists constructed in    0.0 sec

Total number of grid points                  ...     5798
Total number of batches                      ...       92
Average number of points per batch           ...       63
Average number of grid points per atom       ...     2899
Average number of shells per batch           ...    11.20 (29.47%)
Average number of basis functions per batch  ...    33.60 (25.07%)
Average number of large shells per batch     ...     9.60 (85.71%)
Average number of large basis fcns per batch ...    27.20 (80.95%)
Maximum spatial batch extension              ...  17.23, 26.34, 14.81 au
Average spatial batch extension              ...   0.69,  0.95,  0.64 au

Final grid set up in    3.1 sec

-------------------------------------------------------------------------------
                         DFT-NL dispersion correction                          
-------------------------------------------------------------------------------

SC Energy -3281.104163170 
NL    Energy 0.244920104 
SC+NL Energy -3280.859243066 
NL done in    1.9 sec
-------------------------------------------------------------------------------

----------------
TOTAL SCF ENERGY
----------------

Total Energy       :        -3280.85924307 Eh          -89276.71874 eV

Components:
Nuclear Repulsion  :          200.46758206 Eh            5455.00023 eV
Electronic Energy  :        -3481.32682513 Eh          -94731.71898 eV
One Electron Energy:        -4976.84734042 Eh         -135426.90110 eV
Two Electron Energy:         1495.52051529 Eh           40695.18212 eV

Virial components:
Potential Energy   :        -6557.41162034 Eh         -178436.24171 eV
Kinetic Energy     :         3276.55237728 Eh           89159.52297 eV
Virial Ratio       :            2.00131445


DFT components:
N(Alpha)           :       29.000000665220 electrons
N(Beta)            :       29.000000665220 electrons
N(Total)           :       58.000001330439 electrons
E(X)               :     -103.546010983434 Eh       
E(C)               :       -3.212177740675 Eh       
NL Energy, E(C,NL) :        0.244920104410 Eh       
E(XC)              :     -106.513268619699 Eh       
DFET-embed. en.    :        0.000000000000 Eh       

---------------
SCF CONVERGENCE
---------------

  Last Energy change         ...   -3.7268e-08  Tolerance :   1.0000e-06
  Last MAX-Density change    ...    1.2008e-04  Tolerance :   1.0000e-05
  Last RMS-Density change    ...    2.5621e-06  Tolerance :   1.0000e-06
  Last DIIS Error            ...    2.7361e-05  Tolerance :   1.0000e-06

             **** THE GBW FILE WAS UPDATED (Cu2.gbw) ****
             **** DENSITY FILE WAS UPDATED (Cu2.scfp) ****
             **** ENERGY FILE WAS UPDATED (Cu2.en.tmp) ****
             **** THE GBW FILE WAS UPDATED (Cu2.gbw) ****
             **** DENSITY FILE WAS UPDATED (Cu2.scfp) ****
----------------
ORBITAL ENERGIES
----------------

  NO   OCC          E(Eh)            E(eV) 
   0   2.0000    -323.524230     -8803.5419 
   1   2.0000    -323.524223     -8803.5417 
   2   2.0000     -39.035948     -1062.2221 
   3   2.0000     -39.035916     -1062.2213 
   4   2.0000     -34.137068      -928.9168 
   5   2.0000     -34.137061      -928.9167 
   6   2.0000     -34.136769      -928.9087 
   7   2.0000     -34.136769      -928.9087 
   8   2.0000     -34.136762      -928.9085 
   9   2.0000     -34.136762      -928.9085 
  10   2.0000      -4.425683      -120.4290 
  11   2.0000      -4.425058      -120.4120 
  12   2.0000      -2.894529       -78.7641 
  13   2.0000      -2.889117       -78.6169 
  14   2.0000      -2.888308       -78.5949 
  15   2.0000      -2.888308       -78.5949 
  16   2.0000      -2.887884       -78.5833 
  17   2.0000      -2.887884       -78.5833 
  18   2.0000      -0.393815       -10.7162 
  19   2.0000      -0.381104       -10.3704 
  20   2.0000      -0.381104       -10.3704 
  21   2.0000      -0.362246        -9.8572 
  22   2.0000      -0.362237        -9.8570 
  23   2.0000      -0.354056        -9.6344 
  24   2.0000      -0.354047        -9.6341 
  25   2.0000      -0.342922        -9.3314 
  26   2.0000      -0.342922        -9.3314 
  27   2.0000      -0.338898        -9.2219 
  28   2.0000      -0.280154        -7.6234 
  29   0.0000      -0.024137        -0.6568 
  30   0.0000       0.022379         0.6090 
  31   0.0000       0.022379         0.6090 
  32   0.0000       0.037709         1.0261 
  33   0.0000       0.067721         1.8428 
  34   0.0000       0.068611         1.8670 
  35   0.0000       0.068611         1.8670 
  36   0.0000       0.146058         3.9744 
  37   0.0000       0.162515         4.4223 
  38   0.0000       0.162515         4.4223 
  39   0.0000       0.176236         4.7956 
  40   0.0000       0.217169         5.9095 
  41   0.0000       0.224208         6.1010 
  42   0.0000       0.224209         6.1010 
  43   0.0000       0.227229         6.1832 
  44   0.0000       0.227229         6.1832 
  45   0.0000       0.272442         7.4135 
  46   0.0000       0.279846         7.6150 
  47   0.0000       0.279846         7.6150 
  48   0.0000       0.289778         7.8853 
  49   0.0000       0.289779         7.8853 
  50   0.0000       0.367928        10.0118 
  51   0.0000       0.381563        10.3829 
  52   0.0000       0.381563        10.3829 
  53   0.0000       0.575196        15.6519 
  54   0.0000       0.712429        19.3862 
  55   0.0000       0.732910        19.9435 
  56   0.0000       0.732910        19.9435 
  57   0.0000       0.810368        22.0512 
  58   0.0000       0.810368        22.0512 
  59   0.0000       0.863209        23.4891 
  60   0.0000       0.928722        25.2718 
  61   0.0000       0.928722        25.2718 
  62   0.0000       0.958485        26.0817 
  63   0.0000       0.958487        26.0818 
  64   0.0000       1.038652        28.2632 
  65   0.0000       1.038660        28.2634 
  66   0.0000       1.070325        29.1250 
  67   0.0000       1.186694        32.2916 
  68   0.0000       1.186694        32.2916 
  69   0.0000       1.405236        38.2384 
  70   0.0000       3.086131        83.9779 
  71   0.0000       3.116872        84.8144 
  72   0.0000       3.116872        84.8144 
  73   0.0000       3.183740        86.6340 
  74   0.0000       3.201830        87.1262 
  75   0.0000       3.201830        87.1262 
  76   0.0000       3.262318        88.7722 
  77   0.0000       3.538490        96.2872 
  78   0.0000       3.542417        96.3941 
  79   0.0000       3.542417        96.3941 
  80   0.0000       3.558395        96.8289 
  81   0.0000       3.566712        97.0552 
  82   0.0000       3.566718        97.0553 
  83   0.0000       3.578736        97.3824 
  84   0.0000       3.578736        97.3824 
  85   0.0000       3.579291        97.3975 
  86   0.0000       3.579291        97.3975 
  87   0.0000       3.581371        97.4541 
  88   0.0000       3.581379        97.4543 
  89   0.0000       3.603363        98.0525 
  90   0.0000       3.603363        98.0525 
  91   0.0000       3.754989       102.1785 
  92   0.0000       3.808373       103.6311 
  93   0.0000       3.808419       103.6323 
  94   0.0000       3.850727       104.7836 
  95   0.0000       3.850775       104.7849 
  96   0.0000       3.877146       105.5025 
  97   0.0000       3.877146       105.5025 
  98   0.0000       3.943704       107.3136 
  99   0.0000       3.943704       107.3136 
 100   0.0000       4.144516       112.7780 
 101   0.0000       4.226160       114.9997 
 102   0.0000      13.175758       358.5306 
 103   0.0000      13.175825       358.5324 
 104   0.0000      13.175825       358.5324 
 105   0.0000      13.176393       358.5479 
 106   0.0000      13.176393       358.5479 
 107   0.0000      13.176460       358.5497 
 108   0.0000      13.176485       358.5504 
 109   0.0000      13.177152       358.5685 
 110   0.0000      13.177179       358.5693 
 111   0.0000      13.177740       358.5845 
 112   0.0000      13.178539       358.6063 
 113   0.0000      13.178539       358.6063 
 114   0.0000      13.178546       358.6065 
 115   0.0000      13.178546       358.6065 
 116   0.0000      13.180396       358.6568 
 117   0.0000      13.180396       358.6568 
 118   0.0000      13.180602       358.6624 
 119   0.0000      13.180602       358.6624 
 120   0.0000      13.345070       363.1378 
 121   0.0000      13.350704       363.2911 
 122   0.0000      13.350704       363.2911 
 123   0.0000      13.353905       363.3782 
 124   0.0000      13.354156       363.3851 
 125   0.0000      13.356753       363.4557 
 126   0.0000      13.356753       363.4557 
 127   0.0000      13.356917       363.4602 
 128   0.0000      13.356917       363.4602 
 129   0.0000      13.357435       363.4743 
 130   0.0000      13.357684       363.4811 
 131   0.0000      13.381701       364.1346 
 132   0.0000      13.381701       364.1346 
 133   0.0000      13.502426       367.4197 

                    ********************************
                    * MULLIKEN POPULATION ANALYSIS *
                    ********************************

-----------------------
MULLIKEN ATOMIC CHARGES
-----------------------
   0 Cu:   -0.000004
   1 Cu:    0.000004
Sum of atomic charges:   -0.0000000

--------------------------------
MULLIKEN REDUCED ORBITAL CHARGES
--------------------------------
  0 Cus       :     6.977205  s :     6.977205
      pz      :     4.046043  p :    12.059033
      px      :     4.006495
      py      :     4.006495
      dz2     :     1.976661  d :     9.963523
      dxz     :     1.993450
      dyz     :     1.993450
      dx2y2   :     1.999981
      dxy     :     1.999981
      f0      :     0.000095  f :     0.000242
      f+1     :     0.000055
      f-1     :     0.000055
      f+2     :     0.000019
      f-2     :     0.000019
      f+3     :     0.000000
      f-3     :     0.000000
      g0      :     0.000000  g :     0.000001
      g+1     :     0.000000
      g-1     :     0.000000
      g+2     :     0.000000
      g-2     :     0.000000
      g+3     :     0.000000
      g-3     :     0.000000
      g+4     :     0.000000
      g-4     :     0.000000
  1 Cus       :     6.977198  s :     6.977198
      pz      :     4.046042  p :    12.059032
      px      :     4.006495
      py      :     4.006495
      dz2     :     1.976661  d :     9.963523
      dxz     :     1.993450
      dyz     :     1.993450
      dx2y2   :     1.999981
      dxy     :     1.999981
      f0      :     0.000095  f :     0.000242
      f+1     :     0.000055
      f-1     :     0.000055
      f+2     :     0.000019
      f-2     :     0.000019
      f+3     :     0.000000
      f-3     :     0.000000
      g0      :     0.000000  g :     0.000001
      g+1     :     0.000000
      g-1     :     0.000000
      g+2     :     0.000000
      g-2     :     0.000000
      g+3     :     0.000000
      g-3     :     0.000000
      g+4     :     0.000000
      g-4     :     0.000000


                     *******************************
                     * LOEWDIN POPULATION ANALYSIS *
                     *******************************

----------------------
LOEWDIN ATOMIC CHARGES
----------------------
   0 Cu:   -0.000000
   1 Cu:    0.000000

-------------------------------
LOEWDIN REDUCED ORBITAL CHARGES
-------------------------------
  0 Cus       :     6.842112  s :     6.842112
      pz      :     4.137344  p :    12.155981
      px      :     4.009318
      py      :     4.009318
      dz2     :     2.020334  d :    10.001399
      dxz     :     1.990555
      dyz     :     1.990555
      dx2y2   :     1.999977
      dxy     :     1.999977
      f0      :     0.000209  f :     0.000507
      f+1     :     0.000126
      f-1     :     0.000126
      f+2     :     0.000023
      f-2     :     0.000023
      f+3     :     0.000000
      f-3     :     0.000000
      g0      :     0.000001  g :     0.000002
      g+1     :     0.000000
      g-1     :     0.000000
      g+2     :     0.000000
      g-2     :     0.000000
      g+3     :     0.000000
      g-3     :     0.000000
      g+4     :     0.000000
      g-4     :     0.000000
  1 Cus       :     6.842112  s :     6.842112
      pz      :     4.137344  p :    12.155981
      px      :     4.009318
      py      :     4.009318
      dz2     :     2.020334  d :    10.001399
      dxz     :     1.990555
      dyz     :     1.990555
      dx2y2   :     1.999977
      dxy     :     1.999977
      f0      :     0.000209  f :     0.000507
      f+1     :     0.000126
      f-1     :     0.000126
      f+2     :     0.000023
      f-2     :     0.000023
      f+3     :     0.000000
      f-3     :     0.000000
      g0      :     0.000001  g :     0.000002
      g+1     :     0.000000
      g-1     :     0.000000
      g+2     :     0.000000
      g-2     :     0.000000
      g+3     :     0.000000
      g-3     :     0.000000
      g+4     :     0.000000
      g-4     :     0.000000


                      *****************************
                      * MAYER POPULATION ANALYSIS *
                      *****************************

  NA   - Mulliken gross atomic population
  ZA   - Total nuclear charge
  QA   - Mulliken gross atomic charge
  VA   - Mayer's total valence
  BVA  - Mayer's bonded valence
  FA   - Mayer's free valence

  ATOM       NA         ZA         QA         VA         BVA        FA
  0 Cu    29.0000    29.0000    -0.0000     1.0570     1.0570    -0.0000
  1 Cu    29.0000    29.0000     0.0000     1.0570     1.0570    -0.0000

  Mayer bond orders larger than 0.100000
B(  0-Cu,  1-Cu) :   1.0570 

-------
TIMINGS
-------

Total SCF time: 0 days 0 hours 1 min 50 sec 

Total time                  ....     110.154 sec
Sum of individual times     ....     107.265 sec  ( 97.4%)

Fock matrix formation       ....     100.176 sec  ( 90.9%)
  XC integration            ....      97.347 sec  ( 97.2% of F)
    Basis function eval.    ....       0.020 sec  (  0.0% of XC)
    Density eval.           ....       0.028 sec  (  0.0% of XC)
    XC-Functional eval.     ....       0.019 sec  (  0.0% of XC)
    XC-Potential eval.      ....       0.058 sec  (  0.1% of XC)
Diagonalization             ....       1.204 sec  (  1.1%)
Density matrix formation    ....       0.005 sec  (  0.0%)
Population analysis         ....       0.321 sec  (  0.3%)
Initial guess               ....       0.371 sec  (  0.3%)
Orbital Transformation      ....       0.000 sec  (  0.0%)
Orbital Orthonormalization  ....       0.000 sec  (  0.0%)
DIIS solution               ....       0.112 sec  (  0.1%)
Grid generation             ....       5.077 sec  (  4.6%)

-------------------------   --------------------
FINAL SINGLE POINT ENERGY     -3280.859243065649
-------------------------   --------------------


----------------------------------------------------------------------------
                           ORCA NUMERICAL GRADIENT
                              (28-process run)
----------------------------------------------------------------------------

I state                        ... 1
J state                        ... 0
Number of atoms                ... 2
Derivative's order of accuracy ... 2
Central differences            ... used
Number of displacements        ... 12
Numerical increment            ... 5.000e-03 bohr
Translation invariance         ... used

The output will be reduced. Please look at the following files:
SCF program output             ... >Cu2.lastscf
Integral program output        ... >Cu2.lastint
Gradient program output        ... >Cu2.lastgrad


     Note:   There are more processes than displacements to do
     ===>:   Reducing number of processes to   3

             <<<Displacing   2/coordinate 2 (+)>>>
             <<<Displacing   2/coordinate 1 (+)>>>
             <<<Displacing   2/coordinate 3 (+)>>>
             <<<Displacing   2/coordinate 1 (-)>>>
             <<<Displacing   2/coordinate 2 (-)>>>
             <<<Displacing   2/coordinate 3 (-)>>>

------------------------------
CARTESIAN GRADIENT (NUMERICAL)
-------------------------------
   1   Cu  :    0.000002691   -0.000000971    0.010334491
   2   Cu  :   -0.000002691    0.000000971   -0.010334491

Norm of the cartesian gradient     ...    0.014615178
RMS gradient                       ...    0.005966621
MAX gradient                       ...    0.010334491

-------
TIMINGS
-------

Total numerical gradient time      ...       39.729 sec


                            ***************************************
                            *     ORCA property calculations      *
                            ***************************************

                                    ---------------------
                                    Active property flags
                                    ---------------------
   (+) Dipole Moment


------------------------------------------------------------------------------
                       ORCA ELECTRIC PROPERTIES CALCULATION
------------------------------------------------------------------------------

Dipole Moment Calculation                       ... on
Quadrupole Moment Calculation                   ... off
Polarizability Calculation                      ... off
GBWName                                         ... Cu2.gbw
Electron density file                           ... Cu2.scfp
The origin for moment calculation is the CENTER OF MASS  = ( 0.000000,  0.000000  2.097596)

-------------
DIPOLE MOMENT
-------------
                                X             Y             Z
Electronic contribution:     -0.00000      -0.00000      -0.00000
Nuclear contribution   :      0.00000       0.00000       0.00000
                        -----------------------------------------
Total Dipole Moment    :     -0.00000      -0.00000      -0.00000
                        -----------------------------------------
Magnitude (a.u.)       :      0.00000
Magnitude (Debye)      :      0.00000



--------------------
Rotational spectrum 
--------------------
 
Rotational constants in cm-1:     0.000000     0.107648     0.107648 
Rotational constants in MHz :     0.000000  3227.201597  3227.201597 

 Dipole components along the rotational axes: 
x,y,z [a.u.] :    -0.000000    -0.000000    -0.000000 
x,y,z [Debye]:    -0.000001    -0.000000    -0.000000 

 

Timings for individual modules:

Sum of individual times         ...      154.348 sec (=   2.572 min)
GTO integral calculation        ...        3.700 sec (=   0.062 min)   2.4 %
SCF iterations                  ...      110.919 sec (=   1.849 min)  71.9 %
SCF Gradient evaluation         ...       39.729 sec (=   0.662 min)  25.7 %
                             ****ORCA TERMINATED NORMALLY****
TOTAL RUN TIME: 0 days 0 hours 5 minutes 27 seconds 787 msec
