
                                 *****************
                                 * O   R   C   A *
                                 *****************

           --- An Ab Initio, DFT and Semiempirical electronic structure package ---

                  #######################################################
                  #                        -***-                        #
                  #          Department of theory and spectroscopy      #
                  #               Directorship: Frank Neese             #
                  #        Max Planck Institute fuer Kohlenforschung    #
                  #                Kaiser Wilhelm Platz 1               #
                  #                 D-45470 Muelheim/Ruhr               #
                  #                      Germany                        #
                  #                                                     #
                  #                  All rights reserved                #
                  #                        -***-                        #
                  #######################################################


                         Program Version 4.2.0 -  RELEASE  -


 With contributions from (in alphabetic order):
   Daniel Aravena         : Magnetic Suceptibility
   Michael Atanasov       : Ab Initio Ligand Field Theory (pilot matlab implementation)
   Alexander A. Auer      : GIAO ZORA, VPT2
   Ute Becker             : Parallelization
   Giovanni Bistoni       : ED, misc. LED, open-shell LED, HFLED
   Martin Brehm           : Molecular dynamics
   Dmytro Bykov           : SCF Hessian
   Vijay G. Chilkuri      : MRCI spin determinant printing, contributions to CSF-ICE
   Dipayan Datta          : RHF DLPNO-CCSD density
   Achintya Kumar Dutta   : EOM-CC, STEOM-CC
   Dmitry Ganyushin       : Spin-Orbit,Spin-Spin,Magnetic field MRCI
   Miquel Garcia          : C-PCM Hessian, Gaussian charge scheme
   Yang Guo               : DLPNO-NEVPT2, CIM, IAO-localization
   Andreas Hansen         : Spin unrestricted coupled pair/coupled cluster methods
   Benjamin Helmich-Paris : CASSCF linear response (MC-RPA)
   Lee Huntington         : MR-EOM, pCC
   Robert Izsak           : Overlap fitted RIJCOSX, COSX-SCS-MP3, EOM
   Christian Kollmar      : KDIIS, OOCD, Brueckner-CCSD(T), CCSD density
   Simone Kossmann        : Meta GGA functionals, TD-DFT gradient, OOMP2, MP2 Hessian
   Martin Krupicka        : AUTO-CI
   Lucas Lang             : DCDCAS
   Dagmar Lenk            : GEPOL surface, SMD
   Dimitrios Liakos       : Extrapolation schemes; Compound Job, initial MDCI parallelization
   Dimitrios Manganas     : Further ROCIS development; embedding schemes
   Dimitrios Pantazis     : SARC Basis sets
   Taras Petrenko         : DFT Hessian,TD-DFT gradient, ASA, ECA, R-Raman, ABS, FL, XAS/XES, NRVS
   Peter Pinski           : DLPNO-MP2, DLPNO-MP2 Gradient
   Christoph Reimann      : Effective Core Potentials
   Marius Retegan         : Local ZFS, SOC
   Christoph Riplinger    : Optimizer, TS searches, QM/MM, DLPNO-CCSD(T), (RO)-DLPNO pert. Triples
   Tobias Risthaus        : Range-separated hybrids, TD-DFT gradient, RPA, STAB
   Michael Roemelt        : Original ROCIS implementation
   Masaaki Saitow         : Open-shell DLPNO-CCSD energy and density
   Barbara Sandhoefer     : DKH picture change effects
   Avijit Sen             : IP-ROCIS
   Kantharuban Sivalingam : CASSCF convergence, NEVPT2, FIC-MRCI
   Bernardo de Souza      : ESD, SOC TD-DFT
   Georgi Stoychev        : AutoAux, RI-MP2 NMR
   Willem Van den Heuvel  : Paramagnetic NMR
   Boris Wezisla          : Elementary symmetry handling
   Frank Wennmohs         : Technical directorship


 We gratefully acknowledge several colleagues who have allowed us to
 interface, adapt or use parts of their codes:
   Stefan Grimme, W. Hujo, H. Kruse,             : VdW corrections, initial TS optimization,
                  C. Bannwarth                     DFT functionals, gCP, sTDA/sTD-DF
   Ed Valeev, F. Pavosevic, A. Kumar             : LibInt (2-el integral package), F12 methods
   Garnet Chan, S. Sharma, J. Yang, R. Olivares  : DMRG
   Ulf Ekstrom                                   : XCFun DFT Library
   Mihaly Kallay                                 : mrcc  (arbitrary order and MRCC methods)
   Andreas Klamt, Michael Diedenhofen            : otool_cosmo (COSMO solvation model)
   Jiri Pittner, Ondrej Demel                    : Mk-CCSD
   Frank Weinhold                                : gennbo (NPA and NBO analysis)
   Christopher J. Cramer and Donald G. Truhlar   : smd solvation model
   Lars Goerigk                                  : TD-DFT with DH, B97 family of functionals
   V. Asgeirsson, H. Jonsson                     : NEB implementation
   FAccTs GmbH                                   : IRC, NEB, NEB-TS, Multilevel, MM, QM/MM, CI optimization
   S Lehtola, MJT Oliveira, MAL Marques          : LibXC Library


 Your calculation uses the libint2 library for the computation of 2-el integrals
 For citations please refer to: http://libint.valeyev.net

 Your ORCA version has been built with support for libXC version: 4.2.3
 For citations please refer to: https://tddft.org/programs/libxc/

 This ORCA versions uses:
   CBLAS   interface :  Fast vector & matrix operations
   LAPACKE interface :  Fast linear algebra routines
   SCALAPACK package :  Parallel linear algebra routines


Your calculation utilizes the DFT-NL dispersion correction.
Cite in your paper:
Vydrov, O. A.; Van Voorhis, T. J. Chem. Phys. 2010, 133, 244103
Hujo, W.; Grimme, S. J. Chem. Theory Comput. 2011, 7, 3866 
   

----- Orbital basis set information -----
Your calculation utilizes the basis: def2-TZVPPD
   F. Weigend and R. Ahlrichs, Phys. Chem. Chem. Phys. 7, 3297 (2005).
   D. Rappoport and F. Furche, J. Chem. Phys. 133 134105 (2010).

----- AuxJK basis set information -----
Your calculation utilizes the auxiliary basis: def2/JK
   H-Ba, Hf-Rn: F. Weigend, J. Comput. Chem. 29, 167 (2008).

================================================================================
                                        WARNINGS
                       Please study these warnings very carefully!
================================================================================

INFO   : Found keyword 'NumGrad' for Energy calculation
  ===> : Setting RunTyp to EnGrad

WARNING: Numerical Gradient with sloppy Convergence Criteria    
         Your results may be not reliable!                      
         Please choose at least TightSCF!                       

INFO   : the flag for use of LIBINT has been found!

================================================================================
                                       INPUT FILE
================================================================================
NAME = CuH2O+.in
|  1> #
|  2> # CuH2O+ wB97M-V/Def2-TZVPPD
|  3> #
|  4> ! wb97m-v def2-tzvppd def2/jk grid4 nofinalgrid numgrad
|  5> 
|  6> *xyz 1 1
|  7> Cu         0.00000        0.00000       -0.49385
|  8> O          0.00000        0.00000        1.33615
|  9> H         -0.83138        0.00000        1.81615
| 10> H          0.83138        0.00000        1.81615
| 11> *
| 12> 
| 13> %maxcore 5000
| 14> 
| 15> %pal
| 16> nprocs = 28
| 17> end
| 18> 
| 19> 
| 20>                          ****END OF INPUT****
================================================================================

                     *******************************
                     * Energy+Gradient Calculation *
                     *******************************

---------------------------------
CARTESIAN COORDINATES (ANGSTROEM)
---------------------------------
  Cu     0.000000    0.000000   -0.493850
  O      0.000000    0.000000    1.336150
  H     -0.831380    0.000000    1.816150
  H      0.831380    0.000000    1.816150

----------------------------
CARTESIAN COORDINATES (A.U.)
----------------------------
  NO LB      ZA    FRAG     MASS         X           Y           Z
   0 Cu   29.0000    0    63.550    0.000000    0.000000   -0.933241
   1 O     8.0000    0    15.999    0.000000    0.000000    2.524958
   2 H     1.0000    0     1.008   -1.571081    0.000000    3.432026
   3 H     1.0000    0     1.008    1.571081    0.000000    3.432026

--------------------------------
INTERNAL COORDINATES (ANGSTROEM)
--------------------------------
 Cu     0   0   0     0.000000000000     0.00000000     0.00000000
 O      1   0   0     1.830000000000     0.00000000     0.00000000
 H      2   1   0     0.959996200201   120.00013093     0.00000000
 H      2   1   3     0.959996200201   120.00013093   180.00000000

---------------------------
INTERNAL COORDINATES (A.U.)
---------------------------
 Cu     0   0   0     0.000000000000     0.00000000     0.00000000
 O      1   0   0     3.458198825076     0.00000000     0.00000000
 H      2   1   0     1.814129907985   120.00013093     0.00000000
 H      2   1   3     1.814129907985   120.00013093   180.00000000

---------------------
BASIS SET INFORMATION
---------------------
There are 3 groups of distinct atoms

 Group   1 Type Cu  : 17s13p7d2f1g contracted to 6s6p4d2f1g pattern {842111/631111/4111/11/1}
 Group   2 Type O   : 12s7p3d1f contracted to 6s4p3d1f pattern {621111/4111/111/1}
 Group   3 Type H   : 5s3p1d contracted to 3s3p1d pattern {311/111/1}

Atom   0Cu   basis set group =>   1
Atom   1O    basis set group =>   2
Atom   2H    basis set group =>   3
Atom   3H    basis set group =>   3
----------------------------------
AUXILIARY/JK BASIS SET INFORMATION
----------------------------------
There are 3 groups of distinct atoms

 Group   1 Type Cu  : 19s14p12d10f7g3h1i contracted to 16s13p11d9f5g3h1i pattern {4111111111111111/2111111111111/21111111111/211111111/31111/111/1}
 Group   2 Type O   : 14s10p6d2f1g contracted to 10s8p4d2f1g pattern {5111111111/31111111/3111/11/1}
 Group   3 Type H   : 4s2p2d contracted to 2s2p2d pattern {31/11/11}

Atom   0Cu   basis set group =>   1
Atom   1O    basis set group =>   2
Atom   2H    basis set group =>   3
Atom   3H    basis set group =>   3


           ************************************************************
           *        Program running with 28 parallel MPI-processes    *
           *              working on a common directory               *
           ************************************************************
------------------------------------------------------------------------------
                           ORCA GTO INTEGRAL CALCULATION
------------------------------------------------------------------------------

                         BASIS SET STATISTICS AND STARTUP INFO

 # of primitive gaussian shells          ...   81
 # of primitive gaussian functions       ...  207
 # of contracted shells                  ...   47
 # of contracted basis functions         ...  141
 Highest angular momentum                ...    4
 Maximum contraction depth               ...    8
 Integral package used                   ... LIBINT
 Integral threshhold            Thresh   ...  1.000e-10
 Primitive cut-off              TCut     ...  1.000e-11


------------------------------ INTEGRAL EVALUATION ----------------------------


 * One electron integrals 
 Pre-screening matrix                    ... done
 Shell pair data                         ... done (   0.000 sec)



           ************************************************************
           *        Program running with 28 parallel MPI-processes    *
           *              working on a common directory               *
           ************************************************************
-------------------------------------------------------------------------------
                                 ORCA SCF
-------------------------------------------------------------------------------

------------
SCF SETTINGS
------------
Hamiltonian:
 Density Functional     Method          .... DFT(GTOs)
 Exchange Functional    Exchange        .... WB97M-V
 Correlation Functional Correlation     .... WB97M-V
 Gradients option       PostSCFGGA      .... off
 Hybrid DFT is turned on
   Fraction HF Exchange ScalHFX         ....  0.150000
   Scaling of DF-GGA-X  ScalDFX         ....  0.000000
   Scaling of DF-GGA-C  ScalDFC         ....  1.000000
   Scaling of DF-LDA-C  ScalLDAC        ....  1.000000
   Perturbative correction              ....  0.000000
   Density functional embedding theory  .... OFF
 Long-range corrected/Screened/Range-Separated Hybrid DFT is turned on
   Amount of maximum screened exact exchange              ....  0.850000
   Range separation parameter mu (erf(mu*r12)/r12)        ....  0.300000
   NL short-range parameter             ....  6.000000
   NL long-range parameter              ....  0.010000


General Settings:
 Integral files         IntName         .... CuH2O+
 Hartree-Fock type      HFTyp           .... RHF
 Total Charge           Charge          ....    1
 Multiplicity           Mult            ....    1
 Number of Electrons    NEL             ....   38
 Basis Dimension        Dim             ....  141
 Nuclear Repulsion      ENuc            ....     88.7265226050 Eh

Convergence Acceleration:
 DIIS                   CNVDIIS         .... on
   Start iteration      DIISMaxIt       ....    12
   Startup error        DIISStart       ....  0.200000
   # of expansion vecs  DIISMaxEq       ....     5
   Bias factor          DIISBfac        ....   1.050
   Max. coefficient     DIISMaxC        ....  10.000
 Newton-Raphson         CNVNR           .... off
 SOSCF                  CNVSOSCF        .... off
 Level Shifting         CNVShift        .... on
   Level shift para.    LevelShift      ....    0.2500
   Turn off err/grad.   ShiftErr        ....    0.0010
 Zerner damping         CNVZerner       .... off
 Static damping         CNVDamp         .... on
   Fraction old density DampFac         ....    0.7000
   Max. Damping (<1)    DampMax         ....    0.9800
   Min. Damping (>=0)   DampMin         ....    0.0000
   Turn off err/grad.   DampErr         ....    0.1000
 Fernandez-Rico         CNVRico         .... off

SCF Procedure:
 Maximum # iterations   MaxIter         ....   125
 SCF integral mode      SCFMode         .... Direct
   Integral package                     .... LIBINT
 Reset frequency        DirectResetFreq ....    20
 Integral Threshold     Thresh          ....  1.000e-10 Eh
 Primitive CutOff       TCut            ....  1.000e-11 Eh

Convergence Tolerance:
 Convergence Check Mode ConvCheckMode   .... Total+1el-Energy
 Convergence forced     ConvForced      .... 0
 Energy Change          TolE            ....  1.000e-06 Eh
 1-El. energy change                    ....  1.000e-03 Eh
 DIIS Error             TolErr          ....  1.000e-06


Diagonalization of the overlap matrix:
Smallest eigenvalue                        ... 2.356e-04
Time for diagonalization                   ...    0.004 sec
Threshold for overlap eigenvalues          ... 1.000e-08
Number of eigenvalues below threshold      ... 0
Time for construction of square roots      ...    0.052 sec
Total time needed                          ...    0.055 sec

-------------------
DFT GRID GENERATION
-------------------

General Integration Accuracy     IntAcc      ...  4.670
Radial Grid Type                 RadialGrid  ... Gauss-Chebyshev
Angular Grid (max. acc.)         AngularGrid ... Lebedev-302
Angular grid pruning method      GridPruning ... 3 (G Style)
Weight generation scheme         WeightScheme... Becke
Basis function cutoff            BFCut       ...    1.0000e-10
Integration weight cutoff        WCut        ...    1.0000e-14
Grids for H and He will be reduced by one unit

# of grid points (after initial pruning)     ...  22556 (   0.0 sec)
# of grid points (after weights+screening)   ...  22211 (   0.0 sec)
nearest neighbour list constructed           ...    0.0 sec
Grid point re-assignment to atoms done       ...    0.0 sec
Grid point division into batches done        ...    0.1 sec
Reduced shell lists constructed in    0.1 sec

Total number of grid points                  ...    22211
Total number of batches                      ...      349
Average number of points per batch           ...       63
Average number of grid points per atom       ...     5553
Average number of shells per batch           ...     9.36 (19.91%)
Average number of basis functions per batch  ...    23.79 (16.87%)
Average number of large shells per batch     ...     5.43 (58.02%)
Average number of large basis fcns per batch ...    14.86 (62.46%)
Maximum spatial batch extension              ...  22.31, 22.17, 16.15 au
Average spatial batch extension              ...   0.59,  0.59,  0.46 au

Time for grid setup =    1.267 sec

------------------------------
INITIAL GUESS: MODEL POTENTIAL
------------------------------
Loading Hartree-Fock densities                     ... done
Calculating cut-offs                               ... done
Setting up the integral package                    ... done
Initializing the effective Hamiltonian             ... done
Starting the Coulomb interaction                   ... done (   0.0 sec)
Reading the grid                                   ... done
Mapping shells                                     ... done
Starting the XC term evaluation                    ... done (   0.0 sec)
  promolecular density results
     # of electrons  =     38.999051283
     EX              =    -74.239506475
     EC              =     -1.673032445
     EX+EC           =    -75.912538920
Transforming the Hamiltonian                       ... done (   0.0 sec)
Diagonalizing the Hamiltonian                      ... done (   0.0 sec)
Back transforming the eigenvectors                 ... done (   0.0 sec)
Now organizing SCF variables                       ... done
                      ------------------
                      INITIAL GUESS DONE (   1.9 sec)
                      ------------------
--------------
SCF ITERATIONS
--------------
ITER       Energy         Delta-E        Max-DP      RMS-DP      [F,P]     Damp
               ***  Starting incremental Fock matrix formation  ***
  0  -1716.6920016920   0.000000000000 0.03793630  0.00105539  0.2640829 0.7000
  1  -1716.7297047775  -0.037703085449 0.02184444  0.00059689  0.1304313 0.7000
                               ***Turning on DIIS***
  2  -1716.7442386901  -0.014533912584 0.03625172  0.00102590  0.0504598 0.0000
  3  -1716.7708164791  -0.026577788994 0.01627100  0.00031347  0.0666416 0.0000
  4  -1716.7743833940  -0.003566914941 0.00460257  0.00013234  0.0092733 0.0000
  5  -1716.7744157152  -0.000032321198 0.00218056  0.00005846  0.0111095 0.0000
  6  -1716.7745132930  -0.000097577818 0.00270082  0.00003935  0.0009278 0.0000
  7  -1716.7745195465  -0.000006253500 0.00124584  0.00001522  0.0003288 0.0000
                 **** Energy Check signals convergence ****

               *****************************************************
               *                     SUCCESS                       *
               *           SCF CONVERGED AFTER   8 CYCLES          *
               *****************************************************


Setting up the DFT-NL grid :

General Integration Accuracy     IntAcc      ...  4.340
Radial Grid Type                 RadialGrid  ... Gauss-Chebyshev
Angular Grid (max. acc.)         AngularGrid ... Lebedev-110
Angular grid pruning method      GridPruning ... 3 (G Style)
Weight generation scheme         WeightScheme... Becke
Basis function cutoff            BFCut       ...    1.0000e-10
Integration weight cutoff        WCut        ...    1.0000e-14
Grids for H and He will be reduced by one unit

# of grid points (after initial pruning)     ...   6216 (   0.0 sec)
# of grid points (after weights+screening)   ...   6130 (   0.0 sec)
nearest neighbour list constructed           ...    0.0 sec
Grid point re-assignment to atoms done       ...    0.0 sec
Grid point division into batches done        ...    0.0 sec
Reduced shell lists constructed in    0.0 sec

Total number of grid points                  ...     6130
Total number of batches                      ...       97
Average number of points per batch           ...       63
Average number of grid points per atom       ...     1532
Average number of shells per batch           ...    14.40 (30.64%)
Average number of basis functions per batch  ...    37.20 (26.38%)
Average number of large shells per batch     ...    11.40 (79.17%)
Average number of large basis fcns per batch ...    30.60 (82.26%)
Maximum spatial batch extension              ...  27.84, 17.39, 17.39 au
Average spatial batch extension              ...   0.86,  0.67,  0.64 au

Final grid set up in    2.7 sec

-------------------------------------------------------------------------------
                         DFT-NL dispersion correction                          
-------------------------------------------------------------------------------

SC Energy -1716.774520493 
NL    Energy 0.161010824 
SC+NL Energy -1716.613509668 
NL done in    1.4 sec
-------------------------------------------------------------------------------

----------------
TOTAL SCF ENERGY
----------------

Total Energy       :        -1716.61350967 Eh          -46711.42836 eV

Components:
Nuclear Repulsion  :           88.72652261 Eh            2414.37142 eV
Electronic Energy  :        -1805.34003227 Eh          -49125.79979 eV
One Electron Energy:        -2559.45438309 Eh          -69646.29451 eV
Two Electron Energy:          754.11435082 Eh           20520.49473 eV

Virial components:
Potential Energy   :        -3430.90511473 Eh          -93359.67449 eV
Kinetic Energy     :         1714.29160506 Eh           46648.24612 eV
Virial Ratio       :            2.00135444


DFT components:
N(Alpha)           :       19.000006186559 electrons
N(Beta)            :       19.000006186559 electrons
N(Total)           :       38.000012373118 electrons
E(X)               :      -58.076816279879 Eh       
E(C)               :       -1.915106809245 Eh       
NL Energy, E(C,NL) :        0.161010824407 Eh       
E(XC)              :      -59.830912264717 Eh       
DFET-embed. en.    :        0.000000000000 Eh       

---------------
SCF CONVERGENCE
---------------

  Last Energy change         ...   -9.4605e-07  Tolerance :   1.0000e-06
  Last MAX-Density change    ...    5.2788e-04  Tolerance :   1.0000e-05
  Last RMS-Density change    ...    7.6130e-06  Tolerance :   1.0000e-06
  Last DIIS Error            ...    1.5986e-04  Tolerance :   1.0000e-06

             **** THE GBW FILE WAS UPDATED (CuH2O+.gbw) ****
             **** DENSITY FILE WAS UPDATED (CuH2O+.scfp) ****
             **** ENERGY FILE WAS UPDATED (CuH2O+.en.tmp) ****
             **** THE GBW FILE WAS UPDATED (CuH2O+.gbw) ****
             **** DENSITY FILE WAS UPDATED (CuH2O+.scfp) ****
----------------
ORBITAL ENERGIES
----------------

  NO   OCC          E(Eh)            E(eV) 
   0   2.0000    -323.792788     -8810.8497 
   1   2.0000     -39.299945     -1069.4059 
   2   2.0000     -34.402876      -936.1498 
   3   2.0000     -34.401715      -936.1183 
   4   2.0000     -34.399432      -936.0561 
   5   2.0000     -19.618362      -533.8428 
   6   2.0000      -4.695330      -127.7664 
   7   2.0000      -3.161800       -86.0370 
   8   2.0000      -3.160607       -86.0045 
   9   2.0000      -3.158607       -85.9501 
  10   2.0000      -1.420398       -38.6510 
  11   2.0000      -0.945452       -25.7271 
  12   2.0000      -0.826095       -22.4792 
  13   2.0000      -0.724673       -19.7194 
  14   2.0000      -0.631586       -17.1863 
  15   2.0000      -0.630204       -17.1487 
  16   2.0000      -0.630164       -17.1476 
  17   2.0000      -0.618050       -16.8180 
  18   2.0000      -0.606222       -16.4961 
  19   0.0000      -0.229985        -6.2582 
  20   0.0000      -0.139326        -3.7913 
  21   0.0000      -0.136793        -3.7223 
  22   0.0000      -0.126366        -3.4386 
  23   0.0000      -0.069964        -1.9038 
  24   0.0000      -0.056678        -1.5423 
  25   0.0000      -0.036407        -0.9907 
  26   0.0000      -0.034220        -0.9312 
  27   0.0000      -0.017800        -0.4844 
  28   0.0000      -0.000185        -0.0050 
  29   0.0000       0.015007         0.4084 
  30   0.0000       0.015517         0.4223 
  31   0.0000       0.033947         0.9237 
  32   0.0000       0.060130         1.6362 
  33   0.0000       0.068294         1.8584 
  34   0.0000       0.100342         2.7305 
  35   0.0000       0.105126         2.8606 
  36   0.0000       0.106325         2.8932 
  37   0.0000       0.116217         3.1624 
  38   0.0000       0.137709         3.7472 
  39   0.0000       0.170986         4.6528 
  40   0.0000       0.192389         5.2352 
  41   0.0000       0.201023         5.4701 
  42   0.0000       0.207561         5.6480 
  43   0.0000       0.231918         6.3108 
  44   0.0000       0.307195         8.3592 
  45   0.0000       0.342411         9.3175 
  46   0.0000       0.353342         9.6149 
  47   0.0000       0.385902        10.5009 
  48   0.0000       0.398132        10.8337 
  49   0.0000       0.524916        14.2837 
  50   0.0000       0.534491        14.5442 
  51   0.0000       0.539499        14.6805 
  52   0.0000       0.572294        15.5729 
  53   0.0000       0.584370        15.9015 
  54   0.0000       0.629045        17.1172 
  55   0.0000       0.746345        20.3091 
  56   0.0000       0.764875        20.8133 
  57   0.0000       0.820664        22.3314 
  58   0.0000       0.825375        22.4596 
  59   0.0000       0.848449        23.0875 
  60   0.0000       0.880851        23.9692 
  61   0.0000       0.890188        24.2233 
  62   0.0000       0.892384        24.2830 
  63   0.0000       0.947137        25.7729 
  64   0.0000       0.970789        26.4165 
  65   0.0000       1.067823        29.0569 
  66   0.0000       1.211578        32.9687 
  67   0.0000       1.279443        34.8154 
  68   0.0000       1.286196        34.9992 
  69   0.0000       1.656991        45.0890 
  70   0.0000       1.728263        47.0284 
  71   0.0000       1.797633        48.9161 
  72   0.0000       1.932337        52.5816 
  73   0.0000       2.076222        56.4969 
  74   0.0000       2.484179        67.5980 
  75   0.0000       2.535543        68.9956 
  76   0.0000       2.634629        71.6919 
  77   0.0000       2.660502        72.3959 
  78   0.0000       2.885429        78.5165 
  79   0.0000       2.936619        79.9095 
  80   0.0000       3.068970        83.5109 
  81   0.0000       3.093213        84.1706 
  82   0.0000       3.097028        84.2744 
  83   0.0000       3.121284        84.9344 
  84   0.0000       3.156331        85.8881 
  85   0.0000       3.215197        87.4900 
  86   0.0000       3.226400        87.7948 
  87   0.0000       3.296984        89.7155 
  88   0.0000       3.299465        89.7830 
  89   0.0000       3.306449        89.9731 
  90   0.0000       3.325267        90.4851 
  91   0.0000       3.341456        90.9257 
  92   0.0000       3.375708        91.8577 
  93   0.0000       3.381355        92.0114 
  94   0.0000       3.565560        97.0238 
  95   0.0000       3.578212        97.3681 
  96   0.0000       3.581220        97.4499 
  97   0.0000       3.613752        98.3352 
  98   0.0000       3.678249       100.0902 
  99   0.0000       3.695301       100.5543 
 100   0.0000       3.705534       100.8327 
 101   0.0000       3.762997       102.3964 
 102   0.0000       3.805219       103.5453 
 103   0.0000       3.963113       107.8418 
 104   0.0000       3.990749       108.5938 
 105   0.0000       4.008658       109.0811 
 106   0.0000       4.088714       111.2596 
 107   0.0000       4.090695       111.3135 
 108   0.0000       4.514463       122.8448 
 109   0.0000       4.823177       131.2453 
 110   0.0000       4.855438       132.1232 
 111   0.0000       4.967606       135.1754 
 112   0.0000       5.316241       144.6623 
 113   0.0000       5.696837       155.0188 
 114   0.0000       6.319167       171.9533 
 115   0.0000       6.346355       172.6931 
 116   0.0000       6.458860       175.7545 
 117   0.0000       6.501037       176.9022 
 118   0.0000       6.668717       181.4650 
 119   0.0000       6.739610       183.3941 
 120   0.0000       7.001656       190.5247 
 121   0.0000       7.023493       191.1190 
 122   0.0000       7.275264       197.9700 
 123   0.0000       7.715614       209.9525 
 124   0.0000      12.902982       351.1080 
 125   0.0000      12.903291       351.1164 
 126   0.0000      12.904104       351.1385 
 127   0.0000      12.904192       351.1409 
 128   0.0000      12.905612       351.1796 
 129   0.0000      12.906055       351.1916 
 130   0.0000      12.906092       351.1926 
 131   0.0000      12.906351       351.1997 
 132   0.0000      12.913466       351.3933 
 133   0.0000      13.086101       356.0909 
 134   0.0000      13.086327       356.0971 
 135   0.0000      13.094912       356.3307 
 136   0.0000      13.101269       356.5036 
 137   0.0000      13.124248       357.1289 
 138   0.0000      13.156465       358.0056 
 139   0.0000      13.307408       362.1130 
 140   0.0000      44.168480      1201.8854 

                    ********************************
                    * MULLIKEN POPULATION ANALYSIS *
                    ********************************

-----------------------
MULLIKEN ATOMIC CHARGES
-----------------------
   0 Cu:    0.799645
   1 O :   -0.178176
   2 H :    0.189265
   3 H :    0.189266
Sum of atomic charges:    1.0000000

--------------------------------
MULLIKEN REDUCED ORBITAL CHARGES
--------------------------------
  0 Cus       :     6.217661  s :     6.217661
      pz      :     4.057667  p :    12.067542
      px      :     3.998891
      py      :     4.010984
      dz2     :     1.921339  d :     9.914216
      dxz     :     1.995409
      dyz     :     1.999057
      dx2y2   :     1.999071
      dxy     :     1.999340
      f0      :     0.000566  f :     0.000932
      f+1     :     0.000109
      f-1     :     0.000241
      f+2     :     0.000008
      f-2     :     0.000008
      f+3     :     0.000000
      f-3     :     0.000000
      g0      :     0.000002  g :     0.000003
      g+1     :     0.000000
      g-1     :     0.000001
      g+2     :     0.000000
      g-2     :     0.000000
      g+3     :     0.000000
      g-3     :     0.000000
      g+4     :     0.000000
      g-4     :     0.000000
  1 O s       :     3.529150  s :     3.529150
      pz      :     1.530128  p :     4.643309
      px      :     1.194618
      py      :     1.918563
      dz2     :     0.008654  d :     0.004791
      dxz     :    -0.007006
      dyz     :     0.000513
      dx2y2   :     0.002175
      dxy     :     0.000455
      f0      :     0.000164  f :     0.000926
      f+1     :     0.000070
      f-1     :     0.000109
      f+2     :     0.000235
      f-2     :     0.000008
      f+3     :     0.000211
      f-3     :     0.000128
  2 H s       :     0.677675  s :     0.677675
      pz      :     0.062922  p :     0.122530
      px      :     0.027955
      py      :     0.031653
      dz2     :     0.001390  d :     0.010530
      dxz     :     0.003215
      dyz     :     0.000823
      dx2y2   :     0.002282
      dxy     :     0.002820
  3 H s       :     0.677674  s :     0.677674
      pz      :     0.062922  p :     0.122530
      px      :     0.027956
      py      :     0.031653
      dz2     :     0.001390  d :     0.010530
      dxz     :     0.003215
      dyz     :     0.000823
      dx2y2   :     0.002282
      dxy     :     0.002820


                     *******************************
                     * LOEWDIN POPULATION ANALYSIS *
                     *******************************

----------------------
LOEWDIN ATOMIC CHARGES
----------------------
   0 Cu:    0.768352
   1 O :    0.475409
   2 H :   -0.121880
   3 H :   -0.121880

-------------------------------
LOEWDIN REDUCED ORBITAL CHARGES
-------------------------------
  0 Cus       :     6.079087  s :     6.079087
      pz      :     4.116135  p :    12.156821
      px      :     4.010861
      py      :     4.029825
      dz2     :     1.980912  d :     9.993673
      dxz     :     2.001730
      dyz     :     2.018671
      dx2y2   :     1.996022
      dxy     :     1.996337
      f0      :     0.001382  f :     0.002060
      f+1     :     0.000221
      f-1     :     0.000435
      f+2     :     0.000012
      f-2     :     0.000010
      f+3     :     0.000000
      f-3     :     0.000000
      g0      :     0.000005  g :     0.000007
      g+1     :     0.000001
      g-1     :     0.000001
      g+2     :     0.000000
      g-2     :     0.000000
      g+3     :     0.000000
      g-3     :     0.000000
      g+4     :     0.000000
      g-4     :     0.000000
  1 O s       :     3.092663  s :     3.092663
      pz      :     1.445410  p :     4.286850
      px      :     1.238564
      py      :     1.602876
      dz2     :     0.058298  d :     0.142013
      dxz     :     0.046512
      dyz     :     0.014032
      dx2y2   :     0.019739
      dxy     :     0.003431
      f0      :     0.000704  f :     0.003065
      f+1     :     0.000628
      f-1     :     0.000299
      f+2     :     0.000511
      f-2     :     0.000026
      f+3     :     0.000396
      f-3     :     0.000502
  2 H s       :     0.580299  s :     0.580299
      pz      :     0.151388  p :     0.444088
      px      :     0.162891
      py      :     0.129809
      dz2     :     0.015677  d :     0.097493
      dxz     :     0.027163
      dyz     :     0.009066
      dx2y2   :     0.017685
      dxy     :     0.027902
  3 H s       :     0.580299  s :     0.580299
      pz      :     0.151388  p :     0.444088
      px      :     0.162891
      py      :     0.129809
      dz2     :     0.015677  d :     0.097493
      dxz     :     0.027163
      dyz     :     0.009066
      dx2y2   :     0.017685
      dxy     :     0.027902


                      *****************************
                      * MAYER POPULATION ANALYSIS *
                      *****************************

  NA   - Mulliken gross atomic population
  ZA   - Total nuclear charge
  QA   - Mulliken gross atomic charge
  VA   - Mayer's total valence
  BVA  - Mayer's bonded valence
  FA   - Mayer's free valence

  ATOM       NA         ZA         QA         VA         BVA        FA
  0 Cu    28.2004    29.0000     0.7996     0.4722     0.4722     0.0000
  1 O      8.1782     8.0000    -0.1782     2.5385     2.5385    -0.0000
  2 H      0.8107     1.0000     0.1893     1.1152     1.1152     0.0000
  3 H      0.8107     1.0000     0.1893     1.1152     1.1152    -0.0000

  Mayer bond orders larger than 0.100000
B(  0-Cu,  1-O ) :   0.3981 B(  1-O ,  2-H ) :   1.0702 B(  1-O ,  3-H ) :   1.0702 


-------
TIMINGS
-------

Total SCF time: 0 days 0 hours 1 min 9 sec 

Total time                  ....      69.608 sec
Sum of individual times     ....      67.456 sec  ( 96.9%)

Fock matrix formation       ....      61.666 sec  ( 88.6%)
  XC integration            ....      59.172 sec  ( 96.0% of F)
    Basis function eval.    ....       0.027 sec  (  0.0% of XC)
    Density eval.           ....       0.038 sec  (  0.1% of XC)
    XC-Functional eval.     ....       0.018 sec  (  0.0% of XC)
    XC-Potential eval.      ....       0.079 sec  (  0.1% of XC)
Diagonalization             ....       0.957 sec  (  1.4%)
Density matrix formation    ....       0.004 sec  (  0.0%)
Population analysis         ....       0.148 sec  (  0.2%)
Initial guess               ....       0.676 sec  (  1.0%)
Orbital Transformation      ....       0.000 sec  (  0.0%)
Orbital Orthonormalization  ....       0.000 sec  (  0.0%)
DIIS solution               ....       0.072 sec  (  0.1%)
Grid generation             ....       3.932 sec  (  5.6%)

-------------------------   --------------------
FINAL SINGLE POINT ENERGY     -1716.613509668161
-------------------------   --------------------


----------------------------------------------------------------------------
                           ORCA NUMERICAL GRADIENT
                              (28-process run)
----------------------------------------------------------------------------

I state                        ... 1
J state                        ... 0
Number of atoms                ... 4
Derivative's order of accuracy ... 2
Central differences            ... used
Number of displacements        ... 24
Numerical increment            ... 5.000e-03 bohr
Translation invariance         ... used

The output will be reduced. Please look at the following files:
SCF program output             ... >CuH2O+.lastscf
Integral program output        ... >CuH2O+.lastint
Gradient program output        ... >CuH2O+.lastgrad


     Note:   There are more processes than displacements to do
     ===>:   Reducing number of processes to   9

             <<<Displacing   3/coordinate 3 (+)>>>
             <<<Displacing   4/coordinate 3 (+)>>>
             <<<Displacing   3/coordinate 1 (+)>>>
             <<<Displacing   2/coordinate 2 (+)>>>
             <<<Displacing   4/coordinate 2 (+)>>>
             <<<Displacing   4/coordinate 1 (+)>>>
             <<<Displacing   3/coordinate 2 (+)>>>
             <<<Displacing   2/coordinate 3 (+)>>>
             <<<Displacing   2/coordinate 1 (+)>>>
             <<<Displacing   3/coordinate 1 (-)>>>
             <<<Displacing   2/coordinate 2 (-)>>>
             <<<Displacing   4/coordinate 1 (-)>>>
             <<<Displacing   3/coordinate 2 (-)>>>
             <<<Displacing   3/coordinate 3 (-)>>>
             <<<Displacing   4/coordinate 3 (-)>>>
             <<<Displacing   4/coordinate 2 (-)>>>
             <<<Displacing   2/coordinate 1 (-)>>>
             <<<Displacing   2/coordinate 3 (-)>>>

------------------------------
CARTESIAN GRADIENT (NUMERICAL)
-------------------------------
   1   Cu  :    0.000000918    0.000004064    0.028273510
   2   O   :    0.000000246   -0.000001781    0.002160658
   3   H   :   -0.008308397   -0.000002214   -0.015218411
   4   H   :    0.008307233   -0.000000070   -0.015215758

Norm of the cartesian gradient     ...    0.037486247
RMS gradient                       ...    0.010821347
MAX gradient                       ...    0.028273510

-------
TIMINGS
-------

Total numerical gradient time      ...      128.223 sec


                            ***************************************
                            *     ORCA property calculations      *
                            ***************************************

                                    ---------------------
                                    Active property flags
                                    ---------------------
   (+) Dipole Moment


------------------------------------------------------------------------------
                       ORCA ELECTRIC PROPERTIES CALCULATION
------------------------------------------------------------------------------

Dipole Moment Calculation                       ... on
Quadrupole Moment Calculation                   ... off
Polarizability Calculation                      ... off
GBWName                                         ... CuH2O+.gbw
Electron density file                           ... CuH2O+.scfp
The origin for moment calculation is the CENTER OF MASS  = ( 0.000000,  0.000000 -0.147020)

-------------
DIPOLE MOMENT
-------------
                                X             Y             Z
Electronic contribution:     -0.00000       0.00000      -5.11342
Nuclear contribution   :      0.00000       0.00000       5.73351
                        -----------------------------------------
Total Dipole Moment    :     -0.00000       0.00000       0.62009
                        -----------------------------------------
Magnitude (a.u.)       :      0.62009
Magnitude (Debye)      :      1.57615



--------------------
Rotational spectrum 
--------------------
 
Rotational constants in cm-1:    12.097823     0.335690     0.326627 
Rotational constants in MHz : 362683.610696 10063.729250  9792.020681 

 Dipole components along the rotational axes: 
x,y,z [a.u.] :     0.620094    -0.000000     0.000000 
x,y,z [Debye]:     1.576155    -0.000000     0.000000 

 

Timings for individual modules:

Sum of individual times         ...      201.547 sec (=   3.359 min)
GTO integral calculation        ...        3.083 sec (=   0.051 min)   1.5 %
SCF iterations                  ...       70.241 sec (=   1.171 min)  34.9 %
SCF Gradient evaluation         ...      128.223 sec (=   2.137 min)  63.6 %
                             ****ORCA TERMINATED NORMALLY****
TOTAL RUN TIME: 0 days 0 hours 6 minutes 41 seconds 741 msec
