
                                 *****************
                                 * O   R   C   A *
                                 *****************

           --- An Ab Initio, DFT and Semiempirical electronic structure package ---

                  #######################################################
                  #                        -***-                        #
                  #          Department of theory and spectroscopy      #
                  #               Directorship: Frank Neese             #
                  #        Max Planck Institute fuer Kohlenforschung    #
                  #                Kaiser Wilhelm Platz 1               #
                  #                 D-45470 Muelheim/Ruhr               #
                  #                      Germany                        #
                  #                                                     #
                  #                  All rights reserved                #
                  #                        -***-                        #
                  #######################################################


                         Program Version 4.2.0 -  RELEASE  -


 With contributions from (in alphabetic order):
   Daniel Aravena         : Magnetic Suceptibility
   Michael Atanasov       : Ab Initio Ligand Field Theory (pilot matlab implementation)
   Alexander A. Auer      : GIAO ZORA, VPT2
   Ute Becker             : Parallelization
   Giovanni Bistoni       : ED, misc. LED, open-shell LED, HFLED
   Martin Brehm           : Molecular dynamics
   Dmytro Bykov           : SCF Hessian
   Vijay G. Chilkuri      : MRCI spin determinant printing, contributions to CSF-ICE
   Dipayan Datta          : RHF DLPNO-CCSD density
   Achintya Kumar Dutta   : EOM-CC, STEOM-CC
   Dmitry Ganyushin       : Spin-Orbit,Spin-Spin,Magnetic field MRCI
   Miquel Garcia          : C-PCM Hessian, Gaussian charge scheme
   Yang Guo               : DLPNO-NEVPT2, CIM, IAO-localization
   Andreas Hansen         : Spin unrestricted coupled pair/coupled cluster methods
   Benjamin Helmich-Paris : CASSCF linear response (MC-RPA)
   Lee Huntington         : MR-EOM, pCC
   Robert Izsak           : Overlap fitted RIJCOSX, COSX-SCS-MP3, EOM
   Christian Kollmar      : KDIIS, OOCD, Brueckner-CCSD(T), CCSD density
   Simone Kossmann        : Meta GGA functionals, TD-DFT gradient, OOMP2, MP2 Hessian
   Martin Krupicka        : AUTO-CI
   Lucas Lang             : DCDCAS
   Dagmar Lenk            : GEPOL surface, SMD
   Dimitrios Liakos       : Extrapolation schemes; Compound Job, initial MDCI parallelization
   Dimitrios Manganas     : Further ROCIS development; embedding schemes
   Dimitrios Pantazis     : SARC Basis sets
   Taras Petrenko         : DFT Hessian,TD-DFT gradient, ASA, ECA, R-Raman, ABS, FL, XAS/XES, NRVS
   Peter Pinski           : DLPNO-MP2, DLPNO-MP2 Gradient
   Christoph Reimann      : Effective Core Potentials
   Marius Retegan         : Local ZFS, SOC
   Christoph Riplinger    : Optimizer, TS searches, QM/MM, DLPNO-CCSD(T), (RO)-DLPNO pert. Triples
   Tobias Risthaus        : Range-separated hybrids, TD-DFT gradient, RPA, STAB
   Michael Roemelt        : Original ROCIS implementation
   Masaaki Saitow         : Open-shell DLPNO-CCSD energy and density
   Barbara Sandhoefer     : DKH picture change effects
   Avijit Sen             : IP-ROCIS
   Kantharuban Sivalingam : CASSCF convergence, NEVPT2, FIC-MRCI
   Bernardo de Souza      : ESD, SOC TD-DFT
   Georgi Stoychev        : AutoAux, RI-MP2 NMR
   Willem Van den Heuvel  : Paramagnetic NMR
   Boris Wezisla          : Elementary symmetry handling
   Frank Wennmohs         : Technical directorship


 We gratefully acknowledge several colleagues who have allowed us to
 interface, adapt or use parts of their codes:
   Stefan Grimme, W. Hujo, H. Kruse,             : VdW corrections, initial TS optimization,
                  C. Bannwarth                     DFT functionals, gCP, sTDA/sTD-DF
   Ed Valeev, F. Pavosevic, A. Kumar             : LibInt (2-el integral package), F12 methods
   Garnet Chan, S. Sharma, J. Yang, R. Olivares  : DMRG
   Ulf Ekstrom                                   : XCFun DFT Library
   Mihaly Kallay                                 : mrcc  (arbitrary order and MRCC methods)
   Andreas Klamt, Michael Diedenhofen            : otool_cosmo (COSMO solvation model)
   Jiri Pittner, Ondrej Demel                    : Mk-CCSD
   Frank Weinhold                                : gennbo (NPA and NBO analysis)
   Christopher J. Cramer and Donald G. Truhlar   : smd solvation model
   Lars Goerigk                                  : TD-DFT with DH, B97 family of functionals
   V. Asgeirsson, H. Jonsson                     : NEB implementation
   FAccTs GmbH                                   : IRC, NEB, NEB-TS, Multilevel, MM, QM/MM, CI optimization
   S Lehtola, MJT Oliveira, MAL Marques          : LibXC Library


 Your calculation uses the libint2 library for the computation of 2-el integrals
 For citations please refer to: http://libint.valeyev.net

 Your ORCA version has been built with support for libXC version: 4.2.3
 For citations please refer to: https://tddft.org/programs/libxc/

 This ORCA versions uses:
   CBLAS   interface :  Fast vector & matrix operations
   LAPACKE interface :  Fast linear algebra routines
   SCALAPACK package :  Parallel linear algebra routines


Your calculation utilizes the DFT-NL dispersion correction.
Cite in your paper:
Vydrov, O. A.; Van Voorhis, T. J. Chem. Phys. 2010, 133, 244103
Hujo, W.; Grimme, S. J. Chem. Theory Comput. 2011, 7, 3866 
   

----- Orbital basis set information -----
Your calculation utilizes the basis: def2-TZVPPD
   F. Weigend and R. Ahlrichs, Phys. Chem. Chem. Phys. 7, 3297 (2005).
   D. Rappoport and F. Furche, J. Chem. Phys. 133 134105 (2010).

----- AuxJK basis set information -----
Your calculation utilizes the auxiliary basis: def2/JK
   H-Ba, Hf-Rn: F. Weigend, J. Comput. Chem. 29, 167 (2008).

================================================================================
                                        WARNINGS
                       Please study these warnings very carefully!
================================================================================

INFO   : Found keyword 'NumGrad' for Energy calculation
  ===> : Setting RunTyp to EnGrad

WARNING: Numerical Gradient with sloppy Convergence Criteria    
         Your results may be not reliable!                      
         Please choose at least TightSCF!                       

WARNING: your system is open-shell and RHF/RKS was chosen
  ===> : WILL SWITCH to UHF/UKS


INFO   : the flag for use of LIBINT has been found!

================================================================================
                                       INPUT FILE
================================================================================
NAME = FeH.in
|  1> #
|  2> # FeH wB97M-V/Def2-TZVPPD
|  3> #
|  4> ! wb97m-v def2-tzvppd def2/jk grid4 nofinalgrid numgrad
|  5> 
|  6> *xyz 0 4
|  7> Fe         0.00000        0.00000        0.00000
|  8> H          0.00000        0.00000        1.61000
|  9> *
| 10> 
| 11> %maxcore 5000
| 12> 
| 13> %pal
| 14> nprocs = 28
| 15> end
| 16> 
| 17> 
| 18>                          ****END OF INPUT****
================================================================================

                     *******************************
                     * Energy+Gradient Calculation *
                     *******************************

---------------------------------
CARTESIAN COORDINATES (ANGSTROEM)
---------------------------------
  Fe     0.000000    0.000000    0.000000
  H      0.000000    0.000000    1.610000

----------------------------
CARTESIAN COORDINATES (A.U.)
----------------------------
  NO LB      ZA    FRAG     MASS         X           Y           Z
   0 Fe   26.0000    0    55.850    0.000000    0.000000    0.000000
   1 H     1.0000    0     1.008    0.000000    0.000000    3.042459

--------------------------------
INTERNAL COORDINATES (ANGSTROEM)
--------------------------------
 Fe     0   0   0     0.000000000000     0.00000000     0.00000000
 H      1   0   0     1.610000000000     0.00000000     0.00000000

---------------------------
INTERNAL COORDINATES (A.U.)
---------------------------
 Fe     0   0   0     0.000000000000     0.00000000     0.00000000
 H      1   0   0     3.042459075613     0.00000000     0.00000000

---------------------
BASIS SET INFORMATION
---------------------
There are 2 groups of distinct atoms

 Group   1 Type Fe  : 17s13p7d2f1g contracted to 6s6p4d2f1g pattern {842111/631111/4111/11/1}
 Group   2 Type H   : 5s3p1d contracted to 3s3p1d pattern {311/111/1}

Atom   0Fe   basis set group =>   1
Atom   1H    basis set group =>   2
----------------------------------
AUXILIARY/JK BASIS SET INFORMATION
----------------------------------
There are 2 groups of distinct atoms

 Group   1 Type Fe  : 19s14p12d10f7g3h1i contracted to 16s13p11d9f5g3h1i pattern {4111111111111111/2111111111111/21111111111/211111111/31111/111/1}
 Group   2 Type H   : 4s2p2d contracted to 2s2p2d pattern {31/11/11}

Atom   0Fe   basis set group =>   1
Atom   1H    basis set group =>   2


           ************************************************************
           *        Program running with 28 parallel MPI-processes    *
           *              working on a common directory               *
           ************************************************************
------------------------------------------------------------------------------
                           ORCA GTO INTEGRAL CALCULATION
------------------------------------------------------------------------------

                         BASIS SET STATISTICS AND STARTUP INFO

 # of primitive gaussian shells          ...   49
 # of primitive gaussian functions       ...  133
 # of contracted shells                  ...   26
 # of contracted basis functions         ...   84
 Highest angular momentum                ...    4
 Maximum contraction depth               ...    8
 Integral package used                   ... LIBINT
 Integral threshhold            Thresh   ...  1.000e-10
 Primitive cut-off              TCut     ...  1.000e-11


------------------------------ INTEGRAL EVALUATION ----------------------------


 * One electron integrals 
 Pre-screening matrix                    ... done
 Shell pair data                         ... done (   0.000 sec)



           ************************************************************
           *        Program running with 28 parallel MPI-processes    *
           *              working on a common directory               *
           ************************************************************
-------------------------------------------------------------------------------
                                 ORCA SCF
-------------------------------------------------------------------------------

------------
SCF SETTINGS
------------
Hamiltonian:
 Density Functional     Method          .... DFT(GTOs)
 Exchange Functional    Exchange        .... WB97M-V
 Correlation Functional Correlation     .... WB97M-V
 Gradients option       PostSCFGGA      .... off
 Hybrid DFT is turned on
   Fraction HF Exchange ScalHFX         ....  0.150000
   Scaling of DF-GGA-X  ScalDFX         ....  0.000000
   Scaling of DF-GGA-C  ScalDFC         ....  1.000000
   Scaling of DF-LDA-C  ScalLDAC        ....  1.000000
   Perturbative correction              ....  0.000000
   Density functional embedding theory  .... OFF
 Long-range corrected/Screened/Range-Separated Hybrid DFT is turned on
   Amount of maximum screened exact exchange              ....  0.850000
   Range separation parameter mu (erf(mu*r12)/r12)        ....  0.300000
   NL short-range parameter             ....  6.000000
   NL long-range parameter              ....  0.010000


General Settings:
 Integral files         IntName         .... FeH
 Hartree-Fock type      HFTyp           .... UHF
 Total Charge           Charge          ....    0
 Multiplicity           Mult            ....    4
 Number of Electrons    NEL             ....   27
 Basis Dimension        Dim             ....   84
 Nuclear Repulsion      ENuc            ....      8.5457188918 Eh

Convergence Acceleration:
 DIIS                   CNVDIIS         .... on
   Start iteration      DIISMaxIt       ....    12
   Startup error        DIISStart       ....  0.200000
   # of expansion vecs  DIISMaxEq       ....     5
   Bias factor          DIISBfac        ....   1.050
   Max. coefficient     DIISMaxC        ....  10.000
 Newton-Raphson         CNVNR           .... off
 SOSCF                  CNVSOSCF        .... off
 Level Shifting         CNVShift        .... on
   Level shift para.    LevelShift      ....    0.2500
   Turn off err/grad.   ShiftErr        ....    0.0010
 Zerner damping         CNVZerner       .... off
 Static damping         CNVDamp         .... on
   Fraction old density DampFac         ....    0.7000
   Max. Damping (<1)    DampMax         ....    0.9800
   Min. Damping (>=0)   DampMin         ....    0.0000
   Turn off err/grad.   DampErr         ....    0.1000
 Fernandez-Rico         CNVRico         .... off

SCF Procedure:
 Maximum # iterations   MaxIter         ....   125
 SCF integral mode      SCFMode         .... Direct
   Integral package                     .... LIBINT
 Reset frequency        DirectResetFreq ....    20
 Integral Threshold     Thresh          ....  1.000e-10 Eh
 Primitive CutOff       TCut            ....  1.000e-11 Eh

Convergence Tolerance:
 Convergence Check Mode ConvCheckMode   .... Total+1el-Energy
 Convergence forced     ConvForced      .... 0
 Energy Change          TolE            ....  1.000e-06 Eh
 1-El. energy change                    ....  1.000e-03 Eh
 DIIS Error             TolErr          ....  1.000e-06


Diagonalization of the overlap matrix:
Smallest eigenvalue                        ... 3.098e-03
Time for diagonalization                   ...    0.002 sec
Threshold for overlap eigenvalues          ... 1.000e-08
Number of eigenvalues below threshold      ... 0
Time for construction of square roots      ...    0.015 sec
Total time needed                          ...    0.017 sec

-------------------
DFT GRID GENERATION
-------------------

General Integration Accuracy     IntAcc      ...  4.670
Radial Grid Type                 RadialGrid  ... Gauss-Chebyshev
Angular Grid (max. acc.)         AngularGrid ... Lebedev-302
Angular grid pruning method      GridPruning ... 3 (G Style)
Weight generation scheme         WeightScheme... Becke
Basis function cutoff            BFCut       ...    1.0000e-10
Integration weight cutoff        WCut        ...    1.0000e-14
Grids for H and He will be reduced by one unit

# of grid points (after initial pruning)     ...  13034 (   0.0 sec)
# of grid points (after weights+screening)   ...  12994 (   0.0 sec)
nearest neighbour list constructed           ...    0.0 sec
Grid point re-assignment to atoms done       ...    0.0 sec
Grid point division into batches done        ...    0.1 sec
Reduced shell lists constructed in    0.1 sec

Total number of grid points                  ...    12994
Total number of batches                      ...      204
Average number of points per batch           ...       63
Average number of grid points per atom       ...     6497
Average number of shells per batch           ...     5.22 (20.09%)
Average number of basis functions per batch  ...    13.89 (16.53%)
Average number of large shells per batch     ...     3.33 (63.83%)
Average number of large basis fcns per batch ...     9.78 (70.40%)
Maximum spatial batch extension              ...  31.41, 28.57, 17.22 au
Average spatial batch extension              ...   0.94,  0.82,  0.61 au

Time for grid setup =    0.680 sec

------------------------------
INITIAL GUESS: MODEL POTENTIAL
------------------------------
Loading Hartree-Fock densities                     ... done
Calculating cut-offs                               ... done
Setting up the integral package                    ... done
Initializing the effective Hamiltonian             ... done
Starting the Coulomb interaction                   ... done (   0.0 sec)
Reading the grid                                   ... done
Mapping shells                                     ... done
Starting the XC term evaluation                    ... done (   0.0 sec)
  promolecular density results
     # of electrons  =     26.999505627
     EX              =    -54.360453162
     EC              =     -1.162317155
     EX+EC           =    -55.522770317
Transforming the Hamiltonian                       ... done (   0.0 sec)
Diagonalizing the Hamiltonian                      ... done (   0.0 sec)
Back transforming the eigenvectors                 ... done (   0.0 sec)
Now organizing SCF variables                       ... done
                      ------------------
                      INITIAL GUESS DONE (   1.0 sec)
                      ------------------
--------------
SCF ITERATIONS
--------------
ITER       Energy         Delta-E        Max-DP      RMS-DP      [F,P]     Damp
               ***  Starting incremental Fock matrix formation  ***
  0  -1264.1669442541   0.000000000000 0.02118814  0.00092611  0.2340946 0.7000
  1  -1264.2004868174  -0.033542563301 0.01478223  0.00055090  0.0805395 0.7000
                               ***Turning on DIIS***
  2  -1264.2154904550  -0.015003637546 0.03805278  0.00112952  0.0571477 0.0000
  3  -1264.2549057137  -0.039415258720 0.01639149  0.00042025  0.0324221 0.0000
  4  -1264.2582065274  -0.003300813638 0.00470654  0.00020402  0.0287570 0.0000
  5  -1264.2601606815  -0.001954154108 0.00751947  0.00023604  0.0139102 0.0000
  6  -1264.2616656185  -0.001504937050 0.00504355  0.00016126  0.0084240 0.0000
  7  -1264.2621597679  -0.000494149368 0.00190854  0.00007082  0.0034910 0.0000
  8  -1264.2622382895  -0.000078521636 0.00084212  0.00003195  0.0011846 0.0000
  9  -1264.2622522819  -0.000013992343 0.00087900  0.00002710  0.0004387 0.0000
 10  -1264.2622632405  -0.000010958654 0.00035851  0.00001051  0.0002452 0.0000
 11  -1264.2622674501  -0.000004209622 0.00041337  0.00000792  0.0002589 0.0000
 12  -1264.2622699486  -0.000002498502 0.00037267  0.00000709  0.0001051 0.0000
 13  -1264.2622700850  -0.000000136365 0.00034202  0.00000597  0.0001145 0.0000
                 **** Energy Check signals convergence ****

               *****************************************************
               *                     SUCCESS                       *
               *           SCF CONVERGED AFTER  14 CYCLES          *
               *****************************************************


Setting up the DFT-NL grid :

General Integration Accuracy     IntAcc      ...  4.340
Radial Grid Type                 RadialGrid  ... Gauss-Chebyshev
Angular Grid (max. acc.)         AngularGrid ... Lebedev-110
Angular grid pruning method      GridPruning ... 3 (G Style)
Weight generation scheme         WeightScheme... Becke
Basis function cutoff            BFCut       ...    1.0000e-10
Integration weight cutoff        WCut        ...    1.0000e-14
Grids for H and He will be reduced by one unit

# of grid points (after initial pruning)     ...   3706 (   0.0 sec)
# of grid points (after weights+screening)   ...   3681 (   0.0 sec)
nearest neighbour list constructed           ...    0.0 sec
Grid point re-assignment to atoms done       ...    0.0 sec
Grid point division into batches done        ...    0.0 sec
Reduced shell lists constructed in    0.0 sec

Total number of grid points                  ...     3681
Total number of batches                      ...       58
Average number of points per batch           ...       63
Average number of grid points per atom       ...     1840
Average number of shells per batch           ...     8.50 (32.69%)
Average number of basis functions per batch  ...    22.50 (26.79%)
Average number of large shells per batch     ...     6.75 (79.41%)
Average number of large basis fcns per batch ...    18.75 (83.33%)
Maximum spatial batch extension              ...  37.20, 28.73, 20.01 au
Average spatial batch extension              ...   1.32,  1.34,  0.89 au

Final grid set up in    2.8 sec

-------------------------------------------------------------------------------
                         DFT-NL dispersion correction                          
-------------------------------------------------------------------------------

SC Energy -1264.262269914 
NL    Energy 0.114365241 
SC+NL Energy -1264.147904673 
NL done in    3.7 sec
-------------------------------------------------------------------------------

----------------
TOTAL SCF ENERGY
----------------

Total Energy       :        -1264.14790467 Eh          -34399.21331 eV

Components:
Nuclear Repulsion  :            8.54571889 Eh             232.54083 eV
Electronic Energy  :        -1272.69362356 Eh          -34631.75414 eV
One Electron Energy:        -1765.40244108 Eh          -48039.04268 eV
Two Electron Energy:          492.70881751 Eh           13407.28854 eV

Virial components:
Potential Energy   :        -2526.45931804 Eh          -68748.45315 eV
Kinetic Energy     :         1262.31141337 Eh           34349.23984 eV
Virial Ratio       :            2.00145486


DFT components:
N(Alpha)           :       15.000000188337 electrons
N(Beta)            :       12.000000664518 electrons
N(Total)           :       27.000000852856 electrons
E(X)               :      -42.811166968220 Eh       
E(C)               :       -1.347565333115 Eh       
NL Energy, E(C,NL) :        0.114365241126 Eh       
E(XC)              :      -44.044367060209 Eh       
DFET-embed. en.    :        0.000000000000 Eh       

---------------
SCF CONVERGENCE
---------------

  Last Energy change         ...    1.7081e-07  Tolerance :   1.0000e-06
  Last MAX-Density change    ...    1.4198e-04  Tolerance :   1.0000e-05
  Last RMS-Density change    ...    2.3776e-06  Tolerance :   1.0000e-06
  Last DIIS Error            ...    2.6333e-05  Tolerance :   1.0000e-06

             **** THE GBW FILE WAS UPDATED (FeH.gbw) ****
             **** DENSITY FILE WAS UPDATED (FeH.scfp) ****
             **** ENERGY FILE WAS UPDATED (FeH.en.tmp) ****
----------------------
UHF SPIN CONTAMINATION
----------------------

Warning: in a DFT calculation there is little theoretical justification to 
         calculate <S**2> as in Hartree-Fock theory. We will do it anyways
         but you should keep in mind that the values have only limited relevance

Expectation value of <S**2>     :     3.766920
Ideal value S*(S+1) for S=1.5   :     3.750000
Deviation                       :     0.016920

             **** THE GBW FILE WAS UPDATED (FeH.gbw) ****
             **** DENSITY FILE WAS UPDATED (FeH.scfp) ****
----------------
ORBITAL ENERGIES
----------------
                 SPIN UP ORBITALS
  NO   OCC          E(Eh)            E(eV) 
   0   1.0000    -256.507438     -6979.9222 
   1   1.0000     -30.205416      -821.9312 
   2   1.0000     -25.981831      -707.0016 
   3   1.0000     -25.981831      -707.0016 
   4   1.0000     -25.952596      -706.2061 
   5   1.0000      -3.581971       -97.4704 
   6   1.0000      -2.356161       -64.1144 
   7   1.0000      -2.356161       -64.1144 
   8   1.0000      -2.300694       -62.6051 
   9   1.0000      -0.386556       -10.5187 
  10   1.0000      -0.385852       -10.4996 
  11   1.0000      -0.385851       -10.4995 
  12   1.0000      -0.338902        -9.2220 
  13   1.0000      -0.338902        -9.2220 
  14   1.0000      -0.303173        -8.2498 
  15   0.0000      -0.014953        -0.4069 
  16   0.0000       0.023254         0.6328 
  17   0.0000       0.023254         0.6328 
  18   0.0000       0.093053         2.5321 
  19   0.0000       0.110665         3.0113 
  20   0.0000       0.153404         4.1743 
  21   0.0000       0.153404         4.1743 
  22   0.0000       0.202490         5.5100 
  23   0.0000       0.236690         6.4407 
  24   0.0000       0.236690         6.4407 
  25   0.0000       0.245575         6.6824 
  26   0.0000       0.245580         6.6826 
  27   0.0000       0.336824         9.1655 
  28   0.0000       0.337048         9.1715 
  29   0.0000       0.337048         9.1715 
  30   0.0000       0.409158        11.1338 
  31   0.0000       0.551719        15.0130 
  32   0.0000       0.620506        16.8848 
  33   0.0000       0.620506        16.8848 
  34   0.0000       0.674668        18.3586 
  35   0.0000       0.902640        24.5621 
  36   0.0000       0.902640        24.5621 
  37   0.0000       0.980443        26.6792 
  38   0.0000       0.980450        26.6794 
  39   0.0000       1.105333        30.0776 
  40   0.0000       1.166010        31.7287 
  41   0.0000       1.166010        31.7287 
  42   0.0000       1.312720        35.7209 
  43   0.0000       2.370374        64.5012 
  44   0.0000       2.439550        66.3835 
  45   0.0000       2.439550        66.3835 
  46   0.0000       2.443528        66.4918 
  47   0.0000       2.443528        66.4918 
  48   0.0000       2.460775        66.9611 
  49   0.0000       2.460778        66.9612 
  50   0.0000       2.511783        68.3491 
  51   0.0000       2.511783        68.3491 
  52   0.0000       2.593310        70.5676 
  53   0.0000       2.846326        77.4525 
  54   0.0000       2.971389        80.8556 
  55   0.0000       3.322438        90.4081 
  56   0.0000       3.322530        90.4106 
  57   0.0000       3.497714        95.1776 
  58   0.0000       3.586551        97.5950 
  59   0.0000       3.586559        97.5952 
  60   0.0000       3.612162        98.2919 
  61   0.0000       3.612162        98.2919 
  62   0.0000       3.686779       100.3224 
  63   0.0000       3.686779       100.3224 
  64   0.0000       3.981024       108.3292 
  65   0.0000       3.981024       108.3292 
  66   0.0000       4.070353       110.7599 
  67   0.0000       4.839261       131.6830 
  68   0.0000       8.633986       234.9427 
  69   0.0000       8.634004       234.9432 
  70   0.0000       8.681852       236.2452 
  71   0.0000       8.681852       236.2452 
  72   0.0000       8.693721       236.5682 
  73   0.0000       8.693723       236.5682 
  74   0.0000       8.717725       237.2213 
  75   0.0000       8.717725       237.2213 
  76   0.0000       8.758955       238.3433 
  77   0.0000       9.330453       253.8945 
  78   0.0000       9.330453       253.8945 
  79   0.0000       9.387409       255.4444 
  80   0.0000       9.387426       255.4449 
  81   0.0000       9.481822       258.0135 
  82   0.0000       9.481822       258.0135 
  83   0.0000       9.768327       265.8097 

                 SPIN DOWN ORBITALS
  NO   OCC          E(Eh)            E(eV) 
   0   1.0000    -256.506037     -6979.8841 
   1   1.0000     -30.144139      -820.2637 
   2   1.0000     -25.926305      -705.4906 
   3   1.0000     -25.926305      -705.4906 
   4   1.0000     -25.918643      -705.2821 
   5   1.0000      -3.452945       -93.9594 
   6   1.0000      -2.196771       -59.7772 
   7   1.0000      -2.195703       -59.7481 
   8   1.0000      -2.195703       -59.7481 
   9   1.0000      -0.355007        -9.6602 
  10   1.0000      -0.272613        -7.4182 
  11   1.0000      -0.272613        -7.4182 
  12   0.0000      -0.036981        -1.0063 
  13   0.0000       0.001881         0.0512 
  14   0.0000       0.001881         0.0512 
  15   0.0000       0.046098         1.2544 
  16   0.0000       0.081160         2.2085 
  17   0.0000       0.081231         2.2104 
  18   0.0000       0.102551         2.7905 
  19   0.0000       0.128340         3.4923 
  20   0.0000       0.139662         3.8004 
  21   0.0000       0.139662         3.8004 
  22   0.0000       0.224507         6.1091 
  23   0.0000       0.238271         6.4837 
  24   0.0000       0.238271         6.4837 
  25   0.0000       0.243427         6.6240 
  26   0.0000       0.243430         6.6241 
  27   0.0000       0.328123         8.9287 
  28   0.0000       0.328123         8.9287 
  29   0.0000       0.335500         9.1294 
  30   0.0000       0.412447        11.2232 
  31   0.0000       0.553492        15.0613 
  32   0.0000       0.618388        16.8272 
  33   0.0000       0.618388        16.8272 
  34   0.0000       0.681803        18.5528 
  35   0.0000       0.910075        24.7644 
  36   0.0000       0.910075        24.7644 
  37   0.0000       1.005864        27.3709 
  38   0.0000       1.006074        27.3767 
  39   0.0000       1.127000        30.6672 
  40   0.0000       1.172008        31.8920 
  41   0.0000       1.172008        31.8920 
  42   0.0000       1.313053        35.7300 
  43   0.0000       2.397492        65.2391 
  44   0.0000       2.475214        67.3540 
  45   0.0000       2.475214        67.3540 
  46   0.0000       2.505040        68.1656 
  47   0.0000       2.505059        68.1661 
  48   0.0000       2.532721        68.9188 
  49   0.0000       2.532721        68.9188 
  50   0.0000       2.592145        70.5359 
  51   0.0000       2.592145        70.5359 
  52   0.0000       2.605461        70.8982 
  53   0.0000       2.876099        78.2626 
  54   0.0000       3.050280        83.0023 
  55   0.0000       3.301809        89.8468 
  56   0.0000       3.301900        89.8493 
  57   0.0000       3.590105        97.6917 
  58   0.0000       3.614532        98.3564 
  59   0.0000       3.614532        98.3564 
  60   0.0000       3.705372       100.8283 
  61   0.0000       3.705392       100.8289 
  62   0.0000       3.727261       101.4239 
  63   0.0000       3.727261       101.4239 
  64   0.0000       3.954918       107.6188 
  65   0.0000       3.954918       107.6188 
  66   0.0000       4.067671       110.6870 
  67   0.0000       4.854244       132.0907 
  68   0.0000       8.765483       238.5209 
  69   0.0000       8.765483       238.5209 
  70   0.0000       8.780344       238.9253 
  71   0.0000       8.780345       238.9253 
  72   0.0000       8.782064       238.9721 
  73   0.0000       8.782080       238.9725 
  74   0.0000       8.813468       239.8267 
  75   0.0000       8.813468       239.8267 
  76   0.0000       8.872977       241.4460 
  77   0.0000       9.487757       258.1750 
  78   0.0000       9.487777       258.1755 
  79   0.0000       9.505894       258.6685 
  80   0.0000       9.505894       258.6685 
  81   0.0000       9.607492       261.4332 
  82   0.0000       9.607492       261.4332 
  83   0.0000       9.910125       269.6682 

                    ********************************
                    * MULLIKEN POPULATION ANALYSIS *
                    ********************************

--------------------------------------------
MULLIKEN ATOMIC CHARGES AND SPIN POPULATIONS
--------------------------------------------
   0 Fe:    0.051563    3.094627
   1 H :   -0.051563   -0.094627
Sum of atomic charges         :    0.0000000
Sum of atomic spin populations:    3.0000000

-----------------------------------------------------
MULLIKEN REDUCED ORBITAL CHARGES AND SPIN POPULATIONS
-----------------------------------------------------
CHARGE
  0 Fes       :     6.884347  s :     6.884347
      pz      :     4.122920  p :    12.130381
      px      :     4.003731
      py      :     4.003731
      dz2     :     0.944726  d :     6.932841
      dxz     :     1.994101
      dyz     :     1.994101
      dx2y2   :     0.999956
      dxy     :     0.999956
      f0      :     0.000553  f :     0.000816
      f+1     :     0.000102
      f-1     :     0.000102
      f+2     :     0.000029
      f-2     :     0.000029
      f+3     :     0.000000
      f-3     :     0.000000
      g0      :     0.000012  g :     0.000052
      g+1     :     0.000008
      g-1     :     0.000008
      g+2     :     0.000012
      g-2     :     0.000012
      g+3     :     0.000000
      g-3     :     0.000000
      g+4     :     0.000000
      g-4     :     0.000000
  1 H s       :     1.059117  s :     1.059117
      pz      :    -0.012261  p :    -0.008762
      px      :     0.001749
      py      :     0.001749
      dz2     :     0.000586  d :     0.001208
      dxz     :     0.000308
      dyz     :     0.000308
      dx2y2   :     0.000003
      dxy     :     0.000003

SPIN
  0 Fes       :     0.253657  s :     0.253657
      pz      :    -0.003722  p :    -0.008502
      px      :    -0.002390
      py      :    -0.002390
      dz2     :     0.843184  d :     2.849406
      dxz     :     0.003155
      dyz     :     0.003155
      dx2y2   :     0.999956
      dxy     :     0.999956
      f0      :    -0.000051  f :     0.000033
      f+1     :     0.000012
      f-1     :     0.000012
      f+2     :     0.000029
      f-2     :     0.000029
      f+3     :    -0.000000
      f-3     :    -0.000000
      g0      :    -0.000002  g :     0.000033
      g+1     :     0.000005
      g-1     :     0.000005
      g+2     :     0.000012
      g-2     :     0.000012
      g+3     :    -0.000000
      g-3     :    -0.000000
      g+4     :    -0.000000
      g-4     :    -0.000000
  1 H s       :    -0.089468  s :    -0.089468
      pz      :    -0.003913  p :    -0.005452
      px      :    -0.000770
      py      :    -0.000770
      dz2     :     0.000315  d :     0.000293
      dxz     :    -0.000013
      dyz     :    -0.000013
      dx2y2   :     0.000003
      dxy     :     0.000003


                     *******************************
                     * LOEWDIN POPULATION ANALYSIS *
                     *******************************

-------------------------------------------
LOEWDIN ATOMIC CHARGES AND SPIN POPULATIONS
-------------------------------------------
   0 Fe:    0.230060    3.006181
   1 H :   -0.230060   -0.006181

----------------------------------------------------
LOEWDIN REDUCED ORBITAL CHARGES AND SPIN POPULATIONS
----------------------------------------------------
CHARGE
  0 Fes       :     6.709188  s :     6.709188
      pz      :     4.141112  p :    12.150588
      px      :     4.004738
      py      :     4.004738
      dz2     :     0.969738  d :     6.908396
      dxz     :     1.969458
      dyz     :     1.969458
      dx2y2   :     0.999871
      dxy     :     0.999871
      f0      :     0.001223  f :     0.001699
      f+1     :     0.000208
      f-1     :     0.000208
      f+2     :     0.000030
      f-2     :     0.000030
      f+3     :     0.000000
      f-3     :     0.000000
      g0      :     0.000020  g :     0.000069
      g+1     :     0.000012
      g-1     :     0.000012
      g+2     :     0.000012
      g-2     :     0.000012
      g+3     :     0.000000
      g-3     :     0.000000
      g+4     :     0.000000
      g-4     :     0.000000
  1 H s       :     1.094667  s :     1.094667
      pz      :     0.079828  p :     0.124293
      px      :     0.022233
      py      :     0.022233
      dz2     :     0.004224  d :     0.011099
      dxz     :     0.003351
      dyz     :     0.003351
      dx2y2   :     0.000087
      dxy     :     0.000087

SPIN
  0 Fes       :     0.187062  s :     0.187062
      pz      :    -0.017413  p :    -0.024050
      px      :    -0.003318
      py      :    -0.003318
      dz2     :     0.831179  d :     2.843241
      dxz     :     0.006160
      dyz     :     0.006160
      dx2y2   :     0.999871
      dxy     :     0.999871
      f0      :    -0.000170  f :    -0.000108
      f+1     :     0.000001
      f-1     :     0.000001
      f+2     :     0.000030
      f-2     :     0.000030
      f+3     :    -0.000000
      f-3     :    -0.000000
      g0      :    -0.000002  g :     0.000035
      g+1     :     0.000007
      g-1     :     0.000007
      g+2     :     0.000012
      g-2     :     0.000012
      g+3     :    -0.000000
      g-3     :    -0.000000
      g+4     :    -0.000000
      g-4     :    -0.000000
  1 H s       :    -0.024392  s :    -0.024392
      pz      :     0.022163  p :     0.016696
      px      :    -0.002733
      py      :    -0.002733
      dz2     :     0.001575  d :     0.001515
      dxz     :    -0.000117
      dyz     :    -0.000117
      dx2y2   :     0.000087
      dxy     :     0.000087


                      *****************************
                      * MAYER POPULATION ANALYSIS *
                      *****************************

  NA   - Mulliken gross atomic population
  ZA   - Total nuclear charge
  QA   - Mulliken gross atomic charge
  VA   - Mayer's total valence
  BVA  - Mayer's bonded valence
  FA   - Mayer's free valence

  ATOM       NA         ZA         QA         VA         BVA        FA
  0 Fe    25.9484    26.0000     0.0516     3.9978     0.9628     3.0350
  1 H      1.0516     1.0000    -0.0516     0.9707     0.9628     0.0080

  Mayer bond orders larger than 0.100000
B(  0-Fe,  1-H ) :   0.9628 

-------
TIMINGS
-------

Total SCF time: 0 days 0 hours 2 min 6 sec 

Total time                  ....     126.406 sec
Sum of individual times     ....     121.459 sec  ( 96.1%)

Fock matrix formation       ....     115.370 sec  ( 91.3%)
  XC integration            ....     114.461 sec  ( 99.2% of F)
    Basis function eval.    ....       0.017 sec  (  0.0% of XC)
    Density eval.           ....       0.053 sec  (  0.0% of XC)
    XC-Functional eval.     ....       0.037 sec  (  0.0% of XC)
    XC-Potential eval.      ....       0.085 sec  (  0.1% of XC)
Diagonalization             ....       1.544 sec  (  1.2%)
Density matrix formation    ....       0.006 sec  (  0.0%)
Population analysis         ....       0.599 sec  (  0.5%)
Initial guess               ....       0.315 sec  (  0.2%)
Orbital Transformation      ....       0.000 sec  (  0.0%)
Orbital Orthonormalization  ....       0.000 sec  (  0.0%)
DIIS solution               ....       0.144 sec  (  0.1%)
Grid generation             ....       3.481 sec  (  2.8%)

-------------------------   --------------------
FINAL SINGLE POINT ENERGY     -1264.147904673066
-------------------------   --------------------


----------------------------------------------------------------------------
                           ORCA NUMERICAL GRADIENT
                              (28-process run)
----------------------------------------------------------------------------

I state                        ... 1
J state                        ... 0
Number of atoms                ... 2
Derivative's order of accuracy ... 2
Central differences            ... used
Number of displacements        ... 12
Numerical increment            ... 5.000e-03 bohr
Translation invariance         ... used

The output will be reduced. Please look at the following files:
SCF program output             ... >FeH.lastscf
Integral program output        ... >FeH.lastint
Gradient program output        ... >FeH.lastgrad


     Note:   There are more processes than displacements to do
     ===>:   Reducing number of processes to   3

             <<<Displacing   2/coordinate 1 (+)>>>
             <<<Displacing   2/coordinate 2 (+)>>>
             <<<Displacing   2/coordinate 3 (+)>>>
             <<<Displacing   2/coordinate 2 (-)>>>
             <<<Displacing   2/coordinate 3 (-)>>>
             <<<Displacing   2/coordinate 1 (-)>>>

------------------------------
CARTESIAN GRADIENT (NUMERICAL)
-------------------------------
   1   Fe  :   -0.000000826    0.000000614   -0.008233161
   2   H   :    0.000000826   -0.000000614    0.008233161

Norm of the cartesian gradient     ...    0.011643447
RMS gradient                       ...    0.004753418
MAX gradient                       ...    0.008233161

-------
TIMINGS
-------

Total numerical gradient time      ...       28.255 sec


                            ***************************************
                            *     ORCA property calculations      *
                            ***************************************

                                    ---------------------
                                    Active property flags
                                    ---------------------
   (+) Dipole Moment


------------------------------------------------------------------------------
                       ORCA ELECTRIC PROPERTIES CALCULATION
------------------------------------------------------------------------------

Dipole Moment Calculation                       ... on
Quadrupole Moment Calculation                   ... off
Polarizability Calculation                      ... off
GBWName                                         ... FeH.gbw
Electron density file                           ... FeH.scfp
The origin for moment calculation is the CENTER OF MASS  = ( 0.000000,  0.000000  0.053938)

-------------
DIPOLE MOMENT
-------------
                                X             Y             Z
Electronic contribution:     -0.00000      -0.00000      -2.87020
Nuclear contribution   :      0.00000       0.00000       1.58614
                        -----------------------------------------
Total Dipole Moment    :     -0.00000      -0.00000      -1.28407
                        -----------------------------------------
Magnitude (a.u.)       :      1.28407
Magnitude (Debye)      :      3.26384



--------------------
Rotational spectrum 
--------------------
 
Rotational constants in cm-1:     0.000000     6.568301     6.568301 
Rotational constants in MHz :     0.000000 196912.697447 196912.697447 

 Dipole components along the rotational axes: 
x,y,z [a.u.] :    -1.284066    -0.000000    -0.000000 
x,y,z [Debye]:    -3.263837    -0.000000    -0.000000 

 

Timings for individual modules:

Sum of individual times         ...      158.375 sec (=   2.640 min)
GTO integral calculation        ...        2.861 sec (=   0.048 min)   1.8 %
SCF iterations                  ...      127.260 sec (=   2.121 min)  80.4 %
SCF Gradient evaluation         ...       28.255 sec (=   0.471 min)  17.8 %
                             ****ORCA TERMINATED NORMALLY****
TOTAL RUN TIME: 0 days 0 hours 6 minutes 6 seconds 385 msec
