
                                 *****************
                                 * O   R   C   A *
                                 *****************

           --- An Ab Initio, DFT and Semiempirical electronic structure package ---

                  #######################################################
                  #                        -***-                        #
                  #          Department of theory and spectroscopy      #
                  #               Directorship: Frank Neese             #
                  #        Max Planck Institute fuer Kohlenforschung    #
                  #                Kaiser Wilhelm Platz 1               #
                  #                 D-45470 Muelheim/Ruhr               #
                  #                      Germany                        #
                  #                                                     #
                  #                  All rights reserved                #
                  #                        -***-                        #
                  #######################################################


                         Program Version 4.2.0 -  RELEASE  -


 With contributions from (in alphabetic order):
   Daniel Aravena         : Magnetic Suceptibility
   Michael Atanasov       : Ab Initio Ligand Field Theory (pilot matlab implementation)
   Alexander A. Auer      : GIAO ZORA, VPT2
   Ute Becker             : Parallelization
   Giovanni Bistoni       : ED, misc. LED, open-shell LED, HFLED
   Martin Brehm           : Molecular dynamics
   Dmytro Bykov           : SCF Hessian
   Vijay G. Chilkuri      : MRCI spin determinant printing, contributions to CSF-ICE
   Dipayan Datta          : RHF DLPNO-CCSD density
   Achintya Kumar Dutta   : EOM-CC, STEOM-CC
   Dmitry Ganyushin       : Spin-Orbit,Spin-Spin,Magnetic field MRCI
   Miquel Garcia          : C-PCM Hessian, Gaussian charge scheme
   Yang Guo               : DLPNO-NEVPT2, CIM, IAO-localization
   Andreas Hansen         : Spin unrestricted coupled pair/coupled cluster methods
   Benjamin Helmich-Paris : CASSCF linear response (MC-RPA)
   Lee Huntington         : MR-EOM, pCC
   Robert Izsak           : Overlap fitted RIJCOSX, COSX-SCS-MP3, EOM
   Christian Kollmar      : KDIIS, OOCD, Brueckner-CCSD(T), CCSD density
   Simone Kossmann        : Meta GGA functionals, TD-DFT gradient, OOMP2, MP2 Hessian
   Martin Krupicka        : AUTO-CI
   Lucas Lang             : DCDCAS
   Dagmar Lenk            : GEPOL surface, SMD
   Dimitrios Liakos       : Extrapolation schemes; Compound Job, initial MDCI parallelization
   Dimitrios Manganas     : Further ROCIS development; embedding schemes
   Dimitrios Pantazis     : SARC Basis sets
   Taras Petrenko         : DFT Hessian,TD-DFT gradient, ASA, ECA, R-Raman, ABS, FL, XAS/XES, NRVS
   Peter Pinski           : DLPNO-MP2, DLPNO-MP2 Gradient
   Christoph Reimann      : Effective Core Potentials
   Marius Retegan         : Local ZFS, SOC
   Christoph Riplinger    : Optimizer, TS searches, QM/MM, DLPNO-CCSD(T), (RO)-DLPNO pert. Triples
   Tobias Risthaus        : Range-separated hybrids, TD-DFT gradient, RPA, STAB
   Michael Roemelt        : Original ROCIS implementation
   Masaaki Saitow         : Open-shell DLPNO-CCSD energy and density
   Barbara Sandhoefer     : DKH picture change effects
   Avijit Sen             : IP-ROCIS
   Kantharuban Sivalingam : CASSCF convergence, NEVPT2, FIC-MRCI
   Bernardo de Souza      : ESD, SOC TD-DFT
   Georgi Stoychev        : AutoAux, RI-MP2 NMR
   Willem Van den Heuvel  : Paramagnetic NMR
   Boris Wezisla          : Elementary symmetry handling
   Frank Wennmohs         : Technical directorship


 We gratefully acknowledge several colleagues who have allowed us to
 interface, adapt or use parts of their codes:
   Stefan Grimme, W. Hujo, H. Kruse,             : VdW corrections, initial TS optimization,
                  C. Bannwarth                     DFT functionals, gCP, sTDA/sTD-DF
   Ed Valeev, F. Pavosevic, A. Kumar             : LibInt (2-el integral package), F12 methods
   Garnet Chan, S. Sharma, J. Yang, R. Olivares  : DMRG
   Ulf Ekstrom                                   : XCFun DFT Library
   Mihaly Kallay                                 : mrcc  (arbitrary order and MRCC methods)
   Andreas Klamt, Michael Diedenhofen            : otool_cosmo (COSMO solvation model)
   Jiri Pittner, Ondrej Demel                    : Mk-CCSD
   Frank Weinhold                                : gennbo (NPA and NBO analysis)
   Christopher J. Cramer and Donald G. Truhlar   : smd solvation model
   Lars Goerigk                                  : TD-DFT with DH, B97 family of functionals
   V. Asgeirsson, H. Jonsson                     : NEB implementation
   FAccTs GmbH                                   : IRC, NEB, NEB-TS, Multilevel, MM, QM/MM, CI optimization
   S Lehtola, MJT Oliveira, MAL Marques          : LibXC Library


 Your calculation uses the libint2 library for the computation of 2-el integrals
 For citations please refer to: http://libint.valeyev.net

 Your ORCA version has been built with support for libXC version: 4.2.3
 For citations please refer to: https://tddft.org/programs/libxc/

 This ORCA versions uses:
   CBLAS   interface :  Fast vector & matrix operations
   LAPACKE interface :  Fast linear algebra routines
   SCALAPACK package :  Parallel linear algebra routines


Your calculation utilizes the DFT-NL dispersion correction.
Cite in your paper:
Vydrov, O. A.; Van Voorhis, T. J. Chem. Phys. 2010, 133, 244103
Hujo, W.; Grimme, S. J. Chem. Theory Comput. 2011, 7, 3866 
   

----- Orbital basis set information -----
Your calculation utilizes the basis: def2-TZVPPD
   F. Weigend and R. Ahlrichs, Phys. Chem. Chem. Phys. 7, 3297 (2005).
   D. Rappoport and F. Furche, J. Chem. Phys. 133 134105 (2010).

----- AuxJK basis set information -----
Your calculation utilizes the auxiliary basis: def2/JK
   H-Ba, Hf-Rn: F. Weigend, J. Comput. Chem. 29, 167 (2008).

================================================================================
                                        WARNINGS
                       Please study these warnings very carefully!
================================================================================

INFO   : Found keyword 'NumGrad' for Energy calculation
  ===> : Setting RunTyp to EnGrad

WARNING: Numerical Gradient with sloppy Convergence Criteria    
         Your results may be not reliable!                      
         Please choose at least TightSCF!                       

WARNING: your system is open-shell and RHF/RKS was chosen
  ===> : WILL SWITCH to UHF/UKS


INFO   : the flag for use of LIBINT has been found!

================================================================================
                                       INPUT FILE
================================================================================
NAME = LiO.in
|  1> #
|  2> # LiO wB97M-V/Def2-TZVPPD
|  3> #
|  4> ! wb97m-v def2-tzvppd def2/jk grid4 nofinalgrid numgrad
|  5> 
|  6> *xyz 0 2
|  7> Li         0.00000        0.00000        0.00000
|  8> O          0.00000        0.00000        1.68900
|  9> *
| 10> 
| 11> %maxcore 5000
| 12> 
| 13> %pal
| 14> nprocs = 28
| 15> end
| 16> 
| 17> 
| 18>                          ****END OF INPUT****
================================================================================

                     *******************************
                     * Energy+Gradient Calculation *
                     *******************************

---------------------------------
CARTESIAN COORDINATES (ANGSTROEM)
---------------------------------
  Li     0.000000    0.000000    0.000000
  O      0.000000    0.000000    1.689000

----------------------------
CARTESIAN COORDINATES (A.U.)
----------------------------
  NO LB      ZA    FRAG     MASS         X           Y           Z
   0 Li    3.0000    0     6.941    0.000000    0.000000    0.000000
   1 O     8.0000    0    15.999    0.000000    0.000000    3.191747

--------------------------------
INTERNAL COORDINATES (ANGSTROEM)
--------------------------------
 Li     0   0   0     0.000000000000     0.00000000     0.00000000
 O      1   0   0     1.689000000000     0.00000000     0.00000000

---------------------------
INTERNAL COORDINATES (A.U.)
---------------------------
 Li     0   0   0     0.000000000000     0.00000000     0.00000000
 O      1   0   0     3.191747440193     0.00000000     0.00000000

---------------------
BASIS SET INFORMATION
---------------------
There are 2 groups of distinct atoms

 Group   1 Type Li  : 11s4p1d contracted to 5s4p1d pattern {62111/1111/1}
 Group   2 Type O   : 12s7p3d1f contracted to 6s4p3d1f pattern {621111/4111/111/1}

Atom   0Li   basis set group =>   1
Atom   1O    basis set group =>   2
----------------------------------
AUXILIARY/JK BASIS SET INFORMATION
----------------------------------
There are 2 groups of distinct atoms

 Group   1 Type Li  : 10s7p4d2f contracted to 7s5p3d2f pattern {4111111/31111/211/11}
 Group   2 Type O   : 14s10p6d2f1g contracted to 10s8p4d2f1g pattern {5111111111/31111111/3111/11/1}

Atom   0Li   basis set group =>   1
Atom   1O    basis set group =>   2


           ************************************************************
           *        Program running with 28 parallel MPI-processes    *
           *              working on a common directory               *
           ************************************************************
------------------------------------------------------------------------------
                           ORCA GTO INTEGRAL CALCULATION
------------------------------------------------------------------------------

                         BASIS SET STATISTICS AND STARTUP INFO

 # of primitive gaussian shells          ...   39
 # of primitive gaussian functions       ...   83
 # of contracted shells                  ...   24
 # of contracted basis functions         ...   62
 Highest angular momentum                ...    3
 Maximum contraction depth               ...    6
 Integral package used                   ... LIBINT
 Integral threshhold            Thresh   ...  1.000e-10
 Primitive cut-off              TCut     ...  1.000e-11


------------------------------ INTEGRAL EVALUATION ----------------------------


 * One electron integrals 
 Pre-screening matrix                    ... done
 Shell pair data                         ... done (   0.000 sec)



           ************************************************************
           *        Program running with 28 parallel MPI-processes    *
           *              working on a common directory               *
           ************************************************************
-------------------------------------------------------------------------------
                                 ORCA SCF
-------------------------------------------------------------------------------

------------
SCF SETTINGS
------------
Hamiltonian:
 Density Functional     Method          .... DFT(GTOs)
 Exchange Functional    Exchange        .... WB97M-V
 Correlation Functional Correlation     .... WB97M-V
 Gradients option       PostSCFGGA      .... off
 Hybrid DFT is turned on
   Fraction HF Exchange ScalHFX         ....  0.150000
   Scaling of DF-GGA-X  ScalDFX         ....  0.000000
   Scaling of DF-GGA-C  ScalDFC         ....  1.000000
   Scaling of DF-LDA-C  ScalLDAC        ....  1.000000
   Perturbative correction              ....  0.000000
   Density functional embedding theory  .... OFF
 Long-range corrected/Screened/Range-Separated Hybrid DFT is turned on
   Amount of maximum screened exact exchange              ....  0.850000
   Range separation parameter mu (erf(mu*r12)/r12)        ....  0.300000
   NL short-range parameter             ....  6.000000
   NL long-range parameter              ....  0.010000


General Settings:
 Integral files         IntName         .... LiO
 Hartree-Fock type      HFTyp           .... UHF
 Total Charge           Charge          ....    0
 Multiplicity           Mult            ....    2
 Number of Electrons    NEL             ....   11
 Basis Dimension        Dim             ....   62
 Nuclear Repulsion      ENuc            ....      7.5193919474 Eh

Convergence Acceleration:
 DIIS                   CNVDIIS         .... on
   Start iteration      DIISMaxIt       ....    12
   Startup error        DIISStart       ....  0.200000
   # of expansion vecs  DIISMaxEq       ....     5
   Bias factor          DIISBfac        ....   1.050
   Max. coefficient     DIISMaxC        ....  10.000
 Newton-Raphson         CNVNR           .... off
 SOSCF                  CNVSOSCF        .... off
 Level Shifting         CNVShift        .... on
   Level shift para.    LevelShift      ....    0.2500
   Turn off err/grad.   ShiftErr        ....    0.0010
 Zerner damping         CNVZerner       .... off
 Static damping         CNVDamp         .... on
   Fraction old density DampFac         ....    0.7000
   Max. Damping (<1)    DampMax         ....    0.9800
   Min. Damping (>=0)   DampMin         ....    0.0000
   Turn off err/grad.   DampErr         ....    0.1000
 Fernandez-Rico         CNVRico         .... off

SCF Procedure:
 Maximum # iterations   MaxIter         ....   125
 SCF integral mode      SCFMode         .... Direct
   Integral package                     .... LIBINT
 Reset frequency        DirectResetFreq ....    20
 Integral Threshold     Thresh          ....  1.000e-10 Eh
 Primitive CutOff       TCut            ....  1.000e-11 Eh

Convergence Tolerance:
 Convergence Check Mode ConvCheckMode   .... Total+1el-Energy
 Convergence forced     ConvForced      .... 0
 Energy Change          TolE            ....  1.000e-06 Eh
 1-El. energy change                    ....  1.000e-03 Eh
 DIIS Error             TolErr          ....  1.000e-06


Diagonalization of the overlap matrix:
Smallest eigenvalue                        ... 2.607e-03
Time for diagonalization                   ...    0.001 sec
Threshold for overlap eigenvalues          ... 1.000e-08
Number of eigenvalues below threshold      ... 0
Time for construction of square roots      ...    0.039 sec
Total time needed                          ...    0.040 sec

-------------------
DFT GRID GENERATION
-------------------

General Integration Accuracy     IntAcc      ...  4.670
Radial Grid Type                 RadialGrid  ... Gauss-Chebyshev
Angular Grid (max. acc.)         AngularGrid ... Lebedev-302
Angular grid pruning method      GridPruning ... 3 (G Style)
Weight generation scheme         WeightScheme... Becke
Basis function cutoff            BFCut       ...    1.0000e-10
Integration weight cutoff        WCut        ...    1.0000e-14
Grids for H and He will be reduced by one unit

# of grid points (after initial pruning)     ...  12088 (   0.0 sec)
# of grid points (after weights+screening)   ...  12047 (   0.0 sec)
nearest neighbour list constructed           ...    0.0 sec
Grid point re-assignment to atoms done       ...    0.0 sec
Grid point division into batches done        ...    0.1 sec
Reduced shell lists constructed in    0.1 sec

Total number of grid points                  ...    12047
Total number of batches                      ...      190
Average number of points per batch           ...       63
Average number of grid points per atom       ...     6024
Average number of shells per batch           ...     3.75 (15.62%)
Average number of basis functions per batch  ...     8.50 (13.71%)
Average number of large shells per batch     ...     2.12 (56.67%)
Average number of large basis fcns per batch ...     4.88 (57.35%)
Maximum spatial batch extension              ...  43.84, 39.87, 23.89 au
Average spatial batch extension              ...   1.29,  1.08,  0.81 au

Time for grid setup =    1.090 sec

------------------------------
INITIAL GUESS: MODEL POTENTIAL
------------------------------
Loading Hartree-Fock densities                     ... done
Calculating cut-offs                               ... done
Setting up the integral package                    ... done
Initializing the effective Hamiltonian             ... done
Starting the Coulomb interaction                   ... done (   0.0 sec)
Reading the grid                                   ... done
Mapping shells                                     ... done
Starting the XC term evaluation                    ... done (   0.0 sec)
  promolecular density results
     # of electrons  =     11.000010517
     EX              =     -9.795347744
     EC              =     -0.308393507
     EX+EC           =    -10.103741251
Transforming the Hamiltonian                       ... done (   0.0 sec)
Diagonalizing the Hamiltonian                      ... done (   0.0 sec)
Back transforming the eigenvectors                 ... done (   0.0 sec)
Now organizing SCF variables                       ... done
                      ------------------
                      INITIAL GUESS DONE (   1.7 sec)
                      ------------------
--------------
SCF ITERATIONS
--------------
ITER       Energy         Delta-E        Max-DP      RMS-DP      [F,P]     Damp
               ***  Starting incremental Fock matrix formation  ***
  0    -82.6442518350   0.000000000000 0.02294273  0.00104791  0.3111461 0.7000
  1    -82.6837853175  -0.039533482438 0.01468856  0.00073088  0.1621241 0.7000
                               ***Turning on DIIS***
  2    -82.7014806891  -0.017695371638 0.02891135  0.00128082  0.0635106 0.0000
  3    -82.7295264416  -0.028045752505 0.01224910  0.00048479  0.0871734 0.0000
  4    -82.7356993534  -0.006172911812 0.00246723  0.00009979  0.0086512 0.0000
  5    -82.7359349359  -0.000235582461 0.00119362  0.00005450  0.0025496 0.0000
  6    -82.7360232051  -0.000088269170 0.00079642  0.00003825  0.0010605 0.0000
  7    -82.7360803202  -0.000057115124 0.00053963  0.00002600  0.0005390 0.0000
  8    -82.7361281299  -0.000047809726 0.00021552  0.00000641  0.0001323 0.0000
  9    -82.7361355544  -0.000007424529 0.00005996  0.00000202  0.0000437 0.0000
                 **** Energy Check signals convergence ****

               *****************************************************
               *                     SUCCESS                       *
               *           SCF CONVERGED AFTER  10 CYCLES          *
               *****************************************************


Setting up the DFT-NL grid :

General Integration Accuracy     IntAcc      ...  4.340
Radial Grid Type                 RadialGrid  ... Gauss-Chebyshev
Angular Grid (max. acc.)         AngularGrid ... Lebedev-110
Angular grid pruning method      GridPruning ... 3 (G Style)
Weight generation scheme         WeightScheme... Becke
Basis function cutoff            BFCut       ...    1.0000e-10
Integration weight cutoff        WCut        ...    1.0000e-14
Grids for H and He will be reduced by one unit

# of grid points (after initial pruning)     ...   3356 (   0.0 sec)
# of grid points (after weights+screening)   ...   3331 (   0.0 sec)
nearest neighbour list constructed           ...    0.0 sec
Grid point re-assignment to atoms done       ...    0.0 sec
Grid point division into batches done        ...    0.0 sec
Reduced shell lists constructed in    0.0 sec

Total number of grid points                  ...     3331
Total number of batches                      ...       53
Average number of points per batch           ...       62
Average number of grid points per atom       ...     1666
Average number of shells per batch           ...     6.67 (27.78%)
Average number of basis functions per batch  ...    17.33 (27.96%)
Average number of large shells per batch     ...     6.00 (90.00%)
Average number of large basis fcns per batch ...    16.67 (96.15%)
Maximum spatial batch extension              ...  28.10, 51.31, 27.23 au
Average spatial batch extension              ...   1.06,  1.94,  1.03 au

Final grid set up in    2.6 sec

-------------------------------------------------------------------------------
                         DFT-NL dispersion correction                          
-------------------------------------------------------------------------------

SC Energy -82.736135907 
NL    Energy 0.047614401 
SC+NL Energy -82.688521506 
NL done in    1.3 sec
-------------------------------------------------------------------------------

----------------
TOTAL SCF ENERGY
----------------

Total Energy       :          -82.68852151 Eh           -2250.06906 eV

Components:
Nuclear Repulsion  :            7.51939195 Eh             204.61306 eV
Electronic Energy  :          -90.20791345 Eh           -2454.68212 eV
One Electron Energy:         -129.45616381 Eh           -3522.68131 eV
Two Electron Energy:           39.24825035 Eh            1067.99919 eV

Virial components:
Potential Energy   :         -165.17871267 Eh           -4494.74128 eV
Kinetic Energy     :           82.49019117 Eh            2244.67222 eV
Virial Ratio       :            2.00240429


DFT components:
N(Alpha)           :        6.000007598065 electrons
N(Beta)            :        5.000006174385 electrons
N(Total)           :       11.000013772450 electrons
E(X)               :       -7.152827206567 Eh       
E(C)               :       -0.344280298964 Eh       
NL Energy, E(C,NL) :        0.047614400893 Eh       
E(XC)              :       -7.449493104638 Eh       
DFET-embed. en.    :        0.000000000000 Eh       

---------------
SCF CONVERGENCE
---------------

  Last Energy change         ...   -3.5291e-07  Tolerance :   1.0000e-06
  Last MAX-Density change    ...    1.1290e-05  Tolerance :   1.0000e-05
  Last RMS-Density change    ...    5.0312e-07  Tolerance :   1.0000e-06
  Last DIIS Error            ...    1.1117e-05  Tolerance :   1.0000e-06

             **** THE GBW FILE WAS UPDATED (LiO.gbw) ****
             **** DENSITY FILE WAS UPDATED (LiO.scfp) ****
             **** ENERGY FILE WAS UPDATED (LiO.en.tmp) ****
----------------------
UHF SPIN CONTAMINATION
----------------------

Warning: in a DFT calculation there is little theoretical justification to 
         calculate <S**2> as in Hartree-Fock theory. We will do it anyways
         but you should keep in mind that the values have only limited relevance

Expectation value of <S**2>     :     0.754346
Ideal value S*(S+1) for S=0.5   :     0.750000
Deviation                       :     0.004346

             **** THE GBW FILE WAS UPDATED (LiO.gbw) ****
             **** DENSITY FILE WAS UPDATED (LiO.scfp) ****
----------------
ORBITAL ENERGIES
----------------
                 SPIN UP ORBITALS
  NO   OCC          E(Eh)            E(eV) 
   0   1.0000     -19.264205      -524.2057 
   1   1.0000      -2.123349       -57.7793 
   2   1.0000      -0.955342       -25.9962 
   3   1.0000      -0.395265       -10.7557 
   4   1.0000      -0.357552        -9.7295 
   5   1.0000      -0.340593        -9.2680 
   6   0.0000      -0.031024        -0.8442 
   7   0.0000       0.017021         0.4632 
   8   0.0000       0.018246         0.4965 
   9   0.0000       0.037930         1.0321 
  10   0.0000       0.076104         2.0709 
  11   0.0000       0.107424         2.9232 
  12   0.0000       0.110025         2.9939 
  13   0.0000       0.154926         4.2158 
  14   0.0000       0.160650         4.3715 
  15   0.0000       0.168111         4.5745 
  16   0.0000       0.203969         5.5503 
  17   0.0000       0.299793         8.1578 
  18   0.0000       0.337225         9.1764 
  19   0.0000       0.337273         9.1777 
  20   0.0000       0.388447        10.5702 
  21   0.0000       0.410475        11.1696 
  22   0.0000       0.411660        11.2018 
  23   0.0000       0.468136        12.7386 
  24   0.0000       0.473789        12.8924 
  25   0.0000       0.529379        14.4051 
  26   0.0000       0.529740        14.4150 
  27   0.0000       0.616049        16.7635 
  28   0.0000       0.695370        18.9220 
  29   0.0000       0.710100        19.3228 
  30   0.0000       0.758350        20.6358 
  31   0.0000       0.894182        24.3319 
  32   0.0000       0.904165        24.6036 
  33   0.0000       0.931440        25.3458 
  34   0.0000       0.999621        27.2011 
  35   0.0000       1.683838        45.8196 
  36   0.0000       1.859349        50.5954 
  37   0.0000       1.860082        50.6154 
  38   0.0000       1.869086        50.8604 
  39   0.0000       1.906098        51.8676 
  40   0.0000       2.191702        59.6392 
  41   0.0000       2.836313        77.1800 
  42   0.0000       2.895543        78.7917 
  43   0.0000       2.945382        80.1479 
  44   0.0000       3.199398        87.0601 
  45   0.0000       5.269026       143.3775 
  46   0.0000       5.282072       143.7325 
  47   0.0000       5.292147       144.0066 
  48   0.0000       5.301367       144.2575 
  49   0.0000       5.301507       144.2614 
  50   0.0000       5.336762       145.2207 
  51   0.0000       5.406284       147.1125 
  52   0.0000       6.054359       164.7475 
  53   0.0000       6.057109       164.8223 
  54   0.0000       6.306133       171.5986 
  55   0.0000       6.499532       176.8612 
  56   0.0000       6.502526       176.9427 
  57   0.0000       6.516928       177.3346 
  58   0.0000       6.574175       178.8924 
  59   0.0000       6.729017       183.1058 
  60   0.0000      14.757146       401.5624 
  61   0.0000      43.750765      1190.5188 

                 SPIN DOWN ORBITALS
  NO   OCC          E(Eh)            E(eV) 
   0   1.0000     -19.241512      -523.5882 
   1   1.0000      -2.123682       -57.7883 
   2   1.0000      -0.880867       -23.9696 
   3   1.0000      -0.326974        -8.8974 
   4   1.0000      -0.308935        -8.4065 
   5   0.0000      -0.027069        -0.7366 
   6   0.0000      -0.011264        -0.3065 
   7   0.0000       0.025947         0.7061 
   8   0.0000       0.035566         0.9678 
   9   0.0000       0.043755         1.1906 
  10   0.0000       0.086041         2.3413 
  11   0.0000       0.105469         2.8700 
  12   0.0000       0.118392         3.2216 
  13   0.0000       0.158808         4.3214 
  14   0.0000       0.161766         4.4019 
  15   0.0000       0.175854         4.7852 
  16   0.0000       0.203443         5.5360 
  17   0.0000       0.292705         7.9649 
  18   0.0000       0.331830         9.0295 
  19   0.0000       0.337752         9.1907 
  20   0.0000       0.384174        10.4539 
  21   0.0000       0.400446        10.8967 
  22   0.0000       0.417479        11.3602 
  23   0.0000       0.468680        12.7534 
  24   0.0000       0.476105        12.9555 
  25   0.0000       0.510386        13.8883 
  26   0.0000       0.524307        14.2671 
  27   0.0000       0.617186        16.7945 
  28   0.0000       0.713160        19.4061 
  29   0.0000       0.717270        19.5179 
  30   0.0000       0.768711        20.9177 
  31   0.0000       0.894489        24.3403 
  32   0.0000       0.907181        24.6857 
  33   0.0000       0.936525        25.4841 
  34   0.0000       1.000479        27.2244 
  35   0.0000       1.689979        45.9867 
  36   0.0000       1.911213        52.0068 
  37   0.0000       1.917577        52.1799 
  38   0.0000       1.918428        52.2031 
  39   0.0000       1.920528        52.2602 
  40   0.0000       2.211748        60.1847 
  41   0.0000       2.925129        79.5968 
  42   0.0000       2.947114        80.1951 
  43   0.0000       2.975729        80.9737 
  44   0.0000       3.251288        88.4720 
  45   0.0000       5.350310       145.5893 
  46   0.0000       5.353769       145.6835 
  47   0.0000       5.357164       145.7759 
  48   0.0000       5.360100       145.8557 
  49   0.0000       5.369394       146.1086 
  50   0.0000       5.378201       146.3483 
  51   0.0000       5.437034       147.9492 
  52   0.0000       6.055686       164.7836 
  53   0.0000       6.057403       164.8303 
  54   0.0000       6.313339       171.7947 
  55   0.0000       6.605300       179.7393 
  56   0.0000       6.607143       179.7895 
  57   0.0000       6.618482       180.0981 
  58   0.0000       6.621229       180.1728 
  59   0.0000       6.780394       184.5039 
  60   0.0000      14.756208       401.5368 
  61   0.0000      43.769303      1191.0233 

                    ********************************
                    * MULLIKEN POPULATION ANALYSIS *
                    ********************************

--------------------------------------------
MULLIKEN ATOMIC CHARGES AND SPIN POPULATIONS
--------------------------------------------
   0 Li:    0.837420   -0.001737
   1 O :   -0.837420    1.001737
Sum of atomic charges         :    0.0000000
Sum of atomic spin populations:    1.0000000

-----------------------------------------------------
MULLIKEN REDUCED ORBITAL CHARGES AND SPIN POPULATIONS
-----------------------------------------------------
CHARGE
  0 Lis       :     2.013505  s :     2.013505
      pz      :     0.075983  p :     0.140768
      px      :     0.048736
      py      :     0.016050
      dz2     :     0.004678  d :     0.008306
      dxz     :     0.002721
      dyz     :     0.000869
      dx2y2   :     0.000026
      dxy     :     0.000012
  1 O s       :     3.966665  s :     3.966665
      pz      :     1.936188  p :     4.858376
      px      :     1.852382
      py      :     1.069806
      dz2     :     0.002654  d :     0.012269
      dxz     :     0.006576
      dyz     :     0.002795
      dx2y2   :     0.000164
      dxy     :     0.000079
      f0      :     0.000026  f :     0.000110
      f+1     :     0.000009
      f-1     :     0.000002
      f+2     :     0.000012
      f-2     :     0.000006
      f+3     :     0.000027
      f-3     :     0.000027

SPIN
  0 Lis       :    -0.004307  s :    -0.004307
      pz      :    -0.003139  p :     0.002139
      px      :    -0.005443
      py      :     0.010721
      dz2     :    -0.000355  d :     0.000432
      dxz     :     0.000198
      dyz     :     0.000621
      dx2y2   :    -0.000022
      dxy     :    -0.000011
  1 O s       :     0.001530  s :     0.001530
      pz      :     0.006160  p :     0.998466
      px      :     0.095321
      py      :     0.896985
      dz2     :    -0.000013  d :     0.001680
      dxz     :    -0.000547
      dyz     :     0.002095
      dx2y2   :     0.000098
      dxy     :     0.000047
      f0      :    -0.000006  f :     0.000061
      f+1     :    -0.000006
      f-1     :     0.000001
      f+2     :     0.000012
      f-2     :     0.000006
      f+3     :     0.000027
      f-3     :     0.000027


                     *******************************
                     * LOEWDIN POPULATION ANALYSIS *
                     *******************************

-------------------------------------------
LOEWDIN ATOMIC CHARGES AND SPIN POPULATIONS
-------------------------------------------
   0 Li:    0.509388    0.031637
   1 O :   -0.509388    0.968363

----------------------------------------------------
LOEWDIN REDUCED ORBITAL CHARGES AND SPIN POPULATIONS
----------------------------------------------------
CHARGE
  0 Lis       :     2.010513  s :     2.010513
      pz      :     0.179320  p :     0.296355
      px      :     0.084057
      py      :     0.032977
      dz2     :     0.090489  d :     0.183744
      dxz     :     0.061059
      dyz     :     0.032161
      dx2y2   :     0.000024
      dxy     :     0.000012
  1 O s       :     3.787939  s :     3.787939
      pz      :     1.893786  p :     4.679672
      px      :     1.762554
      py      :     1.023333
      dz2     :     0.037589  d :     0.041629
      dxz     :     0.002749
      dyz     :     0.001046
      dx2y2   :     0.000165
      dxy     :     0.000080
      f0      :     0.000065  f :     0.000148
      f+1     :     0.000004
      f-1     :     0.000006
      f+2     :     0.000012
      f-2     :     0.000006
      f+3     :     0.000027
      f-3     :     0.000027

SPIN
  0 Lis       :    -0.005939  s :    -0.005939
      pz      :    -0.005213  p :     0.011711
      px      :    -0.007089
      py      :     0.024013
      dz2     :    -0.001096  d :     0.025865
      dxz     :     0.000761
      dyz     :     0.026230
      dx2y2   :    -0.000020
      dxy     :    -0.000010
  1 O s       :     0.005622  s :     0.005622
      pz      :     0.006559  p :     0.962145
      px      :     0.096157
      py      :     0.859428
      dz2     :    -0.000077  d :     0.000508
      dxz     :    -0.000303
      dyz     :     0.000745
      dx2y2   :     0.000096
      dxy     :     0.000046
      f0      :     0.000013  f :     0.000088
      f+1     :    -0.000003
      f-1     :     0.000005
      f+2     :     0.000012
      f-2     :     0.000006
      f+3     :     0.000027
      f-3     :     0.000027


                      *****************************
                      * MAYER POPULATION ANALYSIS *
                      *****************************

  NA   - Mulliken gross atomic population
  ZA   - Total nuclear charge
  QA   - Mulliken gross atomic charge
  VA   - Mayer's total valence
  BVA  - Mayer's bonded valence
  FA   - Mayer's free valence

  ATOM       NA         ZA         QA         VA         BVA        FA
  0 Li     2.1626     3.0000     0.8374     0.3189     0.3186     0.0003
  1 O      8.8374     8.0000    -0.8374     1.2993     0.3186     0.9807

  Mayer bond orders larger than 0.100000
B(  0-Li,  1-O ) :   0.3186 

-------
TIMINGS
-------

Total SCF time: 0 days 0 hours 1 min 27 sec 

Total time                  ....      87.458 sec
Sum of individual times     ....      85.247 sec  ( 97.5%)

Fock matrix formation       ....      79.050 sec  ( 90.4%)
  XC integration            ....      77.363 sec  ( 97.9% of F)
    Basis function eval.    ....       0.007 sec  (  0.0% of XC)
    Density eval.           ....       0.015 sec  (  0.0% of XC)
    XC-Functional eval.     ....       0.016 sec  (  0.0% of XC)
    XC-Potential eval.      ....       0.023 sec  (  0.0% of XC)
Diagonalization             ....       1.147 sec  (  1.3%)
Density matrix formation    ....       0.004 sec  (  0.0%)
Population analysis         ....       0.662 sec  (  0.8%)
Initial guess               ....       0.652 sec  (  0.7%)
Orbital Transformation      ....       0.000 sec  (  0.0%)
Orbital Orthonormalization  ....       0.000 sec  (  0.0%)
DIIS solution               ....       0.072 sec  (  0.1%)
Grid generation             ....       3.659 sec  (  4.2%)

-------------------------   --------------------
FINAL SINGLE POINT ENERGY       -82.688521506464
-------------------------   --------------------


----------------------------------------------------------------------------
                           ORCA NUMERICAL GRADIENT
                              (28-process run)
----------------------------------------------------------------------------

I state                        ... 1
J state                        ... 0
Number of atoms                ... 2
Derivative's order of accuracy ... 2
Central differences            ... used
Number of displacements        ... 12
Numerical increment            ... 5.000e-03 bohr
Translation invariance         ... used

The output will be reduced. Please look at the following files:
SCF program output             ... >LiO.lastscf
Integral program output        ... >LiO.lastint
Gradient program output        ... >LiO.lastgrad


     Note:   There are more processes than displacements to do
     ===>:   Reducing number of processes to   3

             <<<Displacing   2/coordinate 3 (+)>>>
             <<<Displacing   2/coordinate 1 (+)>>>
             <<<Displacing   2/coordinate 2 (+)>>>
             <<<Displacing   2/coordinate 3 (-)>>>
             <<<Displacing   2/coordinate 1 (-)>>>
             <<<Displacing   2/coordinate 2 (-)>>>

------------------------------
CARTESIAN GRADIENT (NUMERICAL)
-------------------------------
   1   Li  :    0.000000393   -0.000000107    0.000895555
   2   O   :   -0.000000393    0.000000107   -0.000895555

Norm of the cartesian gradient     ...    0.001266506
RMS gradient                       ...    0.000517049
MAX gradient                       ...    0.000895555

-------
TIMINGS
-------

Total numerical gradient time      ...       18.933 sec


                            ***************************************
                            *     ORCA property calculations      *
                            ***************************************

                                    ---------------------
                                    Active property flags
                                    ---------------------
   (+) Dipole Moment


------------------------------------------------------------------------------
                       ORCA ELECTRIC PROPERTIES CALCULATION
------------------------------------------------------------------------------

Dipole Moment Calculation                       ... on
Quadrupole Moment Calculation                   ... off
Polarizability Calculation                      ... off
GBWName                                         ... LiO.gbw
Electron density file                           ... LiO.scfp
The origin for moment calculation is the CENTER OF MASS  = ( 0.000000,  0.000000  2.226014)

-------------
DIPOLE MOMENT
-------------
                                X             Y             Z
Electronic contribution:      0.00000      -0.00000      -3.63512
Nuclear contribution   :      0.00000       0.00000       1.04782
                        -----------------------------------------
Total Dipole Moment    :      0.00000      -0.00000      -2.58730
                        -----------------------------------------
Magnitude (a.u.)       :      2.58730
Magnitude (Debye)      :      6.57640



--------------------
Rotational spectrum 
--------------------
 
Rotational constants in cm-1:     0.000000     1.220720     1.220720 
Rotational constants in MHz :     0.000000 36596.271053 36596.271053 

 Dipole components along the rotational axes: 
x,y,z [a.u.] :    -2.587301    -0.000000     0.000000 
x,y,z [Debye]:    -6.576395    -0.000000     0.000000 

 

Timings for individual modules:

Sum of individual times         ...      110.034 sec (=   1.834 min)
GTO integral calculation        ...        2.959 sec (=   0.049 min)   2.7 %
SCF iterations                  ...       88.142 sec (=   1.469 min)  80.1 %
SCF Gradient evaluation         ...       18.933 sec (=   0.316 min)  17.2 %
                             ****ORCA TERMINATED NORMALLY****
TOTAL RUN TIME: 0 days 0 hours 5 minutes 10 seconds 778 msec
