
                                 *****************
                                 * O   R   C   A *
                                 *****************

           --- An Ab Initio, DFT and Semiempirical electronic structure package ---

                  #######################################################
                  #                        -***-                        #
                  #          Department of theory and spectroscopy      #
                  #               Directorship: Frank Neese             #
                  #        Max Planck Institute fuer Kohlenforschung    #
                  #                Kaiser Wilhelm Platz 1               #
                  #                 D-45470 Muelheim/Ruhr               #
                  #                      Germany                        #
                  #                                                     #
                  #                  All rights reserved                #
                  #                        -***-                        #
                  #######################################################


                         Program Version 4.2.0 -  RELEASE  -


 With contributions from (in alphabetic order):
   Daniel Aravena         : Magnetic Suceptibility
   Michael Atanasov       : Ab Initio Ligand Field Theory (pilot matlab implementation)
   Alexander A. Auer      : GIAO ZORA, VPT2
   Ute Becker             : Parallelization
   Giovanni Bistoni       : ED, misc. LED, open-shell LED, HFLED
   Martin Brehm           : Molecular dynamics
   Dmytro Bykov           : SCF Hessian
   Vijay G. Chilkuri      : MRCI spin determinant printing, contributions to CSF-ICE
   Dipayan Datta          : RHF DLPNO-CCSD density
   Achintya Kumar Dutta   : EOM-CC, STEOM-CC
   Dmitry Ganyushin       : Spin-Orbit,Spin-Spin,Magnetic field MRCI
   Miquel Garcia          : C-PCM Hessian, Gaussian charge scheme
   Yang Guo               : DLPNO-NEVPT2, CIM, IAO-localization
   Andreas Hansen         : Spin unrestricted coupled pair/coupled cluster methods
   Benjamin Helmich-Paris : CASSCF linear response (MC-RPA)
   Lee Huntington         : MR-EOM, pCC
   Robert Izsak           : Overlap fitted RIJCOSX, COSX-SCS-MP3, EOM
   Christian Kollmar      : KDIIS, OOCD, Brueckner-CCSD(T), CCSD density
   Simone Kossmann        : Meta GGA functionals, TD-DFT gradient, OOMP2, MP2 Hessian
   Martin Krupicka        : AUTO-CI
   Lucas Lang             : DCDCAS
   Dagmar Lenk            : GEPOL surface, SMD
   Dimitrios Liakos       : Extrapolation schemes; Compound Job, initial MDCI parallelization
   Dimitrios Manganas     : Further ROCIS development; embedding schemes
   Dimitrios Pantazis     : SARC Basis sets
   Taras Petrenko         : DFT Hessian,TD-DFT gradient, ASA, ECA, R-Raman, ABS, FL, XAS/XES, NRVS
   Peter Pinski           : DLPNO-MP2, DLPNO-MP2 Gradient
   Christoph Reimann      : Effective Core Potentials
   Marius Retegan         : Local ZFS, SOC
   Christoph Riplinger    : Optimizer, TS searches, QM/MM, DLPNO-CCSD(T), (RO)-DLPNO pert. Triples
   Tobias Risthaus        : Range-separated hybrids, TD-DFT gradient, RPA, STAB
   Michael Roemelt        : Original ROCIS implementation
   Masaaki Saitow         : Open-shell DLPNO-CCSD energy and density
   Barbara Sandhoefer     : DKH picture change effects
   Avijit Sen             : IP-ROCIS
   Kantharuban Sivalingam : CASSCF convergence, NEVPT2, FIC-MRCI
   Bernardo de Souza      : ESD, SOC TD-DFT
   Georgi Stoychev        : AutoAux, RI-MP2 NMR
   Willem Van den Heuvel  : Paramagnetic NMR
   Boris Wezisla          : Elementary symmetry handling
   Frank Wennmohs         : Technical directorship


 We gratefully acknowledge several colleagues who have allowed us to
 interface, adapt or use parts of their codes:
   Stefan Grimme, W. Hujo, H. Kruse,             : VdW corrections, initial TS optimization,
                  C. Bannwarth                     DFT functionals, gCP, sTDA/sTD-DF
   Ed Valeev, F. Pavosevic, A. Kumar             : LibInt (2-el integral package), F12 methods
   Garnet Chan, S. Sharma, J. Yang, R. Olivares  : DMRG
   Ulf Ekstrom                                   : XCFun DFT Library
   Mihaly Kallay                                 : mrcc  (arbitrary order and MRCC methods)
   Andreas Klamt, Michael Diedenhofen            : otool_cosmo (COSMO solvation model)
   Jiri Pittner, Ondrej Demel                    : Mk-CCSD
   Frank Weinhold                                : gennbo (NPA and NBO analysis)
   Christopher J. Cramer and Donald G. Truhlar   : smd solvation model
   Lars Goerigk                                  : TD-DFT with DH, B97 family of functionals
   V. Asgeirsson, H. Jonsson                     : NEB implementation
   FAccTs GmbH                                   : IRC, NEB, NEB-TS, Multilevel, MM, QM/MM, CI optimization
   S Lehtola, MJT Oliveira, MAL Marques          : LibXC Library


 Your calculation uses the libint2 library for the computation of 2-el integrals
 For citations please refer to: http://libint.valeyev.net

 Your ORCA version has been built with support for libXC version: 4.2.3
 For citations please refer to: https://tddft.org/programs/libxc/

 This ORCA versions uses:
   CBLAS   interface :  Fast vector & matrix operations
   LAPACKE interface :  Fast linear algebra routines
   SCALAPACK package :  Parallel linear algebra routines


Your calculation utilizes the DFT-NL dispersion correction.
Cite in your paper:
Vydrov, O. A.; Van Voorhis, T. J. Chem. Phys. 2010, 133, 244103
Hujo, W.; Grimme, S. J. Chem. Theory Comput. 2011, 7, 3866 
   

----- Orbital basis set information -----
Your calculation utilizes the basis: def2-TZVPPD
   F. Weigend and R. Ahlrichs, Phys. Chem. Chem. Phys. 7, 3297 (2005).
   D. Rappoport and F. Furche, J. Chem. Phys. 133 134105 (2010).

----- AuxJK basis set information -----
Your calculation utilizes the auxiliary basis: def2/JK
   H-Ba, Hf-Rn: F. Weigend, J. Comput. Chem. 29, 167 (2008).

================================================================================
                                        WARNINGS
                       Please study these warnings very carefully!
================================================================================

INFO   : Found keyword 'NumGrad' for Energy calculation
  ===> : Setting RunTyp to EnGrad

WARNING: Numerical Gradient with sloppy Convergence Criteria    
         Your results may be not reliable!                      
         Please choose at least TightSCF!                       

WARNING: your system is open-shell and RHF/RKS was chosen
  ===> : WILL SWITCH to UHF/UKS


INFO   : the flag for use of LIBINT has been found!

================================================================================
                                       INPUT FILE
================================================================================
NAME = V+.in
|  1> #
|  2> # V+ wB97M-V/Def2-TZVPPD
|  3> #
|  4> ! wb97m-v def2-tzvppd def2/jk grid4 nofinalgrid numgrad
|  5> 
|  6> *xyz 1 5
|  7> V          0.00000        0.00000        0.00000
|  8> *
|  9> 
| 10> %maxcore 5000
| 11> 
| 12> %pal
| 13> nprocs = 28
| 14> end
| 15> 
| 16> 
| 17>                          ****END OF INPUT****
================================================================================

                     *******************************
                     * Energy+Gradient Calculation *
                     *******************************

---------------------------------
CARTESIAN COORDINATES (ANGSTROEM)
---------------------------------
  V      0.000000    0.000000    0.000000

----------------------------
CARTESIAN COORDINATES (A.U.)
----------------------------
  NO LB      ZA    FRAG     MASS         X           Y           Z
   0 V    23.0000    0    50.940    0.000000    0.000000    0.000000

--------------------------------
INTERNAL COORDINATES (ANGSTROEM)
--------------------------------
 V      0   0   0     0.000000000000     0.00000000     0.00000000

---------------------------
INTERNAL COORDINATES (A.U.)
---------------------------
 V      0   0   0     0.000000000000     0.00000000     0.00000000

---------------------
BASIS SET INFORMATION
---------------------
There are 1 groups of distinct atoms

 Group   1 Type V   : 17s13p7d2f1g contracted to 6s6p4d2f1g pattern {842111/631111/4111/11/1}

Atom   0V    basis set group =>   1
----------------------------------
AUXILIARY/JK BASIS SET INFORMATION
----------------------------------
There are 1 groups of distinct atoms

 Group   1 Type V   : 19s14p12d10f7g3h1i contracted to 16s13p11d9f5g3h1i pattern {4111111111111111/2111111111111/21111111111/211111111/31111/111/1}

Atom   0V    basis set group =>   1


           ************************************************************
           *        Program running with 28 parallel MPI-processes    *
           *              working on a common directory               *
           ************************************************************
------------------------------------------------------------------------------
                           ORCA GTO INTEGRAL CALCULATION
------------------------------------------------------------------------------

                         BASIS SET STATISTICS AND STARTUP INFO

 # of primitive gaussian shells          ...   40
 # of primitive gaussian functions       ...  114
 # of contracted shells                  ...   19
 # of contracted basis functions         ...   67
 Highest angular momentum                ...    4
 Maximum contraction depth               ...    8
 Integral package used                   ... LIBINT
 Integral threshhold            Thresh   ...  1.000e-10
 Primitive cut-off              TCut     ...  1.000e-11


------------------------------ INTEGRAL EVALUATION ----------------------------


 * One electron integrals 
 Pre-screening matrix                    ... done
 Shell pair data                         ... done (   0.000 sec)



           ************************************************************
           *        Program running with 28 parallel MPI-processes    *
           *              working on a common directory               *
           ************************************************************
-------------------------------------------------------------------------------
                                 ORCA SCF
-------------------------------------------------------------------------------

------------
SCF SETTINGS
------------
Hamiltonian:
 Density Functional     Method          .... DFT(GTOs)
 Exchange Functional    Exchange        .... WB97M-V
 Correlation Functional Correlation     .... WB97M-V
 Gradients option       PostSCFGGA      .... off
 Hybrid DFT is turned on
   Fraction HF Exchange ScalHFX         ....  0.150000
   Scaling of DF-GGA-X  ScalDFX         ....  0.000000
   Scaling of DF-GGA-C  ScalDFC         ....  1.000000
   Scaling of DF-LDA-C  ScalLDAC        ....  1.000000
   Perturbative correction              ....  0.000000
   Density functional embedding theory  .... OFF
 Long-range corrected/Screened/Range-Separated Hybrid DFT is turned on
   Amount of maximum screened exact exchange              ....  0.850000
   Range separation parameter mu (erf(mu*r12)/r12)        ....  0.300000
   NL short-range parameter             ....  6.000000
   NL long-range parameter              ....  0.010000


General Settings:
 Integral files         IntName         .... V+
 Hartree-Fock type      HFTyp           .... UHF
 Total Charge           Charge          ....    1
 Multiplicity           Mult            ....    5
 Number of Electrons    NEL             ....   22
 Basis Dimension        Dim             ....   67
 Nuclear Repulsion      ENuc            ....      0.0000000000 Eh

Convergence Acceleration:
 DIIS                   CNVDIIS         .... on
   Start iteration      DIISMaxIt       ....    12
   Startup error        DIISStart       ....  0.200000
   # of expansion vecs  DIISMaxEq       ....     5
   Bias factor          DIISBfac        ....   1.050
   Max. coefficient     DIISMaxC        ....  10.000
 Newton-Raphson         CNVNR           .... off
 SOSCF                  CNVSOSCF        .... off
 Level Shifting         CNVShift        .... on
   Level shift para.    LevelShift      ....    0.2500
   Turn off err/grad.   ShiftErr        ....    0.0010
 Zerner damping         CNVZerner       .... off
 Static damping         CNVDamp         .... on
   Fraction old density DampFac         ....    0.7000
   Max. Damping (<1)    DampMax         ....    0.9800
   Min. Damping (>=0)   DampMin         ....    0.0000
   Turn off err/grad.   DampErr         ....    0.1000
 Fernandez-Rico         CNVRico         .... off

SCF Procedure:
 Maximum # iterations   MaxIter         ....   125
 SCF integral mode      SCFMode         .... Direct
   Integral package                     .... LIBINT
 Reset frequency        DirectResetFreq ....    20
 Integral Threshold     Thresh          ....  1.000e-10 Eh
 Primitive CutOff       TCut            ....  1.000e-11 Eh

Convergence Tolerance:
 Convergence Check Mode ConvCheckMode   .... Total+1el-Energy
 Convergence forced     ConvForced      .... 0
 Energy Change          TolE            ....  1.000e-06 Eh
 1-El. energy change                    ....  1.000e-03 Eh
 DIIS Error             TolErr          ....  1.000e-06


Diagonalization of the overlap matrix:
Smallest eigenvalue                        ... 3.674e-02
Time for diagonalization                   ...    0.002 sec
Threshold for overlap eigenvalues          ... 1.000e-08
Number of eigenvalues below threshold      ... 0
Time for construction of square roots      ...    0.051 sec
Total time needed                          ...    0.053 sec

-------------------
DFT GRID GENERATION
-------------------

General Integration Accuracy     IntAcc      ...  4.670
Radial Grid Type                 RadialGrid  ... Gauss-Chebyshev
Angular Grid (max. acc.)         AngularGrid ... Lebedev-302
Angular grid pruning method      GridPruning ... 3 (G Style)
Weight generation scheme         WeightScheme... Becke
Basis function cutoff            BFCut       ...    1.0000e-10
Integration weight cutoff        WCut        ...    1.0000e-14
Grids for H and He will be reduced by one unit

# of grid points (after initial pruning)     ...   9664 (   0.0 sec)
# of grid points (after weights+screening)   ...   9664 (   0.0 sec)
Grid point division into batches done        ...    0.1 sec
Reduced shell lists constructed in    0.1 sec

Total number of grid points                  ...     9664
Total number of batches                      ...      152
Average number of points per batch           ...       63
Average number of grid points per atom       ...     9664
Average number of shells per batch           ...     3.43 (18.05%)
Average number of basis functions per batch  ...    10.29 (15.35%)
Average number of large shells per batch     ...     3.43 (100.00%)
Average number of large basis fcns per batch ...    10.29 (100.00%)
Maximum spatial batch extension              ...  22.27, 22.27, 22.27 au
Average spatial batch extension              ...   0.77,  0.76,  0.74 au

Time for grid setup =    1.724 sec

------------------------------
INITIAL GUESS: MODEL POTENTIAL
------------------------------
Loading Hartree-Fock densities                     ... done
Calculating cut-offs                               ... done
Setting up the integral package                    ... done
Initializing the effective Hamiltonian             ... done
Starting the Coulomb interaction                   ... done (   0.0 sec)
Reading the grid                                   ... done
Mapping shells                                     ... done
Starting the XC term evaluation                    ... done (   0.0 sec)
  promolecular density results
     # of electrons  =     23.000003052
     EX              =    -43.918520832
     EC              =     -0.944824995
     EX+EC           =    -44.863345827
Transforming the Hamiltonian                       ... done (   0.0 sec)
Diagonalizing the Hamiltonian                      ... done (   0.0 sec)
Back transforming the eigenvectors                 ... done (   0.0 sec)
Now organizing SCF variables                       ... done
                      ------------------
                      INITIAL GUESS DONE (   1.8 sec)
                      ------------------
--------------
SCF ITERATIONS
--------------
ITER       Energy         Delta-E        Max-DP      RMS-DP      [F,P]     Damp
               ***  Starting incremental Fock matrix formation  ***
  0   -943.6664015751   0.000000000000 0.01747275  0.00060287  0.1160485 0.7000
  1   -943.6742700975  -0.007868522440 3.08657442  0.06597289  0.0728081 0.7000
  2   -940.6779189306   2.996351166909 0.92597601  0.01989511  0.2647764 0.7000
                               ***Turning on DIIS***
  3   -941.6933173111  -1.015398380517 2.16064117  0.04622541  0.0836053 0.0000
  4   -943.5222228256  -1.828905514511 0.00970099  0.00040942  0.2420735 0.7000
  5   -943.5516970111  -0.029474185412 0.91270774  0.02965436  0.2144128 0.7000
  6   -941.9095121928   1.642184818295 0.91268279  0.02958970  0.0341158 0.0000
  7   -943.5824896452  -1.672977452464 0.89145187  0.02954570  0.1719914 0.7000
  8   -942.5225357440   1.059953901187 1.98957919  0.06453796  0.0522093 0.0000
  9   -939.6091509623   2.913384781700 0.86431291  0.02822049  0.2408177 0.7000
 10   -940.9311130900  -1.321962127629 0.60502339  0.01975489  0.1182905 0.7000
 11   -941.7954219478  -0.864308857840 1.41172022  0.04608137  0.0403090 0.0000
 12   -943.5883566048  -1.792934657014 0.00072206  0.00002220  0.1654039 0.7000
 13   -943.5885161443  -0.000159539457 0.00070020  0.00001994  0.1653737 0.7000
 14   -943.5888597090  -0.000343564724 0.00059656  0.00001693  0.1651879 0.7000
 15   -943.5893752717  -0.000515562655 0.00046008  0.00001679  0.1648559 0.7000
 16   -943.5902478570  -0.000872585322 0.03079713  0.00122552  0.1642323 0.7000
 17   -943.6295020358  -0.039254178814 2.63139444  0.10470866  0.0970150 0.0000
 18   -931.1093408753  12.520161160483 0.02291470  0.00089355  0.9236453 0.7000
 19   -931.2175945899  -0.108253714558 0.02121693  0.00082937  0.8969534 0.7000
               *** Restarting incremental Fock matrix formation ***
                                   *** Resetting DIIS ***
 20   -931.3231145703  -0.105519980411 0.77522531  0.03165184  0.8692791 0.7000
 21   -936.0107644269  -4.687649856609 0.54371944  0.02176017  0.3162060 0.7000
 22   -938.6234765913  -2.612712164437 1.26872003  0.05065448  0.0857648 0.0000
 23   -943.2894393887  -4.665962797379 0.00129728  0.00004064  0.3501962 0.7000
 24   -943.2862221859   0.003217202812 0.00099694  0.00003110  0.3522087 0.7000
 25   -943.2836840206   0.002538165306 0.00095024  0.00003080  0.3537822 0.7000
 26   -943.2878664086  -0.004182388008 0.00190242  0.00006409  0.3520555 0.7000
 27   -943.2963976715  -0.008531262926 0.06427477  0.00264201  0.3481673 0.7000
 28   -943.4581525923  -0.161754920790 0.02898246  0.00096308  0.1682447 0.7000
 29   -943.5355831595  -0.077430567183 0.01826293  0.00059658  0.1170521 0.7000
 30   -943.5837588689  -0.048175709376 0.04299800  0.00140698  0.0848524 0.0000
 31   -943.6870784894  -0.103319620576 0.00412423  0.00013108  0.0050316 0.0000
 32   -943.6871558137  -0.000077324235 0.00205367  0.00005325  0.0023543 0.0000
 33   -943.6871509111   0.000004902575 0.00078554  0.00002066  0.0003974 0.0000
 34   -943.6871192975   0.000031613607 0.00070675  0.00001386  0.0003283 0.0000
 35   -943.6871143833   0.000004914193 0.00064662  0.00001234  0.0003267 0.0000
 36   -943.6871125381   0.000001845230 0.00062374  0.00001180  0.0003243 0.0000
                 **** Energy Check signals convergence ****

               *****************************************************
               *                     SUCCESS                       *
               *           SCF CONVERGED AFTER  37 CYCLES          *
               *****************************************************


Setting up the DFT-NL grid :

General Integration Accuracy     IntAcc      ...  4.340
Radial Grid Type                 RadialGrid  ... Gauss-Chebyshev
Angular Grid (max. acc.)         AngularGrid ... Lebedev-110
Angular grid pruning method      GridPruning ... 3 (G Style)
Weight generation scheme         WeightScheme... Becke
Basis function cutoff            BFCut       ...    1.0000e-10
Integration weight cutoff        WCut        ...    1.0000e-14
Grids for H and He will be reduced by one unit

# of grid points (after initial pruning)     ...   2972 (   0.0 sec)
# of grid points (after weights+screening)   ...   2972 (   0.0 sec)
Grid point division into batches done        ...    0.0 sec
Reduced shell lists constructed in    0.0 sec

Total number of grid points                  ...     2972
Total number of batches                      ...       47
Average number of points per batch           ...       63
Average number of grid points per atom       ...     2972
Average number of shells per batch           ...     5.33 (28.07%)
Average number of basis functions per batch  ...    18.67 (27.86%)
Average number of large shells per batch     ...     4.67 (87.50%)
Average number of large basis fcns per batch ...    14.00 (75.00%)
Maximum spatial batch extension              ...  18.71, 28.73, 28.73 au
Average spatial batch extension              ...   0.80,  1.22,  1.22 au

Final grid set up in    1.8 sec

-------------------------------------------------------------------------------
                         DFT-NL dispersion correction                          
-------------------------------------------------------------------------------

SC Energy -943.687111638 
NL    Energy 0.095072653 
SC+NL Energy -943.592038985 
NL done in    1.3 sec
-------------------------------------------------------------------------------

----------------
TOTAL SCF ENERGY
----------------

Total Energy       :         -943.59203898 Eh          -25676.44475 eV

Components:
Nuclear Repulsion  :            0.00000000 Eh               0.00000 eV
Electronic Energy  :         -943.59203898 Eh          -25676.44475 eV
One Electron Energy:        -1291.86144120 Eh          -35153.33698 eV
Two Electron Energy:          348.26940221 Eh            9476.89223 eV

Virial components:
Potential Energy   :        -1885.71419433 Eh          -51312.89192 eV
Kinetic Energy     :          942.12215534 Eh           25636.44718 eV
Virial Ratio       :            2.00156018


DFT components:
N(Alpha)           :       12.999999653910 electrons
N(Beta)            :        8.999999668136 electrons
N(Total)           :       21.999999322046 electrons
E(X)               :      -34.535594972596 Eh       
E(C)               :       -1.065683804665 Eh       
NL Energy, E(C,NL) :        0.095072652892 Eh       
E(XC)              :      -35.506206124368 Eh       
DFET-embed. en.    :        0.000000000000 Eh       

---------------
SCF CONVERGENCE
---------------

  Last Energy change         ...    9.0039e-07  Tolerance :   1.0000e-06
  Last MAX-Density change    ...    6.6861e-04  Tolerance :   1.0000e-05
  Last RMS-Density change    ...    1.2613e-05  Tolerance :   1.0000e-06
  Last DIIS Error            ...    3.2164e-04  Tolerance :   1.0000e-06

             **** THE GBW FILE WAS UPDATED (V+.gbw) ****
             **** DENSITY FILE WAS UPDATED (V+.scfp) ****
             **** ENERGY FILE WAS UPDATED (V+.en.tmp) ****
----------------------
UHF SPIN CONTAMINATION
----------------------

Warning: in a DFT calculation there is little theoretical justification to 
         calculate <S**2> as in Hartree-Fock theory. We will do it anyways
         but you should keep in mind that the values have only limited relevance

Expectation value of <S**2>     :     6.000627
Ideal value S*(S+1) for S=2.0   :     6.000000
Deviation                       :     0.000627

             **** THE GBW FILE WAS UPDATED (V+.gbw) ****
             **** DENSITY FILE WAS UPDATED (V+.scfp) ****
----------------
ORBITAL ENERGIES
----------------
                 SPIN UP ORBITALS
  NO   OCC          E(Eh)            E(eV) 
   0   1.0000    -197.464521     -5373.2828 
   1   1.0000     -22.591059      -614.7340 
   2   1.0000     -19.019960      -517.5594 
   3   1.0000     -19.014788      -517.4187 
   4   1.0000     -19.008710      -517.2533 
   5   1.0000      -2.953385       -80.3657 
   6   1.0000      -1.983311       -53.9686 
   7   1.0000      -1.980411       -53.8897 
   8   1.0000      -1.975044       -53.7437 
   9   1.0000      -0.534745       -14.5512 
  10   1.0000      -0.519277       -14.1302 
  11   1.0000      -0.504911       -13.7393 
  12   1.0000      -0.501871       -13.6566 
  13   0.0000      -0.245724        -6.6865 
  14   0.0000      -0.173932        -4.7329 
  15   0.0000      -0.152475        -4.1491 
  16   0.0000      -0.149730        -4.0744 
  17   0.0000      -0.147869        -4.0237 
  18   0.0000      -0.030992        -0.8433 
  19   0.0000      -0.030694        -0.8352 
  20   0.0000      -0.029342        -0.7984 
  21   0.0000      -0.028220        -0.7679 
  22   0.0000      -0.009683        -0.2635 
  23   0.0000      -0.007741        -0.2106 
  24   0.0000      -0.005672        -0.1543 
  25   0.0000      -0.005256        -0.1430 
  26   0.0000       0.001511         0.0411 
  27   0.0000       0.263662         7.1746 
  28   0.0000       0.266997         7.2654 
  29   0.0000       0.268952         7.3185 
  30   0.0000       0.496782        13.5181 
  31   0.0000       0.503797        13.7090 
  32   0.0000       0.510866        13.9014 
  33   0.0000       0.511437        13.9169 
  34   0.0000       0.515026        14.0146 
  35   0.0000       0.972733        26.4694 
  36   0.0000       0.974290        26.5118 
  37   0.0000       0.983800        26.7706 
  38   0.0000       0.987860        26.8810 
  39   0.0000       0.990713        26.9587 
  40   0.0000       0.993003        27.0210 
  41   0.0000       0.993598        27.0372 
  42   0.0000       1.595124        43.4055 
  43   0.0000       1.599064        43.5127 
  44   0.0000       1.604481        43.6601 
  45   0.0000       1.762830        47.9691 
  46   0.0000       2.293790        62.4172 
  47   0.0000       2.307936        62.8021 
  48   0.0000       2.320962        63.1566 
  49   0.0000       2.323908        63.2367 
  50   0.0000       2.338719        63.6398 
  51   0.0000       3.983124       108.3863 
  52   0.0000       3.984029       108.4109 
  53   0.0000       3.984324       108.4190 
  54   0.0000       3.985404       108.4484 
  55   0.0000       3.987200       108.4972 
  56   0.0000       3.996220       108.7427 
  57   0.0000       3.998509       108.8050 
  58   0.0000       4.003848       108.9502 
  59   0.0000       4.003984       108.9539 
  60   0.0000       4.488167       122.1292 
  61   0.0000       4.488302       122.1329 
  62   0.0000       4.489296       122.1600 
  63   0.0000       4.498789       122.4183 
  64   0.0000       4.504623       122.5770 
  65   0.0000       4.510014       122.7237 
  66   0.0000       4.510216       122.7292 

                 SPIN DOWN ORBITALS
  NO   OCC          E(Eh)            E(eV) 
   0   1.0000    -197.464020     -5373.2692 
   1   1.0000     -22.539313      -613.3259 
   2   1.0000     -18.984707      -516.6001 
   3   1.0000     -18.972956      -516.2804 
   4   1.0000     -18.960432      -515.9396 
   5   1.0000      -2.818998       -76.7088 
   6   1.0000      -1.854646       -50.4675 
   7   1.0000      -1.827724       -49.7349 
   8   1.0000      -1.799352       -48.9628 
   9   0.0000      -0.563764       -15.3408 
  10   0.0000      -0.539012       -14.6673 
  11   0.0000      -0.525121       -14.2893 
  12   0.0000      -0.485542       -13.2123 
  13   0.0000      -0.448927       -12.2159 
  14   0.0000      -0.445649       -12.1267 
  15   0.0000      -0.443192       -12.0599 
  16   0.0000      -0.438413       -11.9298 
  17   0.0000      -0.366477        -9.9724 
  18   0.0000      -0.270151        -7.3512 
  19   0.0000      -0.267867        -7.2890 
  20   0.0000      -0.245256        -6.6738 
  21   0.0000      -0.194101        -5.2818 
  22   0.0000      -0.094313        -2.5664 
  23   0.0000      -0.087333        -2.3764 
  24   0.0000      -0.076706        -2.0873 
  25   0.0000      -0.067974        -1.8497 
  26   0.0000      -0.065472        -1.7816 
  27   0.0000       0.121083         3.2948 
  28   0.0000       0.124889         3.3984 
  29   0.0000       0.128051         3.4844 
  30   0.0000       0.430831        11.7235 
  31   0.0000       0.434669        11.8280 
  32   0.0000       0.442084        12.0297 
  33   0.0000       0.447566        12.1789 
  34   0.0000       0.449949        12.2437 
  35   0.0000       0.986743        26.8507 
  36   0.0000       0.989716        26.9315 
  37   0.0000       0.993242        27.0275 
  38   0.0000       1.002972        27.2922 
  39   0.0000       1.004576        27.3359 
  40   0.0000       1.007877        27.4257 
  41   0.0000       1.008074        27.4311 
  42   0.0000       1.605166        43.6788 
  43   0.0000       1.618016        44.0284 
  44   0.0000       1.636432        44.5296 
  45   0.0000       1.821555        49.5670 
  46   0.0000       2.365933        64.3803 
  47   0.0000       2.383788        64.8662 
  48   0.0000       2.394201        65.1495 
  49   0.0000       2.403574        65.4046 
  50   0.0000       2.406262        65.4777 
  51   0.0000       4.059095       110.4536 
  52   0.0000       4.060015       110.4786 
  53   0.0000       4.071084       110.7798 
  54   0.0000       4.079468       111.0080 
  55   0.0000       4.082065       111.0786 
  56   0.0000       4.098496       111.5257 
  57   0.0000       4.098617       111.5290 
  58   0.0000       4.100497       111.5802 
  59   0.0000       4.100533       111.5812 
  60   0.0000       4.596304       125.0718 
  61   0.0000       4.601315       125.2081 
  62   0.0000       4.617193       125.6402 
  63   0.0000       4.637333       126.1883 
  64   0.0000       4.639993       126.2606 
  65   0.0000       4.650050       126.5343 
  66   0.0000       4.650490       126.5463 

                    ********************************
                    * MULLIKEN POPULATION ANALYSIS *
                    ********************************

--------------------------------------------
MULLIKEN ATOMIC CHARGES AND SPIN POPULATIONS
--------------------------------------------
   0 V :    1.000000    4.000000
Sum of atomic charges         :    1.0000000
Sum of atomic spin populations:    4.0000000

-----------------------------------------------------
MULLIKEN REDUCED ORBITAL CHARGES AND SPIN POPULATIONS
-----------------------------------------------------
CHARGE
  0 V s       :     6.000261  s :     6.000261
      pz      :     3.999906  p :    11.999799
      px      :     3.999941
      py      :     3.999951
      dz2     :     0.179549  d :     3.999705
      dxz     :     0.952440
      dyz     :     0.939057
      dx2y2   :     0.930706
      dxy     :     0.997953
      f0      :     0.000075  f :     0.000201
      f+1     :     0.000045
      f-1     :     0.000041
      f+2     :     0.000014
      f-2     :     0.000006
      f+3     :     0.000011
      f-3     :     0.000010
      g0      :     0.000004  g :     0.000034
      g+1     :     0.000004
      g-1     :     0.000002
      g+2     :     0.000009
      g-2     :     0.000007
      g+3     :     0.000002
      g-3     :     0.000003
      g+4     :     0.000001
      g-4     :     0.000001

SPIN
  0 V s       :     0.000642  s :     0.000642
      pz      :     0.000018  p :     0.000003
      px      :    -0.000028
      py      :     0.000013
      dz2     :     0.179304  d :     3.999328
      dxz     :     0.952437
      dyz     :     0.939018
      dx2y2   :     0.930626
      dxy     :     0.997942
      f0      :    -0.000014  f :    -0.000003
      f+1     :     0.000034
      f-1     :    -0.000012
      f+2     :     0.000004
      f-2     :     0.000002
      f+3     :    -0.000009
      f-3     :    -0.000007
      g0      :     0.000002  g :     0.000030
      g+1     :     0.000004
      g-1     :     0.000002
      g+2     :     0.000009
      g-2     :     0.000007
      g+3     :     0.000002
      g-3     :     0.000003
      g+4     :     0.000001
      g-4     :     0.000001


                     *******************************
                     * LOEWDIN POPULATION ANALYSIS *
                     *******************************

-------------------------------------------
LOEWDIN ATOMIC CHARGES AND SPIN POPULATIONS
-------------------------------------------
   0 V :    1.000000    4.000000

----------------------------------------------------
LOEWDIN REDUCED ORBITAL CHARGES AND SPIN POPULATIONS
----------------------------------------------------
CHARGE
  0 V s       :     6.000261  s :     6.000261
      pz      :     3.999906  p :    11.999799
      px      :     3.999941
      py      :     3.999951
      dz2     :     0.179549  d :     3.999705
      dxz     :     0.952440
      dyz     :     0.939057
      dx2y2   :     0.930706
      dxy     :     0.997953
      f0      :     0.000075  f :     0.000201
      f+1     :     0.000045
      f-1     :     0.000041
      f+2     :     0.000014
      f-2     :     0.000006
      f+3     :     0.000011
      f-3     :     0.000010
      g0      :     0.000004  g :     0.000034
      g+1     :     0.000004
      g-1     :     0.000002
      g+2     :     0.000009
      g-2     :     0.000007
      g+3     :     0.000002
      g-3     :     0.000003
      g+4     :     0.000001
      g-4     :     0.000001

SPIN
  0 V s       :     0.000642  s :     0.000642
      pz      :     0.000018  p :     0.000003
      px      :    -0.000028
      py      :     0.000013
      dz2     :     0.179304  d :     3.999328
      dxz     :     0.952437
      dyz     :     0.939018
      dx2y2   :     0.930626
      dxy     :     0.997942
      f0      :    -0.000014  f :    -0.000003
      f+1     :     0.000034
      f-1     :    -0.000012
      f+2     :     0.000004
      f-2     :     0.000002
      f+3     :    -0.000009
      f-3     :    -0.000007
      g0      :     0.000002  g :     0.000030
      g+1     :     0.000004
      g-1     :     0.000002
      g+2     :     0.000009
      g-2     :     0.000007
      g+3     :     0.000002
      g-3     :     0.000003
      g+4     :     0.000001
      g-4     :     0.000001


                      *****************************
                      * MAYER POPULATION ANALYSIS *
                      *****************************

  NA   - Mulliken gross atomic population
  ZA   - Total nuclear charge
  QA   - Mulliken gross atomic charge
  VA   - Mayer's total valence
  BVA  - Mayer's bonded valence
  FA   - Mayer's free valence

  ATOM       NA         ZA         QA         VA         BVA        FA
  0 V     22.0000    23.0000     1.0000     4.0013     0.0000     4.0013

  Mayer bond orders larger than 0.100000


-------
TIMINGS
-------

Total SCF time: 0 days 0 hours 6 min 11 sec 

Total time                  ....     371.559 sec
Sum of individual times     ....     368.685 sec  ( 99.2%)

Fock matrix formation       ....     359.429 sec  ( 96.7%)
  XC integration            ....     348.975 sec  ( 97.1% of F)
    Basis function eval.    ....       0.027 sec  (  0.0% of XC)
    Density eval.           ....       0.063 sec  (  0.0% of XC)
    XC-Functional eval.     ....       0.054 sec  (  0.0% of XC)
    XC-Potential eval.      ....       0.118 sec  (  0.0% of XC)
Diagonalization             ....       4.849 sec  (  1.3%)
Density matrix formation    ....       0.013 sec  (  0.0%)
Population analysis         ....       0.368 sec  (  0.1%)
Initial guess               ....       0.118 sec  (  0.0%)
Orbital Transformation      ....       0.000 sec  (  0.0%)
Orbital Orthonormalization  ....       0.000 sec  (  0.0%)
DIIS solution               ....       0.363 sec  (  0.1%)
Grid generation             ....       3.545 sec  (  1.0%)

-------------------------   --------------------
FINAL SINGLE POINT ENERGY      -943.592038984785
-------------------------   --------------------


----------------------------------------------------------------------------
                           ORCA NUMERICAL GRADIENT
                              (28-process run)
----------------------------------------------------------------------------

I state                        ... 1
J state                        ... 0
Number of atoms                ... 1
Derivative's order of accuracy ... 2
Central differences            ... used
Number of displacements        ... 6
Numerical increment            ... 5.000e-03 bohr
Translation invariance         ... used

The output will be reduced. Please look at the following files:
SCF program output             ... >V+.lastscf
Integral program output        ... >V+.lastint
Gradient program output        ... >V+.lastgrad


     Note:   There are more processes than displacements to do
     ===>:   Reducing number of processes to   0


------------------------------
CARTESIAN GRADIENT (NUMERICAL)
-------------------------------
   1   V   :    0.000000000    0.000000000    0.000000000

Norm of the cartesian gradient     ...    0.000000000
RMS gradient                       ...    0.000000000
MAX gradient                       ...    0.000000000
*** glibc detected *** /mnt/storage/software/apps/orca-4.2.0/orca_4_2_0_linux_x86-64_openmpi314/orca: free(): invalid next size (fast): 0x000000000dbdce60 ***
======= Backtrace: =========
[0xb0928aa]
[0xb09567c]
[0x76d903]
[0x76fb95]
[0x915b4f]
[0x918f24]
[0x487649]
[0xb05c99e]
[0x4870d9]
======= Memory map: ========
00400000-0bf42000 r-xp 00000000 00:2b 4876154                            /mnt/storage/software/apps/orca-4.2.0/orca_4_2_0_linux_x86-64_openmpi314/orca
0c141000-0c203000 rw-p 0bb41000 00:2b 4876154                            /mnt/storage/software/apps/orca-4.2.0/orca_4_2_0_linux_x86-64_openmpi314/orca
0c203000-0c77a000 rw-p 00000000 00:00 0 
0d999000-0dc08000 rw-p 00000000 00:00 0                                  [heap]
2af6d1689000-2af6d1e8a000 rw-p 00000000 00:00 0 
2af6d2689000-2af6d4d4c000 rw-p 00000000 00:00 0 
2af6d8000000-2af6d80b3000 rw-p 00000000 00:00 0 
2af6d80b3000-2af6dc000000 ---p 00000000 00:00 0 
7ffd78a6e000-7ffd78b6f000 rw-p 00000000 00:00 0                          [stack]
7ffd78b70000-7ffd78b72000 r-xp 00000000 00:00 0                          [vdso]
ffffffffff600000-ffffffffff601000 r-xp 00000000 00:00 0                  [vsyscall]
