
                                 *****************
                                 * O   R   C   A *
                                 *****************

           --- An Ab Initio, DFT and Semiempirical electronic structure package ---

                  #######################################################
                  #                        -***-                        #
                  #          Department of theory and spectroscopy      #
                  #               Directorship: Frank Neese             #
                  #        Max Planck Institute fuer Kohlenforschung    #
                  #                Kaiser Wilhelm Platz 1               #
                  #                 D-45470 Muelheim/Ruhr               #
                  #                      Germany                        #
                  #                                                     #
                  #                  All rights reserved                #
                  #                        -***-                        #
                  #######################################################


                         Program Version 4.2.0 -  RELEASE  -


 With contributions from (in alphabetic order):
   Daniel Aravena         : Magnetic Suceptibility
   Michael Atanasov       : Ab Initio Ligand Field Theory (pilot matlab implementation)
   Alexander A. Auer      : GIAO ZORA, VPT2
   Ute Becker             : Parallelization
   Giovanni Bistoni       : ED, misc. LED, open-shell LED, HFLED
   Martin Brehm           : Molecular dynamics
   Dmytro Bykov           : SCF Hessian
   Vijay G. Chilkuri      : MRCI spin determinant printing, contributions to CSF-ICE
   Dipayan Datta          : RHF DLPNO-CCSD density
   Achintya Kumar Dutta   : EOM-CC, STEOM-CC
   Dmitry Ganyushin       : Spin-Orbit,Spin-Spin,Magnetic field MRCI
   Miquel Garcia          : C-PCM Hessian, Gaussian charge scheme
   Yang Guo               : DLPNO-NEVPT2, CIM, IAO-localization
   Andreas Hansen         : Spin unrestricted coupled pair/coupled cluster methods
   Benjamin Helmich-Paris : CASSCF linear response (MC-RPA)
   Lee Huntington         : MR-EOM, pCC
   Robert Izsak           : Overlap fitted RIJCOSX, COSX-SCS-MP3, EOM
   Christian Kollmar      : KDIIS, OOCD, Brueckner-CCSD(T), CCSD density
   Simone Kossmann        : Meta GGA functionals, TD-DFT gradient, OOMP2, MP2 Hessian
   Martin Krupicka        : AUTO-CI
   Lucas Lang             : DCDCAS
   Dagmar Lenk            : GEPOL surface, SMD
   Dimitrios Liakos       : Extrapolation schemes; Compound Job, initial MDCI parallelization
   Dimitrios Manganas     : Further ROCIS development; embedding schemes
   Dimitrios Pantazis     : SARC Basis sets
   Taras Petrenko         : DFT Hessian,TD-DFT gradient, ASA, ECA, R-Raman, ABS, FL, XAS/XES, NRVS
   Peter Pinski           : DLPNO-MP2, DLPNO-MP2 Gradient
   Christoph Reimann      : Effective Core Potentials
   Marius Retegan         : Local ZFS, SOC
   Christoph Riplinger    : Optimizer, TS searches, QM/MM, DLPNO-CCSD(T), (RO)-DLPNO pert. Triples
   Tobias Risthaus        : Range-separated hybrids, TD-DFT gradient, RPA, STAB
   Michael Roemelt        : Original ROCIS implementation
   Masaaki Saitow         : Open-shell DLPNO-CCSD energy and density
   Barbara Sandhoefer     : DKH picture change effects
   Avijit Sen             : IP-ROCIS
   Kantharuban Sivalingam : CASSCF convergence, NEVPT2, FIC-MRCI
   Bernardo de Souza      : ESD, SOC TD-DFT
   Georgi Stoychev        : AutoAux, RI-MP2 NMR
   Willem Van den Heuvel  : Paramagnetic NMR
   Boris Wezisla          : Elementary symmetry handling
   Frank Wennmohs         : Technical directorship


 We gratefully acknowledge several colleagues who have allowed us to
 interface, adapt or use parts of their codes:
   Stefan Grimme, W. Hujo, H. Kruse,             : VdW corrections, initial TS optimization,
                  C. Bannwarth                     DFT functionals, gCP, sTDA/sTD-DF
   Ed Valeev, F. Pavosevic, A. Kumar             : LibInt (2-el integral package), F12 methods
   Garnet Chan, S. Sharma, J. Yang, R. Olivares  : DMRG
   Ulf Ekstrom                                   : XCFun DFT Library
   Mihaly Kallay                                 : mrcc  (arbitrary order and MRCC methods)
   Andreas Klamt, Michael Diedenhofen            : otool_cosmo (COSMO solvation model)
   Jiri Pittner, Ondrej Demel                    : Mk-CCSD
   Frank Weinhold                                : gennbo (NPA and NBO analysis)
   Christopher J. Cramer and Donald G. Truhlar   : smd solvation model
   Lars Goerigk                                  : TD-DFT with DH, B97 family of functionals
   V. Asgeirsson, H. Jonsson                     : NEB implementation
   FAccTs GmbH                                   : IRC, NEB, NEB-TS, Multilevel, MM, QM/MM, CI optimization
   S Lehtola, MJT Oliveira, MAL Marques          : LibXC Library


 Your calculation uses the libint2 library for the computation of 2-el integrals
 For citations please refer to: http://libint.valeyev.net

 Your ORCA version has been built with support for libXC version: 4.2.3
 For citations please refer to: https://tddft.org/programs/libxc/

 This ORCA versions uses:
   CBLAS   interface :  Fast vector & matrix operations
   LAPACKE interface :  Fast linear algebra routines
   SCALAPACK package :  Parallel linear algebra routines


Your calculation utilizes the DFT-NL dispersion correction.
Cite in your paper:
Vydrov, O. A.; Van Voorhis, T. J. Chem. Phys. 2010, 133, 244103
Hujo, W.; Grimme, S. J. Chem. Theory Comput. 2011, 7, 3866 
   

----- Orbital basis set information -----
Your calculation utilizes the basis: def2-TZVPPD
   F. Weigend and R. Ahlrichs, Phys. Chem. Chem. Phys. 7, 3297 (2005).
   D. Rappoport and F. Furche, J. Chem. Phys. 133 134105 (2010).

----- AuxJK basis set information -----
Your calculation utilizes the auxiliary basis: def2/JK
   H-Ba, Hf-Rn: F. Weigend, J. Comput. Chem. 29, 167 (2008).

================================================================================
                                        WARNINGS
                       Please study these warnings very carefully!
================================================================================

INFO   : Found keyword 'NumGrad' for Energy calculation
  ===> : Setting RunTyp to EnGrad

WARNING: Numerical Gradient with sloppy Convergence Criteria    
         Your results may be not reliable!                      
         Please choose at least TightSCF!                       

WARNING: your system is open-shell and RHF/RKS was chosen
  ===> : WILL SWITCH to UHF/UKS


INFO   : the flag for use of LIBINT has been found!

================================================================================
                                       INPUT FILE
================================================================================
NAME = VCO+.in
|  1> #
|  2> # VCO+ wB97M-V/Def2-TZVPPD
|  3> #
|  4> ! wb97m-v def2-tzvppd def2/jk grid4 nofinalgrid numgrad
|  5> 
|  6> *xyz 1 5
|  7> V          0.00000        0.00000        0.00000
|  8> C          0.00000        0.00000        2.11314
|  9> O          0.00000        0.00000        3.23351
| 10> *
| 11> 
| 12> %maxcore 5000
| 13> 
| 14> %pal
| 15> nprocs = 28
| 16> end
| 17> 
| 18> 
| 19>                          ****END OF INPUT****
================================================================================

                     *******************************
                     * Energy+Gradient Calculation *
                     *******************************

---------------------------------
CARTESIAN COORDINATES (ANGSTROEM)
---------------------------------
  V      0.000000    0.000000    0.000000
  C      0.000000    0.000000    2.113140
  O      0.000000    0.000000    3.233510

----------------------------
CARTESIAN COORDINATES (A.U.)
----------------------------
  NO LB      ZA    FRAG     MASS         X           Y           Z
   0 V    23.0000    0    50.940    0.000000    0.000000    0.000000
   1 C     6.0000    0    12.011    0.000000    0.000000    3.993256
   2 O     8.0000    0    15.999    0.000000    0.000000    6.110448

--------------------------------
INTERNAL COORDINATES (ANGSTROEM)
--------------------------------
 V      0   0   0     0.000000000000     0.00000000     0.00000000
 C      1   0   0     2.113140000000     0.00000000     0.00000000
 O      2   1   0     1.120370000000   180.00000000     0.00000000

---------------------------
INTERNAL COORDINATES (A.U.)
---------------------------
 V      0   0   0     0.000000000000     0.00000000     0.00000000
 C      1   0   0     3.993255882634     0.00000000     0.00000000
 O      2   1   0     2.117192468661   180.00000000     0.00000000

---------------------
BASIS SET INFORMATION
---------------------
There are 3 groups of distinct atoms

 Group   1 Type V   : 17s13p7d2f1g contracted to 6s6p4d2f1g pattern {842111/631111/4111/11/1}
 Group   2 Type C   : 12s6p3d1f contracted to 6s3p3d1f pattern {621111/411/111/1}
 Group   3 Type O   : 12s7p3d1f contracted to 6s4p3d1f pattern {621111/4111/111/1}

Atom   0V    basis set group =>   1
Atom   1C    basis set group =>   2
Atom   2O    basis set group =>   3
----------------------------------
AUXILIARY/JK BASIS SET INFORMATION
----------------------------------
There are 3 groups of distinct atoms

 Group   1 Type V   : 19s14p12d10f7g3h1i contracted to 16s13p11d9f5g3h1i pattern {4111111111111111/2111111111111/21111111111/211111111/31111/111/1}
 Group   2 Type C   : 14s10p6d2f1g contracted to 10s8p5d1f1g pattern {5111111111/31111111/21111/2/1}
 Group   3 Type O   : 14s10p6d2f1g contracted to 10s8p4d2f1g pattern {5111111111/31111111/3111/11/1}

Atom   0V    basis set group =>   1
Atom   1C    basis set group =>   2
Atom   2O    basis set group =>   3


           ************************************************************
           *        Program running with 28 parallel MPI-processes    *
           *              working on a common directory               *
           ************************************************************
------------------------------------------------------------------------------
                           ORCA GTO INTEGRAL CALCULATION
------------------------------------------------------------------------------

                         BASIS SET STATISTICS AND STARTUP INFO

 # of primitive gaussian shells          ...   85
 # of primitive gaussian functions       ...  221
 # of contracted shells                  ...   46
 # of contracted basis functions         ...  144
 Highest angular momentum                ...    4
 Maximum contraction depth               ...    8
 Integral package used                   ... LIBINT
 Integral threshhold            Thresh   ...  1.000e-10
 Primitive cut-off              TCut     ...  1.000e-11


------------------------------ INTEGRAL EVALUATION ----------------------------


 * One electron integrals 
 Pre-screening matrix                    ... done
 Shell pair data                         ... done (   0.000 sec)



           ************************************************************
           *        Program running with 28 parallel MPI-processes    *
           *              working on a common directory               *
           ************************************************************
-------------------------------------------------------------------------------
                                 ORCA SCF
-------------------------------------------------------------------------------

------------
SCF SETTINGS
------------
Hamiltonian:
 Density Functional     Method          .... DFT(GTOs)
 Exchange Functional    Exchange        .... WB97M-V
 Correlation Functional Correlation     .... WB97M-V
 Gradients option       PostSCFGGA      .... off
 Hybrid DFT is turned on
   Fraction HF Exchange ScalHFX         ....  0.150000
   Scaling of DF-GGA-X  ScalDFX         ....  0.000000
   Scaling of DF-GGA-C  ScalDFC         ....  1.000000
   Scaling of DF-LDA-C  ScalLDAC        ....  1.000000
   Perturbative correction              ....  0.000000
   Density functional embedding theory  .... OFF
 Long-range corrected/Screened/Range-Separated Hybrid DFT is turned on
   Amount of maximum screened exact exchange              ....  0.850000
   Range separation parameter mu (erf(mu*r12)/r12)        ....  0.300000
   NL short-range parameter             ....  6.000000
   NL long-range parameter              ....  0.010000


General Settings:
 Integral files         IntName         .... VCO+
 Hartree-Fock type      HFTyp           .... UHF
 Total Charge           Charge          ....    1
 Multiplicity           Mult            ....    5
 Number of Electrons    NEL             ....   36
 Basis Dimension        Dim             ....  144
 Nuclear Repulsion      ENuc            ....     87.3421564032 Eh

Convergence Acceleration:
 DIIS                   CNVDIIS         .... on
   Start iteration      DIISMaxIt       ....    12
   Startup error        DIISStart       ....  0.200000
   # of expansion vecs  DIISMaxEq       ....     5
   Bias factor          DIISBfac        ....   1.050
   Max. coefficient     DIISMaxC        ....  10.000
 Newton-Raphson         CNVNR           .... off
 SOSCF                  CNVSOSCF        .... off
 Level Shifting         CNVShift        .... on
   Level shift para.    LevelShift      ....    0.2500
   Turn off err/grad.   ShiftErr        ....    0.0010
 Zerner damping         CNVZerner       .... off
 Static damping         CNVDamp         .... on
   Fraction old density DampFac         ....    0.7000
   Max. Damping (<1)    DampMax         ....    0.9800
   Min. Damping (>=0)   DampMin         ....    0.0000
   Turn off err/grad.   DampErr         ....    0.1000
 Fernandez-Rico         CNVRico         .... off

SCF Procedure:
 Maximum # iterations   MaxIter         ....   125
 SCF integral mode      SCFMode         .... Direct
   Integral package                     .... LIBINT
 Reset frequency        DirectResetFreq ....    20
 Integral Threshold     Thresh          ....  1.000e-10 Eh
 Primitive CutOff       TCut            ....  1.000e-11 Eh

Convergence Tolerance:
 Convergence Check Mode ConvCheckMode   .... Total+1el-Energy
 Convergence forced     ConvForced      .... 0
 Energy Change          TolE            ....  1.000e-06 Eh
 1-El. energy change                    ....  1.000e-03 Eh
 DIIS Error             TolErr          ....  1.000e-06


Diagonalization of the overlap matrix:
Smallest eigenvalue                        ... 1.007e-04
Time for diagonalization                   ...    0.004 sec
Threshold for overlap eigenvalues          ... 1.000e-08
Number of eigenvalues below threshold      ... 0
Time for construction of square roots      ...    0.174 sec
Total time needed                          ...    0.178 sec

-------------------
DFT GRID GENERATION
-------------------

General Integration Accuracy     IntAcc      ...  4.670
Radial Grid Type                 RadialGrid  ... Gauss-Chebyshev
Angular Grid (max. acc.)         AngularGrid ... Lebedev-302
Angular grid pruning method      GridPruning ... 3 (G Style)
Weight generation scheme         WeightScheme... Becke
Basis function cutoff            BFCut       ...    1.0000e-10
Integration weight cutoff        WCut        ...    1.0000e-14
Grids for H and He will be reduced by one unit

# of grid points (after initial pruning)     ...  22088 (   0.0 sec)
# of grid points (after weights+screening)   ...  21901 (   0.0 sec)
nearest neighbour list constructed           ...    0.0 sec
Grid point re-assignment to atoms done       ...    0.0 sec
Grid point division into batches done        ...    0.2 sec
Reduced shell lists constructed in    0.2 sec

Total number of grid points                  ...    21901
Total number of batches                      ...      344
Average number of points per batch           ...       63
Average number of grid points per atom       ...     7300
Average number of shells per batch           ...     8.36 (18.17%)
Average number of basis functions per batch  ...    22.64 (15.72%)
Average number of large shells per batch     ...     5.71 (68.38%)
Average number of large basis fcns per batch ...    16.00 (70.66%)
Maximum spatial batch extension              ...  24.37, 24.49, 17.62 au
Average spatial batch extension              ...   0.73,  0.73,  0.56 au

Time for grid setup =    2.600 sec

------------------------------
INITIAL GUESS: MODEL POTENTIAL
------------------------------
Loading Hartree-Fock densities                     ... done
Calculating cut-offs                               ... done
Setting up the integral package                    ... done
Initializing the effective Hamiltonian             ... done
Starting the Coulomb interaction                   ... done (   0.0 sec)
Reading the grid                                   ... done
Mapping shells                                     ... done
Starting the XC term evaluation                    ... done (   0.0 sec)
  promolecular density results
     # of electrons  =     36.999997958
     EX              =    -57.158032899
     EC              =     -1.408847153
     EX+EC           =    -58.566880053
Transforming the Hamiltonian                       ... done (   0.1 sec)
Diagonalizing the Hamiltonian                      ... done (   0.0 sec)
Back transforming the eigenvectors                 ... done (   0.0 sec)
Now organizing SCF variables                       ... done
                      ------------------
                      INITIAL GUESS DONE (   4.1 sec)
                      ------------------
--------------
SCF ITERATIONS
--------------
ITER       Energy         Delta-E        Max-DP      RMS-DP      [F,P]     Damp
               ***  Starting incremental Fock matrix formation  ***
  0  -1057.0524933839   0.000000000000 0.01747372  0.00042771  0.1821164 0.7000
  1  -1057.0799787750  -0.027485391141 0.01062537  0.00033681  0.0808511 0.7000
                               ***Turning on DIIS***
  2  -1057.0937415779  -0.013762802926 0.02094388  0.00075741  0.0382928 0.0000
  3  -1057.1230920325  -0.029350454557 0.00684436  0.00020432  0.0453723 0.0000
  4  -1057.1270476417  -0.003955609238 0.00518738  0.00014514  0.0145825 0.0000
  5  -1057.1283740684  -0.001326426643 0.00502829  0.00011206  0.0077021 0.0000
  6  -1057.1291334533  -0.000759384903 0.00254632  0.00007464  0.0041958 0.0000
  7  -1057.1293420901  -0.000208636799 0.00173781  0.00003395  0.0017756 0.0000
  8  -1057.1293888408  -0.000046750781 0.00088264  0.00002452  0.0011465 0.0000
  9  -1057.1293750994   0.000013741472 0.00093818  0.00002171  0.0007902 0.0000
 10  -1057.1293461830   0.000028916396 0.00047234  0.00000844  0.0002891 0.0000
 11  -1057.1293335522   0.000012630734 0.00009419  0.00000185  0.0002111 0.0000
 12  -1057.1293315154   0.000002036830 0.00007937  0.00000140  0.0001030 0.0000
 13  -1057.1293310530   0.000000462391 0.00003490  0.00000072  0.0000202 0.0000
                 **** Energy Check signals convergence ****

               *****************************************************
               *                     SUCCESS                       *
               *           SCF CONVERGED AFTER  14 CYCLES          *
               *****************************************************


Setting up the DFT-NL grid :

General Integration Accuracy     IntAcc      ...  4.340
Radial Grid Type                 RadialGrid  ... Gauss-Chebyshev
Angular Grid (max. acc.)         AngularGrid ... Lebedev-110
Angular grid pruning method      GridPruning ... 3 (G Style)
Weight generation scheme         WeightScheme... Becke
Basis function cutoff            BFCut       ...    1.0000e-10
Integration weight cutoff        WCut        ...    1.0000e-14
Grids for H and He will be reduced by one unit

# of grid points (after initial pruning)     ...   6344 (   0.0 sec)
# of grid points (after weights+screening)   ...   6277 (   0.0 sec)
nearest neighbour list constructed           ...    0.0 sec
Grid point re-assignment to atoms done       ...    0.0 sec
Grid point division into batches done        ...    0.0 sec
Reduced shell lists constructed in    0.0 sec

Total number of grid points                  ...     6277
Total number of batches                      ...      100
Average number of points per batch           ...       62
Average number of grid points per atom       ...     2092
Average number of shells per batch           ...    16.00 (34.78%)
Average number of basis functions per batch  ...    48.00 (33.33%)
Average number of large shells per batch     ...    11.20 (70.00%)
Average number of large basis fcns per batch ...    32.00 (66.67%)
Maximum spatial batch extension              ...  20.31, 28.73, 16.36 au
Average spatial batch extension              ...   0.78,  0.95,  0.65 au

Final grid set up in    3.0 sec

-------------------------------------------------------------------------------
                         DFT-NL dispersion correction                          
-------------------------------------------------------------------------------

SC Energy -1057.129331084 
NL    Energy 0.151858105 
SC+NL Energy -1056.977472979 
NL done in    2.8 sec
-------------------------------------------------------------------------------

----------------
TOTAL SCF ENERGY
----------------

Total Energy       :        -1056.97747298 Eh          -28761.81926 eV

Components:
Nuclear Repulsion  :           87.34215640 Eh            2376.70090 eV
Electronic Energy  :        -1144.31962938 Eh          -31138.52017 eV
One Electron Energy:        -1617.04749351 Eh          -44002.09932 eV
Two Electron Energy:          472.72786413 Eh           12863.57915 eV

Virial components:
Potential Energy   :        -2112.22857439 Eh          -57476.66157 eV
Kinetic Energy     :         1055.25110141 Eh           28714.84230 eV
Virial Ratio       :            2.00163598


DFT components:
N(Alpha)           :       19.999999075314 electrons
N(Beta)            :       15.999999400727 electrons
N(Total)           :       35.999998476041 electrons
E(X)               :      -44.099288871453 Eh       
E(C)               :       -1.560539749332 Eh       
NL Energy, E(C,NL) :        0.151858105055 Eh       
E(XC)              :      -45.507970515730 Eh       
DFET-embed. en.    :        0.000000000000 Eh       

---------------
SCF CONVERGENCE
---------------

  Last Energy change         ...   -3.0930e-08  Tolerance :   1.0000e-06
  Last MAX-Density change    ...    1.0802e-05  Tolerance :   1.0000e-05
  Last RMS-Density change    ...    2.5174e-07  Tolerance :   1.0000e-06
  Last DIIS Error            ...    1.5133e-05  Tolerance :   1.0000e-06

             **** THE GBW FILE WAS UPDATED (VCO+.gbw) ****
             **** DENSITY FILE WAS UPDATED (VCO+.scfp) ****
             **** ENERGY FILE WAS UPDATED (VCO+.en.tmp) ****
----------------------
UHF SPIN CONTAMINATION
----------------------

Warning: in a DFT calculation there is little theoretical justification to 
         calculate <S**2> as in Hartree-Fock theory. We will do it anyways
         but you should keep in mind that the values have only limited relevance

Expectation value of <S**2>     :     6.003893
Ideal value S*(S+1) for S=2.0   :     6.000000
Deviation                       :     0.003893

             **** THE GBW FILE WAS UPDATED (VCO+.gbw) ****
             **** DENSITY FILE WAS UPDATED (VCO+.scfp) ****
----------------
ORBITAL ENERGIES
----------------
                 SPIN UP ORBITALS
  NO   OCC          E(Eh)            E(eV) 
   0   1.0000    -197.462075     -5373.2162 
   1   1.0000     -22.594812      -614.8361 
   2   1.0000     -19.639860      -534.4278 
   3   1.0000     -19.024679      -517.6878 
   4   1.0000     -19.014350      -517.4068 
   5   1.0000     -19.014350      -517.4068 
   6   1.0000     -10.670519      -290.3596 
   7   1.0000      -2.950541       -80.2883 
   8   1.0000      -1.979166       -53.8558 
   9   1.0000      -1.973800       -53.7098 
  10   1.0000      -1.973800       -53.7098 
  11   1.0000      -1.495113       -40.6841 
  12   1.0000      -0.888291       -24.1716 
  13   1.0000      -0.786337       -21.3973 
  14   1.0000      -0.786337       -21.3973 
  15   1.0000      -0.757141       -20.6028 
  16   1.0000      -0.519191       -14.1279 
  17   1.0000      -0.519191       -14.1279 
  18   1.0000      -0.497791       -13.5456 
  19   1.0000      -0.497791       -13.5456 
  20   0.0000      -0.218336        -5.9412 
  21   0.0000      -0.172266        -4.6876 
  22   0.0000      -0.172266        -4.6876 
  23   0.0000      -0.168222        -4.5776 
  24   0.0000      -0.098678        -2.6852 
  25   0.0000      -0.098678        -2.6852 
  26   0.0000      -0.078378        -2.1328 
  27   0.0000      -0.058359        -1.5880 
  28   0.0000      -0.035535        -0.9670 
  29   0.0000      -0.035535        -0.9670 
  30   0.0000      -0.034642        -0.9426 
  31   0.0000      -0.007842        -0.2134 
  32   0.0000      -0.007842        -0.2134 
  33   0.0000      -0.002912        -0.0792 
  34   0.0000      -0.002912        -0.0792 
  35   0.0000       0.011290         0.3072 
  36   0.0000       0.036690         0.9984 
  37   0.0000       0.036690         0.9984 
  38   0.0000       0.039921         1.0863 
  39   0.0000       0.093567         2.5461 
  40   0.0000       0.100871         2.7448 
  41   0.0000       0.100871         2.7448 
  42   0.0000       0.158460         4.3119 
  43   0.0000       0.211683         5.7602 
  44   0.0000       0.211683         5.7602 
  45   0.0000       0.214117         5.8264 
  46   0.0000       0.261767         7.1230 
  47   0.0000       0.261767         7.1230 
  48   0.0000       0.271876         7.3981 
  49   0.0000       0.337362         9.1801 
  50   0.0000       0.337362         9.1801 
  51   0.0000       0.344787         9.3821 
  52   0.0000       0.378129        10.2894 
  53   0.0000       0.378131        10.2895 
  54   0.0000       0.407580        11.0908 
  55   0.0000       0.407580        11.0908 
  56   0.0000       0.442600        12.0437 
  57   0.0000       0.511355        13.9147 
  58   0.0000       0.511357        13.9147 
  59   0.0000       0.548557        14.9270 
  60   0.0000       0.610614        16.6157 
  61   0.0000       0.610614        16.6157 
  62   0.0000       0.651212        17.7204 
  63   0.0000       0.704762        19.1775 
  64   0.0000       0.704773        19.1778 
  65   0.0000       0.736180        20.0325 
  66   0.0000       0.782464        21.2919 
  67   0.0000       0.782464        21.2919 
  68   0.0000       0.799066        21.7437 
  69   0.0000       0.863018        23.4839 
  70   0.0000       0.863018        23.4839 
  71   0.0000       0.991279        26.9741 
  72   0.0000       1.001104        27.2414 
  73   0.0000       1.001104        27.2414 
  74   0.0000       1.042099        28.3569 
  75   0.0000       1.042105        28.3571 
  76   0.0000       1.240852        33.7653 
  77   0.0000       1.326062        36.0840 
  78   0.0000       1.326062        36.0840 
  79   0.0000       1.527199        41.5572 
  80   0.0000       1.527648        41.5694 
  81   0.0000       1.527648        41.5694 
  82   0.0000       1.617257        44.0078 
  83   0.0000       1.617263        44.0080 
  84   0.0000       1.636435        44.5296 
  85   0.0000       1.636435        44.5296 
  86   0.0000       1.732610        47.1467 
  87   0.0000       1.761009        47.9195 
  88   0.0000       2.034024        55.3486 
  89   0.0000       2.081390        56.6375 
  90   0.0000       2.081390        56.6375 
  91   0.0000       2.187541        59.5260 
  92   0.0000       2.292270        62.3758 
  93   0.0000       2.330701        63.4216 
  94   0.0000       2.330705        63.4217 
  95   0.0000       2.359920        64.2167 
  96   0.0000       2.359920        64.2167 
  97   0.0000       2.500243        68.0351 
  98   0.0000       2.500243        68.0351 
  99   0.0000       2.667362        72.5826 
 100   0.0000       2.723252        74.1035 
 101   0.0000       2.723260        74.1037 
 102   0.0000       2.806618        76.3719 
 103   0.0000       2.806618        76.3719 
 104   0.0000       2.912507        79.2533 
 105   0.0000       2.912553        79.2546 
 106   0.0000       3.015414        82.0536 
 107   0.0000       3.015414        82.0536 
 108   0.0000       3.126451        85.0751 
 109   0.0000       3.238897        88.1349 
 110   0.0000       3.473949        94.5309 
 111   0.0000       3.473949        94.5309 
 112   0.0000       3.938452       107.1707 
 113   0.0000       3.999432       108.8301 
 114   0.0000       3.999432       108.8301 
 115   0.0000       4.013322       109.2081 
 116   0.0000       4.013347       109.2087 
 117   0.0000       4.016887       109.3051 
 118   0.0000       4.016909       109.3057 
 119   0.0000       4.181837       113.7936 
 120   0.0000       4.181837       113.7936 
 121   0.0000       4.267758       116.1316 
 122   0.0000       4.514930       122.8575 
 123   0.0000       4.514930       122.8575 
 124   0.0000       4.521398       123.0335 
 125   0.0000       4.521400       123.0335 
 126   0.0000       4.526460       123.1712 
 127   0.0000       4.673017       127.1593 
 128   0.0000       4.673017       127.1593 
 129   0.0000       4.997242       135.9819 
 130   0.0000       4.997242       135.9819 
 131   0.0000       5.058064       137.6369 
 132   0.0000       5.428413       147.7146 
 133   0.0000       5.428420       147.7148 
 134   0.0000       6.240153       169.8032 
 135   0.0000       6.240153       169.8032 
 136   0.0000       6.285575       171.0392 
 137   0.0000       6.285580       171.0393 
 138   0.0000       6.556745       178.4181 
 139   0.0000       6.684344       181.8902 
 140   0.0000       6.684344       181.8903 
 141   0.0000       7.107096       193.3939 
 142   0.0000      22.745265       618.9301 
 143   0.0000      44.209886      1203.0122 

                 SPIN DOWN ORBITALS
  NO   OCC          E(Eh)            E(eV) 
   0   1.0000    -197.461633     -5373.2042 
   1   1.0000     -22.545183      -613.4856 
   2   1.0000     -19.637240      -534.3565 
   3   1.0000     -18.993206      -516.8314 
   4   1.0000     -18.970023      -516.2006 
   5   1.0000     -18.970023      -516.2006 
   6   1.0000     -10.671001      -290.3727 
   7   1.0000      -2.822002       -76.7906 
   8   1.0000      -1.863086       -50.6971 
   9   1.0000      -1.812674       -49.3254 
  10   1.0000      -1.812674       -49.3254 
  11   1.0000      -1.491191       -40.5774 
  12   1.0000      -0.882857       -24.0238 
  13   1.0000      -0.777570       -21.1587 
  14   1.0000      -0.777570       -21.1587 
  15   1.0000      -0.747041       -20.3280 
  16   0.0000      -0.361830        -9.8459 
  17   0.0000      -0.296813        -8.0767 
  18   0.0000      -0.296811        -8.0767 
  19   0.0000      -0.216850        -5.9008 
  20   0.0000      -0.198058        -5.3894 
  21   0.0000      -0.198058        -5.3894 
  22   0.0000      -0.197246        -5.3673 
  23   0.0000      -0.197245        -5.3673 
  24   0.0000      -0.108838        -2.9616 
  25   0.0000      -0.099251        -2.7008 
  26   0.0000      -0.099250        -2.7007 
  27   0.0000      -0.091303        -2.4845 
  28   0.0000      -0.074881        -2.0376 
  29   0.0000      -0.074589        -2.0297 
  30   0.0000      -0.074586        -2.0296 
  31   0.0000      -0.034902        -0.9497 
  32   0.0000      -0.034902        -0.9497 
  33   0.0000      -0.029319        -0.7978 
  34   0.0000      -0.029316        -0.7977 
  35   0.0000      -0.023746        -0.6462 
  36   0.0000      -0.010100        -0.2748 
  37   0.0000      -0.010100        -0.2748 
  38   0.0000       0.009827         0.2674 
  39   0.0000       0.039624         1.0782 
  40   0.0000       0.070730         1.9247 
  41   0.0000       0.070730         1.9247 
  42   0.0000       0.127316         3.4644 
  43   0.0000       0.185371         5.0442 
  44   0.0000       0.185372         5.0442 
  45   0.0000       0.208300         5.6681 
  46   0.0000       0.220697         6.0055 
  47   0.0000       0.220697         6.0055 
  48   0.0000       0.227440         6.1890 
  49   0.0000       0.305390         8.3101 
  50   0.0000       0.305391         8.3101 
  51   0.0000       0.335804         9.1377 
  52   0.0000       0.365630         9.9493 
  53   0.0000       0.365631         9.9493 
  54   0.0000       0.406193        11.0531 
  55   0.0000       0.406194        11.0531 
  56   0.0000       0.439218        11.9517 
  57   0.0000       0.498106        13.5541 
  58   0.0000       0.498108        13.5542 
  59   0.0000       0.524870        14.2824 
  60   0.0000       0.597009        16.2454 
  61   0.0000       0.597009        16.2454 
  62   0.0000       0.644561        17.5394 
  63   0.0000       0.704451        19.1691 
  64   0.0000       0.704459        19.1693 
  65   0.0000       0.732909        19.9435 
  66   0.0000       0.782447        21.2915 
  67   0.0000       0.782447        21.2915 
  68   0.0000       0.792060        21.5530 
  69   0.0000       0.865877        23.5617 
  70   0.0000       0.865877        23.5617 
  71   0.0000       0.983757        26.7694 
  72   0.0000       1.017158        27.6783 
  73   0.0000       1.017158        27.6783 
  74   0.0000       1.072007        29.1708 
  75   0.0000       1.072007        29.1708 
  76   0.0000       1.251415        34.0527 
  77   0.0000       1.342364        36.5276 
  78   0.0000       1.342364        36.5276 
  79   0.0000       1.522745        41.4360 
  80   0.0000       1.525086        41.4997 
  81   0.0000       1.525086        41.4997 
  82   0.0000       1.619967        44.0816 
  83   0.0000       1.619970        44.0816 
  84   0.0000       1.689093        45.9626 
  85   0.0000       1.689093        45.9626 
  86   0.0000       1.740176        47.3526 
  87   0.0000       1.802017        49.0354 
  88   0.0000       2.032033        55.2944 
  89   0.0000       2.085357        56.7455 
  90   0.0000       2.085357        56.7455 
  91   0.0000       2.237479        60.8849 
  92   0.0000       2.312809        62.9347 
  93   0.0000       2.424450        65.9726 
  94   0.0000       2.424450        65.9726 
  95   0.0000       2.450420        66.6793 
  96   0.0000       2.450420        66.6793 
  97   0.0000       2.503780        68.1313 
  98   0.0000       2.503780        68.1313 
  99   0.0000       2.702464        73.5378 
 100   0.0000       2.730132        74.2907 
 101   0.0000       2.730173        74.2918 
 102   0.0000       2.815765        76.6208 
 103   0.0000       2.815765        76.6208 
 104   0.0000       2.913935        79.2922 
 105   0.0000       2.913944        79.2924 
 106   0.0000       3.022110        82.2358 
 107   0.0000       3.022110        82.2358 
 108   0.0000       3.131022        85.1995 
 109   0.0000       3.241930        88.2174 
 110   0.0000       3.487105        94.8890 
 111   0.0000       3.487105        94.8890 
 112   0.0000       3.977711       108.2390 
 113   0.0000       4.104085       111.6778 
 114   0.0000       4.104085       111.6778 
 115   0.0000       4.105492       111.7161 
 116   0.0000       4.105502       111.7164 
 117   0.0000       4.106879       111.7539 
 118   0.0000       4.106904       111.7545 
 119   0.0000       4.247272       115.5742 
 120   0.0000       4.247272       115.5742 
 121   0.0000       4.272122       116.2503 
 122   0.0000       4.565626       124.2370 
 123   0.0000       4.652413       126.5986 
 124   0.0000       4.652413       126.5986 
 125   0.0000       4.659786       126.7992 
 126   0.0000       4.659789       126.7993 
 127   0.0000       4.774777       129.9283 
 128   0.0000       4.774777       129.9283 
 129   0.0000       5.004888       136.1899 
 130   0.0000       5.004888       136.1899 
 131   0.0000       5.119303       139.3033 
 132   0.0000       5.434123       147.8700 
 133   0.0000       5.434123       147.8700 
 134   0.0000       6.246952       169.9882 
 135   0.0000       6.246952       169.9882 
 136   0.0000       6.296591       171.3390 
 137   0.0000       6.296594       171.3390 
 138   0.0000       6.560781       178.5279 
 139   0.0000       6.689829       182.0395 
 140   0.0000       6.689829       182.0395 
 141   0.0000       7.110998       193.5001 
 142   0.0000      22.744466       618.9084 
 143   0.0000      44.211862      1203.0659 

                    ********************************
                    * MULLIKEN POPULATION ANALYSIS *
                    ********************************

--------------------------------------------
MULLIKEN ATOMIC CHARGES AND SPIN POPULATIONS
--------------------------------------------
   0 V :    0.718044    3.926935
   1 C :    0.345258    0.007021
   2 O :   -0.063301    0.066044
Sum of atomic charges         :    1.0000000
Sum of atomic spin populations:    4.0000000

-----------------------------------------------------
MULLIKEN REDUCED ORBITAL CHARGES AND SPIN POPULATIONS
-----------------------------------------------------
CHARGE
  0 V s       :     6.196525  s :     6.196525
      pz      :     4.110542  p :    12.115686
      px      :     4.002572
      py      :     4.002572
      dz2     :     0.105254  d :     3.964595
      dxz     :     0.930591
      dyz     :     0.930591
      dx2y2   :     0.999080
      dxy     :     0.999080
      f0      :     0.003817  f :     0.005006
      f+1     :     0.000587
      f-1     :     0.000587
      f+2     :     0.000008
      f-2     :     0.000007
      f+3     :     0.000000
      f-3     :     0.000000
      g0      :     0.000091  g :     0.000144
      g+1     :     0.000018
      g-1     :     0.000018
      g+2     :     0.000009
      g-2     :     0.000009
      g+3     :     0.000000
      g-3     :     0.000000
      g+4     :     0.000000
      g-4     :     0.000000
  1 C s       :     3.415051  s :     3.415051
      pz      :     0.919760  p :     2.123748
      px      :     0.601994
      py      :     0.601994
      dz2     :     0.014528  d :     0.100483
      dxz     :     0.042091
      dyz     :     0.042091
      dx2y2   :     0.000887
      dxy     :     0.000887
      f0      :     0.004320  f :     0.015462
      f+1     :     0.005525
      f-1     :     0.005525
      f+2     :     0.000046
      f-2     :     0.000046
      f+3     :     0.000000
      f-3     :     0.000000
  2 O s       :     3.897656  s :     3.897656
      pz      :     1.317869  p :     4.111871
      px      :     1.397001
      py      :     1.397001
      dz2     :     0.014125  d :     0.051682
      dxz     :     0.018808
      dyz     :     0.018808
      dx2y2   :    -0.000029
      dxy     :    -0.000029
      f0      :     0.000465  f :     0.002092
      f+1     :     0.000813
      f-1     :     0.000813
      f+2     :     0.000000
      f-2     :     0.000000
      f+3     :     0.000000
      f-3     :     0.000000

SPIN
  0 V s       :     0.016980  s :     0.016980
      pz      :     0.030646  p :     0.031968
      px      :     0.000661
      py      :     0.000661
      dz2     :     0.024240  d :     3.877591
      dxz     :     0.927596
      dyz     :     0.927596
      dx2y2   :     0.999080
      dxy     :     0.999080
      f0      :     0.000114  f :     0.000404
      f+1     :     0.000137
      f-1     :     0.000137
      f+2     :     0.000008
      f-2     :     0.000007
      f+3     :     0.000000
      f-3     :     0.000000
      g0      :    -0.000043  g :    -0.000009
      g+1     :     0.000008
      g-1     :     0.000008
      g+2     :     0.000009
      g-2     :     0.000009
      g+3     :     0.000000
      g-3     :     0.000000
      g+4     :    -0.000000
      g-4     :     0.000000
  1 C s       :    -0.027098  s :    -0.027098
      pz      :    -0.023837  p :     0.003783
      px      :     0.013810
      py      :     0.013810
      dz2     :     0.001579  d :     0.030168
      dxz     :     0.013408
      dyz     :     0.013408
      dx2y2   :     0.000887
      dxy     :     0.000887
      f0      :    -0.000023  f :     0.000168
      f+1     :     0.000049
      f-1     :     0.000049
      f+2     :     0.000046
      f-2     :     0.000046
      f+3     :    -0.000000
      f-3     :    -0.000000
  2 O s       :    -0.019667  s :    -0.019667
      pz      :    -0.003696  p :     0.084452
      px      :     0.044074
      py      :     0.044074
      dz2     :     0.000834  d :     0.001377
      dxz     :     0.000300
      dyz     :     0.000300
      dx2y2   :    -0.000029
      dxy     :    -0.000029
      f0      :    -0.000030  f :    -0.000118
      f+1     :    -0.000044
      f-1     :    -0.000044
      f+2     :     0.000000
      f-2     :     0.000000
      f+3     :     0.000000
      f-3     :     0.000000


                     *******************************
                     * LOEWDIN POPULATION ANALYSIS *
                     *******************************

-------------------------------------------
LOEWDIN ATOMIC CHARGES AND SPIN POPULATIONS
-------------------------------------------
   0 V :    0.798147    3.818275
   1 C :    0.002723    0.105745
   2 O :    0.199131    0.075980

----------------------------------------------------
LOEWDIN REDUCED ORBITAL CHARGES AND SPIN POPULATIONS
----------------------------------------------------
CHARGE
  0 V s       :     6.025042  s :     6.025042
      pz      :     4.136315  p :    12.137866
      px      :     4.000776
      py      :     4.000776
      dz2     :     0.182913  d :     4.016736
      dxz     :     0.921449
      dyz     :     0.921449
      dx2y2   :     0.995462
      dxy     :     0.995462
      f0      :     0.018528  f :     0.021734
      f+1     :     0.001583
      f-1     :     0.001583
      f+2     :     0.000020
      f-2     :     0.000020
      f+3     :     0.000000
      f-3     :     0.000000
      g0      :     0.000410  g :     0.000475
      g+1     :     0.000025
      g-1     :     0.000025
      g+2     :     0.000008
      g-2     :     0.000008
      g+3     :     0.000000
      g-3     :     0.000000
      g+4     :     0.000000
      g-4     :     0.000000
  1 C s       :     3.047214  s :     3.047214
      pz      :     1.132976  p :     2.321018
      px      :     0.594021
      py      :     0.594021
      dz2     :     0.252816  d :     0.542289
      dxz     :     0.140355
      dyz     :     0.140355
      dx2y2   :     0.004381
      dxy     :     0.004381
      f0      :     0.027151  f :     0.086757
      f+1     :     0.029674
      f-1     :     0.029674
      f+2     :     0.000128
      f-2     :     0.000128
      f+3     :     0.000000
      f-3     :     0.000000
  2 O s       :     3.402934  s :     3.402934
      pz      :     1.645696  p :     4.198087
      px      :     1.276195
      py      :     1.276195
      dz2     :     0.124057  d :     0.192781
      dxz     :     0.034362
      dyz     :     0.034362
      dx2y2   :     0.000000
      dxy     :     0.000000
      f0      :     0.003948  f :     0.007067
      f+1     :     0.001559
      f-1     :     0.001559
      f+2     :     0.000000
      f-2     :     0.000000
      f+3     :     0.000000
      f-3     :     0.000000

SPIN
  0 V s       :    -0.008112  s :    -0.008112
      pz      :     0.008547  p :     0.008404
      px      :    -0.000071
      py      :    -0.000071
      dz2     :     0.016212  d :     3.818100
      dxz     :     0.905482
      dyz     :     0.905482
      dx2y2   :     0.995462
      dxy     :     0.995462
      f0      :    -0.000222  f :    -0.000094
      f+1     :     0.000044
      f-1     :     0.000044
      f+2     :     0.000020
      f-2     :     0.000020
      f+3     :     0.000000
      f-3     :     0.000000
      g0      :    -0.000044  g :    -0.000023
      g+1     :     0.000003
      g-1     :     0.000003
      g+2     :     0.000008
      g-2     :     0.000008
      g+3     :     0.000000
      g-3     :     0.000000
      g+4     :    -0.000000
      g-4     :     0.000000
  1 C s       :    -0.010912  s :    -0.010912
      pz      :    -0.001866  p :     0.021608
      px      :     0.011737
      py      :     0.011737
      dz2     :    -0.000761  d :     0.093006
      dxz     :     0.042502
      dyz     :     0.042502
      dx2y2   :     0.004381
      dxy     :     0.004381
      f0      :     0.000107  f :     0.002044
      f+1     :     0.000840
      f-1     :     0.000840
      f+2     :     0.000128
      f-2     :     0.000128
      f+3     :    -0.000000
      f-3     :    -0.000000
  2 O s       :    -0.001163  s :    -0.001163
      pz      :    -0.001778  p :     0.068563
      px      :     0.035170
      py      :     0.035170
      dz2     :     0.000019  d :     0.008604
      dxz     :     0.004292
      dyz     :     0.004292
      dx2y2   :     0.000000
      dxy     :     0.000000
      f0      :    -0.000026  f :    -0.000024
      f+1     :     0.000001
      f-1     :     0.000001
      f+2     :     0.000000
      f-2     :     0.000000
      f+3     :     0.000000
      f-3     :     0.000000


                      *****************************
                      * MAYER POPULATION ANALYSIS *
                      *****************************

  NA   - Mulliken gross atomic population
  ZA   - Total nuclear charge
  QA   - Mulliken gross atomic charge
  VA   - Mayer's total valence
  BVA  - Mayer's bonded valence
  FA   - Mayer's free valence

  ATOM       NA         ZA         QA         VA         BVA        FA
  0 V     22.2820    23.0000     0.7180     4.5595     0.8253     3.7342
  1 C      5.6547     6.0000     0.3453     3.1890     3.1824     0.0065
  2 O      8.0633     8.0000    -0.0633     2.4688     2.4642     0.0047

  Mayer bond orders larger than 0.100000
B(  0-V ,  1-C ) :   0.7718 B(  1-C ,  2-O ) :   2.4107 

-------
TIMINGS
-------

Total SCF time: 0 days 0 hours 3 min 11 sec 

Total time                  ....     191.432 sec
Sum of individual times     ....     187.192 sec  ( 97.8%)

Fock matrix formation       ....     175.334 sec  ( 91.6%)
  XC integration            ....     169.375 sec  ( 96.6% of F)
    Basis function eval.    ....       0.048 sec  (  0.0% of XC)
    Density eval.           ....       0.134 sec  (  0.1% of XC)
    XC-Functional eval.     ....       0.033 sec  (  0.0% of XC)
    XC-Potential eval.      ....       0.331 sec  (  0.2% of XC)
Diagonalization             ....       3.738 sec  (  2.0%)
Density matrix formation    ....       0.030 sec  (  0.0%)
Population analysis         ....       0.822 sec  (  0.4%)
Initial guess               ....       1.455 sec  (  0.8%)
Orbital Transformation      ....       0.000 sec  (  0.0%)
Orbital Orthonormalization  ....       0.000 sec  (  0.0%)
DIIS solution               ....       0.181 sec  (  0.1%)
Grid generation             ....       5.632 sec  (  2.9%)

-------------------------   --------------------
FINAL SINGLE POINT ENERGY     -1056.977472978894
-------------------------   --------------------


----------------------------------------------------------------------------
                           ORCA NUMERICAL GRADIENT
                              (28-process run)
----------------------------------------------------------------------------

I state                        ... 1
J state                        ... 0
Number of atoms                ... 3
Derivative's order of accuracy ... 2
Central differences            ... used
Number of displacements        ... 18
Numerical increment            ... 5.000e-03 bohr
Translation invariance         ... used

The output will be reduced. Please look at the following files:
SCF program output             ... >VCO+.lastscf
Integral program output        ... >VCO+.lastint
Gradient program output        ... >VCO+.lastgrad


     Note:   There are more processes than displacements to do
     ===>:   Reducing number of processes to   6

             <<<Displacing   3/coordinate 1 (+)>>>
             <<<Displacing   3/coordinate 2 (+)>>>
             <<<Displacing   2/coordinate 3 (+)>>>
             <<<Displacing   2/coordinate 1 (+)>>>
             <<<Displacing   3/coordinate 3 (+)>>>
             <<<Displacing   2/coordinate 2 (+)>>>
             <<<Displacing   2/coordinate 1 (-)>>>
             <<<Displacing   3/coordinate 2 (-)>>>
             <<<Displacing   3/coordinate 1 (-)>>>
             <<<Displacing   2/coordinate 2 (-)>>>
             <<<Displacing   3/coordinate 3 (-)>>>
             <<<Displacing   2/coordinate 3 (-)>>>

------------------------------
CARTESIAN GRADIENT (NUMERICAL)
-------------------------------
   1   V   :   -0.000000782   -0.000000340    0.003827841
   2   C   :    0.000001295    0.000000883   -0.006936747
   3   O   :   -0.000000513   -0.000000543    0.003108906

Norm of the cartesian gradient     ...    0.008510942
RMS gradient                       ...    0.002836981
MAX gradient                       ...    0.006936747

-------
TIMINGS
-------

Total numerical gradient time      ...      115.267 sec


                            ***************************************
                            *     ORCA property calculations      *
                            ***************************************

                                    ---------------------
                                    Active property flags
                                    ---------------------
   (+) Dipole Moment


------------------------------------------------------------------------------
                       ORCA ELECTRIC PROPERTIES CALCULATION
------------------------------------------------------------------------------

Dipole Moment Calculation                       ... on
Quadrupole Moment Calculation                   ... off
Polarizability Calculation                      ... off
GBWName                                         ... VCO+.gbw
Electron density file                           ... VCO+.scfp
The origin for moment calculation is the CENTER OF MASS  = ( 0.000000,  0.000000  1.845777)

-------------
DIPOLE MOMENT
-------------
                                X             Y             Z
Electronic contribution:     -0.00000      -0.00000      -6.21862
Nuclear contribution   :      0.00000       0.00000       4.54939
                        -----------------------------------------
Total Dipole Moment    :     -0.00000      -0.00000      -1.66924
                        -----------------------------------------
Magnitude (a.u.)       :      1.66924
Magnitude (Debye)      :      4.24286



--------------------
Rotational spectrum 
--------------------
 
Rotational constants in cm-1:     0.000000     0.115787     0.115787 
Rotational constants in MHz :     0.000000  3471.204197  3471.204197 

 Dipole components along the rotational axes: 
x,y,z [a.u.] :    -1.669235    -0.000000    -0.000000 
x,y,z [Debye]:    -4.242859    -0.000000    -0.000000 

 

Timings for individual modules:

Sum of individual times         ...      314.164 sec (=   5.236 min)
GTO integral calculation        ...        6.521 sec (=   0.109 min)   2.1 %
SCF iterations                  ...      192.375 sec (=   3.206 min)  61.2 %
SCF Gradient evaluation         ...      115.267 sec (=   1.921 min)  36.7 %
                             ****ORCA TERMINATED NORMALLY****
TOTAL RUN TIME: 0 days 0 hours 6 minutes 6 seconds 313 msec
