
                                 *****************
                                 * O   R   C   A *
                                 *****************

           --- An Ab Initio, DFT and Semiempirical electronic structure package ---

                  #######################################################
                  #                        -***-                        #
                  #          Department of theory and spectroscopy      #
                  #               Directorship: Frank Neese             #
                  #        Max Planck Institute fuer Kohlenforschung    #
                  #                Kaiser Wilhelm Platz 1               #
                  #                 D-45470 Muelheim/Ruhr               #
                  #                      Germany                        #
                  #                                                     #
                  #                  All rights reserved                #
                  #                        -***-                        #
                  #######################################################


                         Program Version 4.2.0 -  RELEASE  -


 With contributions from (in alphabetic order):
   Daniel Aravena         : Magnetic Suceptibility
   Michael Atanasov       : Ab Initio Ligand Field Theory (pilot matlab implementation)
   Alexander A. Auer      : GIAO ZORA, VPT2
   Ute Becker             : Parallelization
   Giovanni Bistoni       : ED, misc. LED, open-shell LED, HFLED
   Martin Brehm           : Molecular dynamics
   Dmytro Bykov           : SCF Hessian
   Vijay G. Chilkuri      : MRCI spin determinant printing, contributions to CSF-ICE
   Dipayan Datta          : RHF DLPNO-CCSD density
   Achintya Kumar Dutta   : EOM-CC, STEOM-CC
   Dmitry Ganyushin       : Spin-Orbit,Spin-Spin,Magnetic field MRCI
   Miquel Garcia          : C-PCM Hessian, Gaussian charge scheme
   Yang Guo               : DLPNO-NEVPT2, CIM, IAO-localization
   Andreas Hansen         : Spin unrestricted coupled pair/coupled cluster methods
   Benjamin Helmich-Paris : CASSCF linear response (MC-RPA)
   Lee Huntington         : MR-EOM, pCC
   Robert Izsak           : Overlap fitted RIJCOSX, COSX-SCS-MP3, EOM
   Christian Kollmar      : KDIIS, OOCD, Brueckner-CCSD(T), CCSD density
   Simone Kossmann        : Meta GGA functionals, TD-DFT gradient, OOMP2, MP2 Hessian
   Martin Krupicka        : AUTO-CI
   Lucas Lang             : DCDCAS
   Dagmar Lenk            : GEPOL surface, SMD
   Dimitrios Liakos       : Extrapolation schemes; Compound Job, initial MDCI parallelization
   Dimitrios Manganas     : Further ROCIS development; embedding schemes
   Dimitrios Pantazis     : SARC Basis sets
   Taras Petrenko         : DFT Hessian,TD-DFT gradient, ASA, ECA, R-Raman, ABS, FL, XAS/XES, NRVS
   Peter Pinski           : DLPNO-MP2, DLPNO-MP2 Gradient
   Christoph Reimann      : Effective Core Potentials
   Marius Retegan         : Local ZFS, SOC
   Christoph Riplinger    : Optimizer, TS searches, QM/MM, DLPNO-CCSD(T), (RO)-DLPNO pert. Triples
   Tobias Risthaus        : Range-separated hybrids, TD-DFT gradient, RPA, STAB
   Michael Roemelt        : Original ROCIS implementation
   Masaaki Saitow         : Open-shell DLPNO-CCSD energy and density
   Barbara Sandhoefer     : DKH picture change effects
   Avijit Sen             : IP-ROCIS
   Kantharuban Sivalingam : CASSCF convergence, NEVPT2, FIC-MRCI
   Bernardo de Souza      : ESD, SOC TD-DFT
   Georgi Stoychev        : AutoAux, RI-MP2 NMR
   Willem Van den Heuvel  : Paramagnetic NMR
   Boris Wezisla          : Elementary symmetry handling
   Frank Wennmohs         : Technical directorship


 We gratefully acknowledge several colleagues who have allowed us to
 interface, adapt or use parts of their codes:
   Stefan Grimme, W. Hujo, H. Kruse,             : VdW corrections, initial TS optimization,
                  C. Bannwarth                     DFT functionals, gCP, sTDA/sTD-DF
   Ed Valeev, F. Pavosevic, A. Kumar             : LibInt (2-el integral package), F12 methods
   Garnet Chan, S. Sharma, J. Yang, R. Olivares  : DMRG
   Ulf Ekstrom                                   : XCFun DFT Library
   Mihaly Kallay                                 : mrcc  (arbitrary order and MRCC methods)
   Andreas Klamt, Michael Diedenhofen            : otool_cosmo (COSMO solvation model)
   Jiri Pittner, Ondrej Demel                    : Mk-CCSD
   Frank Weinhold                                : gennbo (NPA and NBO analysis)
   Christopher J. Cramer and Donald G. Truhlar   : smd solvation model
   Lars Goerigk                                  : TD-DFT with DH, B97 family of functionals
   V. Asgeirsson, H. Jonsson                     : NEB implementation
   FAccTs GmbH                                   : IRC, NEB, NEB-TS, Multilevel, MM, QM/MM, CI optimization
   S Lehtola, MJT Oliveira, MAL Marques          : LibXC Library


 Your calculation uses the libint2 library for the computation of 2-el integrals
 For citations please refer to: http://libint.valeyev.net

 Your ORCA version has been built with support for libXC version: 4.2.3
 For citations please refer to: https://tddft.org/programs/libxc/

 This ORCA versions uses:
   CBLAS   interface :  Fast vector & matrix operations
   LAPACKE interface :  Fast linear algebra routines
   SCALAPACK package :  Parallel linear algebra routines


Your calculation utilizes the DFT-NL dispersion correction.
Cite in your paper:
Vydrov, O. A.; Van Voorhis, T. J. Chem. Phys. 2010, 133, 244103
Hujo, W.; Grimme, S. J. Chem. Theory Comput. 2011, 7, 3866 
   

----- Orbital basis set information -----
Your calculation utilizes the basis: def2-TZVPPD
   F. Weigend and R. Ahlrichs, Phys. Chem. Chem. Phys. 7, 3297 (2005).
   D. Rappoport and F. Furche, J. Chem. Phys. 133 134105 (2010).

----- AuxJK basis set information -----
Your calculation utilizes the auxiliary basis: def2/JK
   H-Ba, Hf-Rn: F. Weigend, J. Comput. Chem. 29, 167 (2008).

cite the ECPs for Zr [Def2-ECP] as follows:
Ce-Yb(ecp-28): M. Dolg, H. Stoll, H.Preuss, J. Chem. Phys., 1989, 90, 1730-1734.
Y-Cd(ecp-28), Hf-Hg(ecp-46): D. Andrae,U. Haeussermann, M. Dolg, H. Stoll, H. Preuss, Theor. Chim. Acta, 1990, 77, 123-141.
In-Sb(ecp-28), Tl-Bi(ecp-46): B. Metz, H. Stoll, M. Dolg, J. Chem. Phys., 2000, 113, 2563-2569.
Te-Xe(ecp-28), Po-Rn(ecp-46): K. A. Peterson, D. Figgen, E. Goll, H. Stoll, M. Dolg, J. Chem. Phys., 2003, 119, 11113-11123.
Rb(ecp-28), Cs(ecp-46): T. Leininger, A. Nicklass, W. Kuechle, H. Stoll, M. Dolg, A. Bergner, Chem. Phys. Lett., 1996, 255, 274-280.
Sr(ecp-28), Ba(ecp-46): M. Kaupp, P. V. Schleyer, H. Stoll and H. Preuss, J. Chem. Phys., 1991, 94, 1360-1366.
La(ecp-46): M. Dolg, H. Stoll, A. Savin, H. Preuss, Theor. Chim. Acta, 1989, 75, 173-194.
Lu(ecp-28): X. Cao, M. Dolg, J. Chem. Phys., 2001, 115, 7348-7355.

ECP parameters for Zr [Def2-ECP] have been obtained from:
TURBOMOLE (7.0.2)

================================================================================
                                        WARNINGS
                       Please study these warnings very carefully!
================================================================================

INFO   : Found keyword 'NumGrad' for Energy calculation
  ===> : Setting RunTyp to EnGrad

WARNING: Numerical Gradient with sloppy Convergence Criteria    
         Your results may be not reliable!                      
         Please choose at least TightSCF!                       

WARNING: your system is open-shell and RHF/RKS was chosen
  ===> : WILL SWITCH to UHF/UKS


INFO   : the flag for use of LIBINT has been found!

================================================================================
                                       INPUT FILE
================================================================================
NAME = Zr.in
|  1> #
|  2> # Zr wB97M-V/Def2-TZVPPD
|  3> #
|  4> ! wb97m-v def2-tzvppd def2/jk grid4 nofinalgrid numgrad
|  5> 
|  6> *xyz 0 3
|  7> Zr         0.00000        0.00000        0.00000
|  8> *
|  9> 
| 10> %maxcore 5000
| 11> 
| 12> %pal
| 13> nprocs = 28
| 14> end
| 15> 
| 16> 
| 17>                          ****END OF INPUT****
================================================================================

                     *******************************
                     * Energy+Gradient Calculation *
                     *******************************

---------------------------------
CARTESIAN COORDINATES (ANGSTROEM)
---------------------------------
  Zr     0.000000    0.000000    0.000000

----------------------------
CARTESIAN COORDINATES (A.U.)
----------------------------
  NO LB      ZA    FRAG     MASS         X           Y           Z
   0 Zr   12.0000*   0    91.220    0.000000    0.000000    0.000000
* core charge reduced due to ECP

--------------------------------
INTERNAL COORDINATES (ANGSTROEM)
--------------------------------
 Zr     0   0   0     0.000000000000     0.00000000     0.00000000

---------------------------
INTERNAL COORDINATES (A.U.)
---------------------------
 Zr     0   0   0     0.000000000000     0.00000000     0.00000000

---------------------
BASIS SET INFORMATION
---------------------
There are 1 groups of distinct atoms

 Group   1 Type Zr  : 7s7p5d2f1g contracted to 6s4p3d2f1g pattern {211111/4111/311/11/1}

Atom   0Zr   basis set group =>   1
----------------------------------
AUXILIARY/JK BASIS SET INFORMATION
----------------------------------
There are 1 groups of distinct atoms

 Group   1 Type Zr  : 13s12p10d9f6g3h2i contracted to 11s10p9d8f6g3h2i pattern {31111111111/3111111111/211111111/21111111/111111/111/11}

Atom   0Zr   basis set group =>   1
-------------------------
ECP PARAMETER INFORMATION
-------------------------

 Group 1, Type Zr ECP Def2-ECP (replacing 28 core electrons, lmax=3)

Atom   0Zr   ECP group =>   1



           ************************************************************
           *        Program running with 28 parallel MPI-processes    *
           *              working on a common directory               *
           ************************************************************
------------------------------------------------------------------------------
                           ORCA GTO INTEGRAL CALCULATION
------------------------------------------------------------------------------

                         BASIS SET STATISTICS AND STARTUP INFO

 # of primitive gaussian shells          ...   22
 # of primitive gaussian functions       ...   76
 # of contracted shells                  ...   16
 # of contracted basis functions         ...   56
 Highest angular momentum                ...    4
 Maximum contraction depth               ...    4
 Integral package used                   ... LIBINT
 Integral threshhold            Thresh   ...  1.000e-10
 Primitive cut-off              TCut     ...  1.000e-11


------------------------------ INTEGRAL EVALUATION ----------------------------


 * One electron integrals 

   ECP integrals                         ... done
 Pre-screening matrix                    ... done
 Shell pair data                         ... done (   0.000 sec)



           ************************************************************
           *        Program running with 28 parallel MPI-processes    *
           *              working on a common directory               *
           ************************************************************
-------------------------------------------------------------------------------
                                 ORCA SCF
-------------------------------------------------------------------------------

------------
SCF SETTINGS
------------
Hamiltonian:
 Density Functional     Method          .... DFT(GTOs)
 Exchange Functional    Exchange        .... WB97M-V
 Correlation Functional Correlation     .... WB97M-V
 Gradients option       PostSCFGGA      .... off
 Hybrid DFT is turned on
   Fraction HF Exchange ScalHFX         ....  0.150000
   Scaling of DF-GGA-X  ScalDFX         ....  0.000000
   Scaling of DF-GGA-C  ScalDFC         ....  1.000000
   Scaling of DF-LDA-C  ScalLDAC        ....  1.000000
   Perturbative correction              ....  0.000000
   Density functional embedding theory  .... OFF
 Long-range corrected/Screened/Range-Separated Hybrid DFT is turned on
   Amount of maximum screened exact exchange              ....  0.850000
   Range separation parameter mu (erf(mu*r12)/r12)        ....  0.300000
   NL short-range parameter             ....  6.000000
   NL long-range parameter              ....  0.010000


General Settings:
 Integral files         IntName         .... Zr
 Hartree-Fock type      HFTyp           .... UHF
 Total Charge           Charge          ....    0
 Multiplicity           Mult            ....    3
 Number of Electrons    NEL             ....   12
 Basis Dimension        Dim             ....   56
 Nuclear Repulsion      ENuc            ....      0.0000000000 Eh

Convergence Acceleration:
 DIIS                   CNVDIIS         .... on
   Start iteration      DIISMaxIt       ....    12
   Startup error        DIISStart       ....  0.200000
   # of expansion vecs  DIISMaxEq       ....     5
   Bias factor          DIISBfac        ....   1.050
   Max. coefficient     DIISMaxC        ....  10.000
 Newton-Raphson         CNVNR           .... off
 SOSCF                  CNVSOSCF        .... off
 Level Shifting         CNVShift        .... on
   Level shift para.    LevelShift      ....    0.2500
   Turn off err/grad.   ShiftErr        ....    0.0010
 Zerner damping         CNVZerner       .... off
 Static damping         CNVDamp         .... on
   Fraction old density DampFac         ....    0.7000
   Max. Damping (<1)    DampMax         ....    0.9800
   Min. Damping (>=0)   DampMin         ....    0.0000
   Turn off err/grad.   DampErr         ....    0.1000
 Fernandez-Rico         CNVRico         .... off

SCF Procedure:
 Maximum # iterations   MaxIter         ....   125
 SCF integral mode      SCFMode         .... Direct
   Integral package                     .... LIBINT
 Reset frequency        DirectResetFreq ....    20
 Integral Threshold     Thresh          ....  1.000e-10 Eh
 Primitive CutOff       TCut            ....  1.000e-11 Eh

Convergence Tolerance:
 Convergence Check Mode ConvCheckMode   .... Total+1el-Energy
 Convergence forced     ConvForced      .... 0
 Energy Change          TolE            ....  1.000e-06 Eh
 1-El. energy change                    ....  1.000e-03 Eh
 DIIS Error             TolErr          ....  1.000e-06


Diagonalization of the overlap matrix:
Smallest eigenvalue                        ... 2.006e-02
Time for diagonalization                   ...    0.001 sec
Threshold for overlap eigenvalues          ... 1.000e-08
Number of eigenvalues below threshold      ... 0
Time for construction of square roots      ...    0.150 sec
Total time needed                          ...    0.151 sec

-------------------
DFT GRID GENERATION
-------------------

General Integration Accuracy     IntAcc      ...  4.670
Radial Grid Type                 RadialGrid  ... Gauss-Chebyshev
Angular Grid (max. acc.)         AngularGrid ... Lebedev-302
Angular grid pruning method      GridPruning ... 3 (G Style)
Weight generation scheme         WeightScheme... Becke
Basis function cutoff            BFCut       ...    1.0000e-10
Integration weight cutoff        WCut        ...    1.0000e-14
Grids for H and He will be reduced by one unit

# of grid points (after initial pruning)     ...  10682 (   0.0 sec)
# of grid points (after weights+screening)   ...  10682 (   0.0 sec)
Grid point division into batches done        ...    0.1 sec
Reduced shell lists constructed in    0.1 sec

Total number of grid points                  ...    10682
Total number of batches                      ...      167
Average number of points per batch           ...       63
Average number of grid points per atom       ...    10682
Average number of shells per batch           ...     1.71 (10.71%)
Average number of basis functions per batch  ...     3.43 ( 6.12%)
Average number of large shells per batch     ...     1.71 (100.00%)
Average number of large basis fcns per batch ...     3.43 (100.00%)
Maximum spatial batch extension              ...  28.90, 28.90, 28.90 au
Average spatial batch extension              ...   0.91,  0.91,  0.88 au

Time for grid setup =    2.366 sec

------------------------------
INITIAL GUESS: MODEL POTENTIAL
------------------------------
Loading Hartree-Fock densities                     ... done
  calling /mnt/storage/software/apps/orca-4.2.0/orca_4_2_0_linux_x86-64_openmpi314/orca Zr_atom40.inp > Zr_atom40.out in order to generate an atomic fitting density for atom 0 (Zr with ECP) on-the-fly... 
    atom 0 (Zr), assumed electronic state with S=3: 1s2 2s2 2p6 3s2 3p6 4s2 3d10 4p6 4d2 5s2           ... done
Calculating cut-offs                               ... done
Setting up the integral package                    ... done
Initializing the effective Hamiltonian             ... done
Starting the Coulomb interaction                   ... done (   0.0 sec)
Reading the grid                                   ... done
Mapping shells                                     ... done
Starting the XC term evaluation                    ... done (   0.0 sec)
  promolecular density results
     # of electrons  =     40.000376052
     EX              =   -110.030627997
     EC              =     -1.969897395
     EX+EC           =   -112.000525392
Transforming the Hamiltonian                       ... done (   0.1 sec)
Diagonalizing the Hamiltonian                      ... done (   0.0 sec)
Back transforming the eigenvectors                 ... done (   0.0 sec)
Now organizing SCF variables                       ... done
                      ------------------
                      INITIAL GUESS DONE (  19.6 sec)
                      ------------------
--------------
SCF ITERATIONS
--------------
ITER       Energy         Delta-E        Max-DP      RMS-DP      [F,P]     Damp
               ***  Starting incremental Fock matrix formation  ***
  0    -46.2834770451   0.000000000000 0.09658926  0.00395336  0.4995273 0.7000
  1    -46.4461667707  -0.162689725583 0.07532105  0.00294805  0.3275185 0.7000
  2    -46.5396356180  -0.093468847273 0.04960523  0.00180928  0.2088551 0.7000
                               ***Turning on DIIS***
  3    -46.5943523882  -0.054716770227 0.03004035  0.00103660  0.1342489 0.7000
  4    -46.6306369816  -0.036284593436 0.05183150  0.00192545  0.0880511 0.0000
  5    -46.7181237996  -0.087486817962 0.00928776  0.00048750  0.0105284 0.0000
  6    -46.7203565112  -0.002232711610 0.01184154  0.00044869  0.0133089 0.0000
  7    -46.7224940018  -0.002137490636 0.01315876  0.00031599  0.0158651 0.0000
  8    -46.7234479238  -0.000953921936 0.01223751  0.00032892  0.0168514 0.0000
  9    -46.7238893406  -0.000441416883 0.01108514  0.00029849  0.0171400 0.0000
 10    -46.7245429963  -0.000653655668 0.01075372  0.00029684  0.0176290 0.0000
 11    -46.7254955574  -0.000952561062 0.00986138  0.00041623  0.0182909 0.0000
 12    -46.7279268927  -0.002431335326 0.01000032  0.00028167  0.0202837 0.0000
 13    -46.7292151912  -0.001288298481 0.00710560  0.00017533  0.0212745 0.0000
 14    -46.7297430766  -0.000527885410 0.00448388  0.00012272  0.0215281 0.0000
 15    -46.7303969818  -0.000653905227 0.00354940  0.00011039  0.0219189 0.0000
 16    -46.7310628463  -0.000665864435 0.01124132  0.00042010  0.0223765 0.0000
 17    -46.7337374462  -0.002674599994 0.01729509  0.00062313  0.0245309 0.0000
 18    -46.7379642601  -0.004226813836 0.01648404  0.00042698  0.0274240 0.0000
 19    -46.7409617910  -0.002997530887 0.01613415  0.00049288  0.0290112 0.0000
               *** Restarting incremental Fock matrix formation ***
                                   *** Resetting DIIS ***
 20    -46.7400802978   0.000881493162 0.02927466  0.00107766  0.0280722 0.0000
 21    -46.7479814118  -0.007901114029 0.02454973  0.00082047  0.0321700 0.0000
 22    -46.7547359367  -0.006754524900 0.03401981  0.00079665  0.0344496 0.0000
 23    -46.7537127420   0.001023194710 0.02239957  0.00044206  0.0332056 0.0000
 24    -46.7536542208   0.000058521223 0.01468337  0.00026316  0.0327793 0.0000
 25    -46.7538817235  -0.000227502667 0.03697749  0.00114510  0.0326139 0.0000
 26    -46.7627582822  -0.008876558710 0.02585105  0.00081940  0.0359088 0.0000
 27    -46.7698248551  -0.007066572915 0.02682657  0.00077773  0.0380014 0.0000
 28    -46.7767926917  -0.006967836584 0.03333702  0.00074950  0.0402356 0.0000
 29    -46.7833028183  -0.006510126646 0.05030131  0.00085687  0.0414722 0.0000
 30    -46.7872037339  -0.003900915617 0.04232533  0.00078261  0.0413484 0.0000
 31    -46.7917405643  -0.004536830396 0.05194129  0.00136681  0.0408858 0.0000
 32    -46.8005903550  -0.008849790638 0.15457457  0.00328315  0.0392438 0.0000
 33    -46.8152954511  -0.014705096109 0.15514637  0.00285881  0.0348173 0.0000
 34    -46.8248285820  -0.009533130916 0.08778737  0.00190384  0.0291650 0.0000
 35    -46.8322324047  -0.007403822694 0.08106912  0.00217258  0.0244080 0.0000
 36    -46.8391351526  -0.006902747863 0.06169248  0.00133877  0.0205638 0.0000
 37    -46.8434421327  -0.004306980128 0.08623853  0.00169718  0.0165272 0.0000
 38    -46.8479395431  -0.004497410458 0.08722709  0.00164489  0.0130489 0.0000
 39    -46.8522978981  -0.004358354921 0.09634495  0.00184059  0.0097228 0.0000
               *** Restarting incremental Fock matrix formation ***
                                   *** Resetting DIIS ***
 40    -46.8567420827  -0.004444184588 0.01248913  0.00043411  0.0087516 0.0000
 41    -46.8578832246  -0.001141141928 0.00812892  0.00033722  0.0079345 0.0000
 42    -46.8587802358  -0.000897011249 0.01710953  0.00051729  0.0074668 0.0000
 43    -46.8600585807  -0.001278344847 0.03902113  0.00103000  0.0066154 0.0000
 44    -46.8621782413  -0.002119660619 0.02846304  0.00082001  0.0048639 0.0000
 45    -46.8635436206  -0.001365379337 0.01268699  0.00046058  0.0039521 0.0000
 46    -46.8641734252  -0.000629804525 0.01849150  0.00067261  0.0031482 0.0000
 47    -46.8648872991  -0.000713873912 0.01047399  0.00035748  0.0023154 0.0000
 48    -46.8651954972  -0.000308198113 0.00905028  0.00032016  0.0017710 0.0000
 49    -46.8654181294  -0.000222632203 0.00676871  0.00025924  0.0015317 0.0000
 50    -46.8655685885  -0.000150459125 0.00505255  0.00021410  0.0013663 0.0000
 51    -46.8656775903  -0.000109001748 0.00468580  0.00021247  0.0012577 0.0000
 52    -46.8657732210  -0.000095630743 0.00456494  0.00019480  0.0011737 0.0000
 53    -46.8658512069  -0.000077985856 0.00436089  0.00017391  0.0010914 0.0000
 54    -46.8659144533  -0.000063246445 0.00455349  0.00017110  0.0010103 0.0000
 55    -46.8659720425  -0.000057589225 0.00781786  0.00028925  0.0009287 0.0000
 56    -46.8660609449  -0.000088902331 0.00571026  0.00021080  0.0006910 0.0000
 57    -46.8661132590  -0.000052314097 0.00721553  0.00026253  0.0005814 0.0000
 58    -46.8661724465  -0.000059187588 0.01004998  0.00037860  0.0004385 0.0000
 59    -46.8662373774  -0.000064930869 0.00642510  0.00026358  0.0003589 0.0000
               *** Restarting incremental Fock matrix formation ***
                                   *** Resetting DIIS ***
 60    -46.8662709696  -0.000033592153 0.00107056  0.00003636  0.0002451 0.0000
 61    -46.8662780740  -0.000007104454 0.00191110  0.00006437  0.0002173 0.0000
 62    -46.8662881186  -0.000010044564 0.00462327  0.00015545  0.0001889 0.0000
 63    -46.8663022173  -0.000014098714 0.00259522  0.00008828  0.0001348 0.0000
 64    -46.8663037189  -0.000001501583 0.00063209  0.00002320  0.0001111 0.0000
                 **** Energy Check signals convergence ****

               *****************************************************
               *                     SUCCESS                       *
               *           SCF CONVERGED AFTER  65 CYCLES          *
               *****************************************************


Setting up the DFT-NL grid :

General Integration Accuracy     IntAcc      ...  4.340
Radial Grid Type                 RadialGrid  ... Gauss-Chebyshev
Angular Grid (max. acc.)         AngularGrid ... Lebedev-110
Angular grid pruning method      GridPruning ... 3 (G Style)
Weight generation scheme         WeightScheme... Becke
Basis function cutoff            BFCut       ...    1.0000e-10
Integration weight cutoff        WCut        ...    1.0000e-14
Grids for H and He will be reduced by one unit

# of grid points (after initial pruning)     ...   3280 (   0.0 sec)
# of grid points (after weights+screening)   ...   3280 (   0.0 sec)
Grid point division into batches done        ...    0.0 sec
Reduced shell lists constructed in    0.0 sec

Total number of grid points                  ...     3280
Total number of batches                      ...       52
Average number of points per batch           ...       63
Average number of grid points per atom       ...     3280
Average number of shells per batch           ...     4.67 (29.17%)
Average number of basis functions per batch  ...    16.67 (29.76%)
Average number of large shells per batch     ...     3.33 (71.43%)
Average number of large basis fcns per batch ...     8.67 (52.00%)
Maximum spatial batch extension              ...  23.83, 37.49, 37.49 au
Average spatial batch extension              ...   0.92,  1.44,  1.44 au

Final grid set up in    0.2 sec

-------------------------------------------------------------------------------
                         DFT-NL dispersion correction                          
-------------------------------------------------------------------------------

SC Energy -46.866303664 
NL    Energy 0.046307991 
SC+NL Energy -46.819995674 
NL done in    0.8 sec
-------------------------------------------------------------------------------

----------------
TOTAL SCF ENERGY
----------------

Total Energy       :          -46.81999567 Eh           -1274.03685 eV

Components:
Nuclear Repulsion  :            0.00000000 Eh               0.00000 eV
Electronic Energy  :          -46.81999567 Eh           -1274.03685 eV
One Electron Energy:          -77.88086400 Eh           -2119.24605 eV
Two Electron Energy:           31.06086833 Eh             845.20920 eV

Virial components:
Potential Energy   :          -62.09050740 Eh           -1689.56860 eV
Kinetic Energy     :           15.27051172 Eh             415.53175 eV
Virial Ratio       :            4.06603973


DFT components:
N(Alpha)           :        7.000000000609 electrons
N(Beta)            :        5.000000044717 electrons
N(Total)           :       12.000000045326 electrons
E(X)               :       -3.162683496403 Eh       
E(C)               :       -0.295948692892 Eh       
NL Energy, E(C,NL) :        0.046307990672 Eh       
E(XC)              :       -3.412324198623 Eh       
DFET-embed. en.    :        0.000000000000 Eh       

---------------
SCF CONVERGENCE
---------------

  Last Energy change         ...    5.4658e-08  Tolerance :   1.0000e-06
  Last MAX-Density change    ...    4.7818e-04  Tolerance :   1.0000e-05
  Last RMS-Density change    ...    1.6894e-05  Tolerance :   1.0000e-06
  Last DIIS Error            ...    9.7785e-05  Tolerance :   1.0000e-06

             **** THE GBW FILE WAS UPDATED (Zr.gbw) ****
             **** DENSITY FILE WAS UPDATED (Zr.scfp) ****
             **** ENERGY FILE WAS UPDATED (Zr.en.tmp) ****
----------------------
UHF SPIN CONTAMINATION
----------------------

Warning: in a DFT calculation there is little theoretical justification to 
         calculate <S**2> as in Hartree-Fock theory. We will do it anyways
         but you should keep in mind that the values have only limited relevance

Expectation value of <S**2>     :     2.002678
Ideal value S*(S+1) for S=1.0   :     2.000000
Deviation                       :     0.002678

             **** THE GBW FILE WAS UPDATED (Zr.gbw) ****
             **** DENSITY FILE WAS UPDATED (Zr.scfp) ****
----------------
ORBITAL ENERGIES
----------------
                 SPIN UP ORBITALS
  NO   OCC          E(Eh)            E(eV) 
   0   1.0000      -2.274790       -61.9002 
   1   1.0000      -1.403344       -38.1869 
   2   1.0000      -1.403287       -38.1854 
   3   1.0000      -1.403203       -38.1831 
   4   1.0000      -0.276559        -7.5256 
   5   1.0000      -0.276520        -7.5245 
   6   1.0000      -0.249926        -6.8008 
   7   0.0000       0.003469         0.0944 
   8   0.0000       0.003526         0.0959 
   9   0.0000       0.003535         0.0962 
  10   0.0000       0.005212         0.1418 
  11   0.0000       0.005456         0.1485 
  12   0.0000       0.005682         0.1546 
  13   0.0000       0.094388         2.5684 
  14   0.0000       0.148133         4.0309 
  15   0.0000       0.148188         4.0324 
  16   0.0000       0.148227         4.0335 
  17   0.0000       0.191434         5.2092 
  18   0.0000       0.191454         5.2097 
  19   0.0000       0.202791         5.5182 
  20   0.0000       0.202909         5.5214 
  21   0.0000       0.202989         5.5236 
  22   0.0000       0.518971        14.1219 
  23   0.0000       0.519071        14.1246 
  24   0.0000       0.519233        14.1290 
  25   0.0000       0.524582        14.2746 
  26   0.0000       0.524714        14.2782 
  27   0.0000       0.524847        14.2818 
  28   0.0000       0.534646        14.5485 
  29   0.0000       0.874059        23.7844 
  30   0.0000       0.874087        23.7851 
  31   0.0000       0.884412        24.0661 
  32   0.0000       0.884619        24.0717 
  33   0.0000       0.884792        24.0764 
  34   0.0000       1.004613        27.3369 
  35   0.0000       1.004673        27.3386 
  36   0.0000       1.004787        27.3417 
  37   0.0000       1.132231        30.8096 
  38   0.0000       1.199454        32.6388 
  39   0.0000       1.199573        32.6420 
  40   0.0000       1.199608        32.6430 
  41   0.0000       1.205119        32.7929 
  42   0.0000       1.206344        32.8263 
  43   0.0000       1.206348        32.8264 
  44   0.0000       1.208961        32.8975 
  45   0.0000       1.209136        32.9023 
  46   0.0000       1.209249        32.9053 
  47   0.0000       1.621658        44.1275 
  48   0.0000       1.621736        44.1297 
  49   0.0000       1.621845        44.1327 
  50   0.0000       1.627819        44.2952 
  51   0.0000       1.627854        44.2962 
  52   0.0000       1.627914        44.2978 
  53   0.0000       1.646474        44.8028 
  54   0.0000      19.861953       540.4712 
  55   0.0000      72.405007      1970.2404 

                 SPIN DOWN ORBITALS
  NO   OCC          E(Eh)            E(eV) 
   0   1.0000      -2.239788       -60.9477 
   1   1.0000      -1.353829       -36.8396 
   2   1.0000      -1.353299       -36.8251 
   3   1.0000      -1.352694       -36.8087 
   4   1.0000      -0.233984        -6.3670 
   5   0.0000       0.009412         0.2561 
   6   0.0000       0.009499         0.2585 
   7   0.0000       0.009524         0.2592 
   8   0.0000       0.026442         0.7195 
   9   0.0000       0.026660         0.7254 
  10   0.0000       0.026873         0.7313 
  11   0.0000       0.034795         0.9468 
  12   0.0000       0.034816         0.9474 
  13   0.0000       0.104675         2.8483 
  14   0.0000       0.156085         4.2473 
  15   0.0000       0.156146         4.2489 
  16   0.0000       0.156229         4.2512 
  17   0.0000       0.209272         5.6946 
  18   0.0000       0.209379         5.6975 
  19   0.0000       0.209456         5.6996 
  20   0.0000       0.212458         5.7813 
  21   0.0000       0.212490         5.7821 
  22   0.0000       0.533825        14.5261 
  23   0.0000       0.534909        14.5556 
  24   0.0000       0.535066        14.5599 
  25   0.0000       0.535221        14.5641 
  26   0.0000       0.540927        14.7194 
  27   0.0000       0.541010        14.7216 
  28   0.0000       0.541150        14.7254 
  29   0.0000       0.896036        24.3824 
  30   0.0000       0.896230        24.3877 
  31   0.0000       0.896404        24.3924 
  32   0.0000       0.906457        24.6660 
  33   0.0000       0.906483        24.6667 
  34   0.0000       1.026489        27.9322 
  35   0.0000       1.026830        27.9415 
  36   0.0000       1.027240        27.9526 
  37   0.0000       1.166801        31.7503 
  38   0.0000       1.205965        32.8160 
  39   0.0000       1.206075        32.8190 
  40   0.0000       1.206220        32.8229 
  41   0.0000       1.213645        33.0250 
  42   0.0000       1.213760        33.0281 
  43   0.0000       1.214247        33.0413 
  44   0.0000       1.214273        33.0421 
  45   0.0000       1.214375        33.0448 
  46   0.0000       1.224695        33.3256 
  47   0.0000       1.660640        45.1883 
  48   0.0000       1.671541        45.4849 
  49   0.0000       1.672096        45.5001 
  50   0.0000       1.672640        45.5149 
  51   0.0000       1.680670        45.7334 
  52   0.0000       1.680921        45.7402 
  53   0.0000       1.681167        45.7469 
  54   0.0000      19.879429       540.9468 
  55   0.0000      72.411596      1970.4197 

                    ********************************
                    * MULLIKEN POPULATION ANALYSIS *
                    ********************************

--------------------------------------------
MULLIKEN ATOMIC CHARGES AND SPIN POPULATIONS
--------------------------------------------
   0 Zr:   -0.000000    2.000000
Sum of atomic charges         :   -0.0000000
Sum of atomic spin populations:    2.0000000

-----------------------------------------------------
MULLIKEN REDUCED ORBITAL CHARGES AND SPIN POPULATIONS
-----------------------------------------------------
CHARGE
  0 Zrs       :     3.999902  s :     3.999902
      pz      :     1.999887  p :     5.999658
      px      :     1.999886
      py      :     1.999886
      dz2     :     0.315251  d :     2.000021
      dxz     :     0.690753
      dyz     :     0.206683
      dx2y2   :     0.394512
      dxy     :     0.392822
      f0      :     0.000025  f :     0.000342
      f+1     :     0.000067
      f-1     :     0.000054
      f+2     :     0.000047
      f-2     :     0.000052
      f+3     :     0.000069
      f-3     :     0.000028
      g0      :     0.000007  g :     0.000077
      g+1     :     0.000010
      g-1     :     0.000005
      g+2     :     0.000008
      g-2     :     0.000015
      g+3     :     0.000005
      g-3     :     0.000010
      g+4     :     0.000000
      g-4     :     0.000017

SPIN
  0 Zrs       :    -0.000009  s :    -0.000009
      pz      :    -0.000088  p :    -0.000272
      px      :    -0.000092
      py      :    -0.000092
      dz2     :     0.315213  d :     1.999973
      dxz     :     0.690753
      dyz     :     0.206678
      dx2y2   :     0.394508
      dxy     :     0.392821
      f0      :     0.000020  f :     0.000272
      f+1     :     0.000054
      f-1     :     0.000043
      f+2     :     0.000037
      f-2     :     0.000040
      f+3     :     0.000056
      f-3     :     0.000021
      g0      :     0.000007  g :     0.000036
      g+1     :     0.000006
      g-1     :     0.000001
      g+2     :     0.000001
      g-2     :     0.000003
      g+3     :     0.000002
      g-3     :     0.000010
      g+4     :     0.000000
      g-4     :     0.000007


                     *******************************
                     * LOEWDIN POPULATION ANALYSIS *
                     *******************************

-------------------------------------------
LOEWDIN ATOMIC CHARGES AND SPIN POPULATIONS
-------------------------------------------
   0 Zr:   -0.000000    2.000000

----------------------------------------------------
LOEWDIN REDUCED ORBITAL CHARGES AND SPIN POPULATIONS
----------------------------------------------------
CHARGE
  0 Zrs       :     3.999902  s :     3.999902
      pz      :     1.999887  p :     5.999658
      px      :     1.999886
      py      :     1.999886
      dz2     :     0.315251  d :     2.000021
      dxz     :     0.690753
      dyz     :     0.206683
      dx2y2   :     0.394512
      dxy     :     0.392822
      f0      :     0.000025  f :     0.000342
      f+1     :     0.000067
      f-1     :     0.000054
      f+2     :     0.000047
      f-2     :     0.000052
      f+3     :     0.000069
      f-3     :     0.000028
      g0      :     0.000007  g :     0.000077
      g+1     :     0.000010
      g-1     :     0.000005
      g+2     :     0.000008
      g-2     :     0.000015
      g+3     :     0.000005
      g-3     :     0.000010
      g+4     :     0.000000
      g-4     :     0.000017

SPIN
  0 Zrs       :    -0.000009  s :    -0.000009
      pz      :    -0.000088  p :    -0.000272
      px      :    -0.000092
      py      :    -0.000092
      dz2     :     0.315213  d :     1.999973
      dxz     :     0.690753
      dyz     :     0.206678
      dx2y2   :     0.394508
      dxy     :     0.392821
      f0      :     0.000020  f :     0.000272
      f+1     :     0.000054
      f-1     :     0.000043
      f+2     :     0.000037
      f-2     :     0.000040
      f+3     :     0.000056
      f-3     :     0.000021
      g0      :     0.000007  g :     0.000036
      g+1     :     0.000006
      g-1     :     0.000001
      g+2     :     0.000001
      g-2     :     0.000003
      g+3     :     0.000002
      g-3     :     0.000010
      g+4     :     0.000000
      g-4     :     0.000007


                      *****************************
                      * MAYER POPULATION ANALYSIS *
                      *****************************

  NA   - Mulliken gross atomic population
  ZA   - Total nuclear charge
  QA   - Mulliken gross atomic charge
  VA   - Mayer's total valence
  BVA  - Mayer's bonded valence
  FA   - Mayer's free valence

  ATOM       NA         ZA         QA         VA         BVA        FA
  0 Zr    12.0000    12.0000    -0.0000     2.0054     0.0000     2.0054

  Mayer bond orders larger than 0.100000


-------
TIMINGS
-------

Total SCF time: 0 days 0 hours 6 min 35 sec 

Total time                  ....     395.251 sec
Sum of individual times     ....     392.314 sec  ( 99.3%)

Fock matrix formation       ....     366.795 sec  ( 92.8%)
  XC integration            ....     347.983 sec  ( 94.9% of F)
    Basis function eval.    ....       0.035 sec  (  0.0% of XC)
    Density eval.           ....       0.107 sec  (  0.0% of XC)
    XC-Functional eval.     ....       0.094 sec  (  0.0% of XC)
    XC-Potential eval.      ....       0.150 sec  (  0.0% of XC)
Diagonalization             ....       4.942 sec  (  1.3%)
Density matrix formation    ....       0.128 sec  (  0.0%)
Population analysis         ....       0.093 sec  (  0.0%)
Initial guess               ....      17.214 sec  (  4.4%)
Orbital Transformation      ....       0.000 sec  (  0.0%)
Orbital Orthonormalization  ....       0.000 sec  (  0.0%)
DIIS solution               ....       0.587 sec  (  0.1%)
Grid generation             ....       2.556 sec  (  0.6%)

-------------------------   --------------------
FINAL SINGLE POINT ENERGY       -46.819995673551
-------------------------   --------------------


----------------------------------------------------------------------------
                           ORCA NUMERICAL GRADIENT
                              (28-process run)
----------------------------------------------------------------------------

I state                        ... 1
J state                        ... 0
Number of atoms                ... 1
Derivative's order of accuracy ... 2
Central differences            ... used
Number of displacements        ... 6
Numerical increment            ... 5.000e-03 bohr
Translation invariance         ... used

The output will be reduced. Please look at the following files:
SCF program output             ... >Zr.lastscf
Integral program output        ... >Zr.lastint
Gradient program output        ... >Zr.lastgrad


     Note:   There are more processes than displacements to do
     ===>:   Reducing number of processes to   0


------------------------------
CARTESIAN GRADIENT (NUMERICAL)
-------------------------------
   1   Zr  :    0.000000000    0.000000000    0.000000000

Norm of the cartesian gradient     ...    0.000000000
RMS gradient                       ...    0.000000000
MAX gradient                       ...    0.000000000
*** glibc detected *** /mnt/storage/software/apps/orca-4.2.0/orca_4_2_0_linux_x86-64_openmpi314/orca: free(): invalid next size (fast): 0x000000000e57d010 ***
======= Backtrace: =========
[0xb0928aa]
[0xb09567c]
[0x76d903]
[0x76fb95]
[0x915b4f]
[0x918f24]
[0x487649]
[0xb05c99e]
[0x4870d9]
======= Memory map: ========
00400000-0bf42000 r-xp 00000000 00:2b 4876154                            /mnt/storage/software/apps/orca-4.2.0/orca_4_2_0_linux_x86-64_openmpi314/orca
0c141000-0c203000 rw-p 0bb41000 00:2b 4876154                            /mnt/storage/software/apps/orca-4.2.0/orca_4_2_0_linux_x86-64_openmpi314/orca
0c203000-0c77a000 rw-p 00000000 00:00 0 
0e4da000-0e746000 rw-p 00000000 00:00 0                                  [heap]
2b46751bb000-2b46759bc000 rw-p 00000000 00:00 0 
2b46761bb000-2b467887e000 rw-p 00000000 00:00 0 
2b467c000000-2b467c0b3000 rw-p 00000000 00:00 0 
2b467c0b3000-2b4680000000 ---p 00000000 00:00 0 
7ffc7631d000-7ffc7641e000 rw-p 00000000 00:00 0                          [stack]
7ffc76433000-7ffc76435000 r-xp 00000000 00:00 0                          [vdso]
ffffffffff600000-ffffffffff601000 r-xp 00000000 00:00 0                  [vsyscall]
