
                                 *****************
                                 * O   R   C   A *
                                 *****************

           --- An Ab Initio, DFT and Semiempirical electronic structure package ---

                  #######################################################
                  #                        -***-                        #
                  #          Department of theory and spectroscopy      #
                  #               Directorship: Frank Neese             #
                  #        Max Planck Institute fuer Kohlenforschung    #
                  #                Kaiser Wilhelm Platz 1               #
                  #                 D-45470 Muelheim/Ruhr               #
                  #                      Germany                        #
                  #                                                     #
                  #                  All rights reserved                #
                  #                        -***-                        #
                  #######################################################


                         Program Version 4.2.0 -  RELEASE  -


 With contributions from (in alphabetic order):
   Daniel Aravena         : Magnetic Suceptibility
   Michael Atanasov       : Ab Initio Ligand Field Theory (pilot matlab implementation)
   Alexander A. Auer      : GIAO ZORA, VPT2
   Ute Becker             : Parallelization
   Giovanni Bistoni       : ED, misc. LED, open-shell LED, HFLED
   Martin Brehm           : Molecular dynamics
   Dmytro Bykov           : SCF Hessian
   Vijay G. Chilkuri      : MRCI spin determinant printing, contributions to CSF-ICE
   Dipayan Datta          : RHF DLPNO-CCSD density
   Achintya Kumar Dutta   : EOM-CC, STEOM-CC
   Dmitry Ganyushin       : Spin-Orbit,Spin-Spin,Magnetic field MRCI
   Miquel Garcia          : C-PCM Hessian, Gaussian charge scheme
   Yang Guo               : DLPNO-NEVPT2, CIM, IAO-localization
   Andreas Hansen         : Spin unrestricted coupled pair/coupled cluster methods
   Benjamin Helmich-Paris : CASSCF linear response (MC-RPA)
   Lee Huntington         : MR-EOM, pCC
   Robert Izsak           : Overlap fitted RIJCOSX, COSX-SCS-MP3, EOM
   Christian Kollmar      : KDIIS, OOCD, Brueckner-CCSD(T), CCSD density
   Simone Kossmann        : Meta GGA functionals, TD-DFT gradient, OOMP2, MP2 Hessian
   Martin Krupicka        : AUTO-CI
   Lucas Lang             : DCDCAS
   Dagmar Lenk            : GEPOL surface, SMD
   Dimitrios Liakos       : Extrapolation schemes; Compound Job, initial MDCI parallelization
   Dimitrios Manganas     : Further ROCIS development; embedding schemes
   Dimitrios Pantazis     : SARC Basis sets
   Taras Petrenko         : DFT Hessian,TD-DFT gradient, ASA, ECA, R-Raman, ABS, FL, XAS/XES, NRVS
   Peter Pinski           : DLPNO-MP2, DLPNO-MP2 Gradient
   Christoph Reimann      : Effective Core Potentials
   Marius Retegan         : Local ZFS, SOC
   Christoph Riplinger    : Optimizer, TS searches, QM/MM, DLPNO-CCSD(T), (RO)-DLPNO pert. Triples
   Tobias Risthaus        : Range-separated hybrids, TD-DFT gradient, RPA, STAB
   Michael Roemelt        : Original ROCIS implementation
   Masaaki Saitow         : Open-shell DLPNO-CCSD energy and density
   Barbara Sandhoefer     : DKH picture change effects
   Avijit Sen             : IP-ROCIS
   Kantharuban Sivalingam : CASSCF convergence, NEVPT2, FIC-MRCI
   Bernardo de Souza      : ESD, SOC TD-DFT
   Georgi Stoychev        : AutoAux, RI-MP2 NMR
   Willem Van den Heuvel  : Paramagnetic NMR
   Boris Wezisla          : Elementary symmetry handling
   Frank Wennmohs         : Technical directorship


 We gratefully acknowledge several colleagues who have allowed us to
 interface, adapt or use parts of their codes:
   Stefan Grimme, W. Hujo, H. Kruse,             : VdW corrections, initial TS optimization,
                  C. Bannwarth                     DFT functionals, gCP, sTDA/sTD-DF
   Ed Valeev, F. Pavosevic, A. Kumar             : LibInt (2-el integral package), F12 methods
   Garnet Chan, S. Sharma, J. Yang, R. Olivares  : DMRG
   Ulf Ekstrom                                   : XCFun DFT Library
   Mihaly Kallay                                 : mrcc  (arbitrary order and MRCC methods)
   Andreas Klamt, Michael Diedenhofen            : otool_cosmo (COSMO solvation model)
   Jiri Pittner, Ondrej Demel                    : Mk-CCSD
   Frank Weinhold                                : gennbo (NPA and NBO analysis)
   Christopher J. Cramer and Donald G. Truhlar   : smd solvation model
   Lars Goerigk                                  : TD-DFT with DH, B97 family of functionals
   V. Asgeirsson, H. Jonsson                     : NEB implementation
   FAccTs GmbH                                   : IRC, NEB, NEB-TS, Multilevel, MM, QM/MM, CI optimization
   S Lehtola, MJT Oliveira, MAL Marques          : LibXC Library


 Your calculation uses the libint2 library for the computation of 2-el integrals
 For citations please refer to: http://libint.valeyev.net

 Your ORCA version has been built with support for libXC version: 4.2.3
 For citations please refer to: https://tddft.org/programs/libxc/

 This ORCA versions uses:
   CBLAS   interface :  Fast vector & matrix operations
   LAPACKE interface :  Fast linear algebra routines
   SCALAPACK package :  Parallel linear algebra routines


Your calculation utilizes the DFT-NL dispersion correction.
Cite in your paper:
Vydrov, O. A.; Van Voorhis, T. J. Chem. Phys. 2010, 133, 244103
Hujo, W.; Grimme, S. J. Chem. Theory Comput. 2011, 7, 3866 
   

----- Orbital basis set information -----
Your calculation utilizes the basis: def2-TZVPPD
   F. Weigend and R. Ahlrichs, Phys. Chem. Chem. Phys. 7, 3297 (2005).
   D. Rappoport and F. Furche, J. Chem. Phys. 133 134105 (2010).

----- AuxJK basis set information -----
Your calculation utilizes the auxiliary basis: def2/JK
   H-Ba, Hf-Rn: F. Weigend, J. Comput. Chem. 29, 167 (2008).

cite the ECPs for Zr [Def2-ECP] as follows:
Ce-Yb(ecp-28): M. Dolg, H. Stoll, H.Preuss, J. Chem. Phys., 1989, 90, 1730-1734.
Y-Cd(ecp-28), Hf-Hg(ecp-46): D. Andrae,U. Haeussermann, M. Dolg, H. Stoll, H. Preuss, Theor. Chim. Acta, 1990, 77, 123-141.
In-Sb(ecp-28), Tl-Bi(ecp-46): B. Metz, H. Stoll, M. Dolg, J. Chem. Phys., 2000, 113, 2563-2569.
Te-Xe(ecp-28), Po-Rn(ecp-46): K. A. Peterson, D. Figgen, E. Goll, H. Stoll, M. Dolg, J. Chem. Phys., 2003, 119, 11113-11123.
Rb(ecp-28), Cs(ecp-46): T. Leininger, A. Nicklass, W. Kuechle, H. Stoll, M. Dolg, A. Bergner, Chem. Phys. Lett., 1996, 255, 274-280.
Sr(ecp-28), Ba(ecp-46): M. Kaupp, P. V. Schleyer, H. Stoll and H. Preuss, J. Chem. Phys., 1991, 94, 1360-1366.
La(ecp-46): M. Dolg, H. Stoll, A. Savin, H. Preuss, Theor. Chim. Acta, 1989, 75, 173-194.
Lu(ecp-28): X. Cao, M. Dolg, J. Chem. Phys., 2001, 115, 7348-7355.

ECP parameters for Zr [Def2-ECP] have been obtained from:
TURBOMOLE (7.0.2)

================================================================================
                                        WARNINGS
                       Please study these warnings very carefully!
================================================================================

INFO   : Found keyword 'NumGrad' for Energy calculation
  ===> : Setting RunTyp to EnGrad

WARNING: Numerical Gradient with sloppy Convergence Criteria    
         Your results may be not reliable!                      
         Please choose at least TightSCF!                       

WARNING: your system is open-shell and RHF/RKS was chosen
  ===> : WILL SWITCH to UHF/UKS


INFO   : the flag for use of LIBINT has been found!

================================================================================
                                       INPUT FILE
================================================================================
NAME = Zr2.in
|  1> #
|  2> # Zr2 wB97M-V/Def2-TZVPPD
|  3> #
|  4> ! wb97m-v def2-tzvppd def2/jk grid4 nofinalgrid numgrad
|  5> 
|  6> *xyz 0 3
|  7> Zr         0.00000        0.00000        0.00000
|  8> Zr         0.00000        0.00000        2.24000
|  9> *
| 10> 
| 11> %maxcore 5000
| 12> 
| 13> %pal
| 14> nprocs = 28
| 15> end
| 16> 
| 17> 
| 18>                          ****END OF INPUT****
================================================================================

                     *******************************
                     * Energy+Gradient Calculation *
                     *******************************

---------------------------------
CARTESIAN COORDINATES (ANGSTROEM)
---------------------------------
  Zr     0.000000    0.000000    0.000000
  Zr     0.000000    0.000000    2.240000

----------------------------
CARTESIAN COORDINATES (A.U.)
----------------------------
  NO LB      ZA    FRAG     MASS         X           Y           Z
   0 Zr   12.0000*   0    91.220    0.000000    0.000000    0.000000
   1 Zr   12.0000*   0    91.220    0.000000    0.000000    4.232987
* core charge reduced due to ECP

--------------------------------
INTERNAL COORDINATES (ANGSTROEM)
--------------------------------
 Zr     0   0   0     0.000000000000     0.00000000     0.00000000
 Zr     1   0   0     2.240000000000     0.00000000     0.00000000

---------------------------
INTERNAL COORDINATES (A.U.)
---------------------------
 Zr     0   0   0     0.000000000000     0.00000000     0.00000000
 Zr     1   0   0     4.232986539984     0.00000000     0.00000000

---------------------
BASIS SET INFORMATION
---------------------
There are 1 groups of distinct atoms

 Group   1 Type Zr  : 7s7p5d2f1g contracted to 6s4p3d2f1g pattern {211111/4111/311/11/1}

Atom   0Zr   basis set group =>   1
Atom   1Zr   basis set group =>   1
----------------------------------
AUXILIARY/JK BASIS SET INFORMATION
----------------------------------
There are 1 groups of distinct atoms

 Group   1 Type Zr  : 13s12p10d9f6g3h2i contracted to 11s10p9d8f6g3h2i pattern {31111111111/3111111111/211111111/21111111/111111/111/11}

Atom   0Zr   basis set group =>   1
Atom   1Zr   basis set group =>   1
-------------------------
ECP PARAMETER INFORMATION
-------------------------

 Group 1, Type Zr ECP Def2-ECP (replacing 28 core electrons, lmax=3)

Atom   0Zr   ECP group =>   1
Atom   1Zr   ECP group =>   1



           ************************************************************
           *        Program running with 28 parallel MPI-processes    *
           *              working on a common directory               *
           ************************************************************
------------------------------------------------------------------------------
                           ORCA GTO INTEGRAL CALCULATION
------------------------------------------------------------------------------

                         BASIS SET STATISTICS AND STARTUP INFO

 # of primitive gaussian shells          ...   44
 # of primitive gaussian functions       ...  152
 # of contracted shells                  ...   32
 # of contracted basis functions         ...  112
 Highest angular momentum                ...    4
 Maximum contraction depth               ...    4
 Integral package used                   ... LIBINT
 Integral threshhold            Thresh   ...  1.000e-10
 Primitive cut-off              TCut     ...  1.000e-11


------------------------------ INTEGRAL EVALUATION ----------------------------


 * One electron integrals 

   ECP integrals                         ... done
 Pre-screening matrix                    ... done
 Shell pair data                         ... done (   0.000 sec)



           ************************************************************
           *        Program running with 28 parallel MPI-processes    *
           *              working on a common directory               *
           ************************************************************
-------------------------------------------------------------------------------
                                 ORCA SCF
-------------------------------------------------------------------------------

------------
SCF SETTINGS
------------
Hamiltonian:
 Density Functional     Method          .... DFT(GTOs)
 Exchange Functional    Exchange        .... WB97M-V
 Correlation Functional Correlation     .... WB97M-V
 Gradients option       PostSCFGGA      .... off
 Hybrid DFT is turned on
   Fraction HF Exchange ScalHFX         ....  0.150000
   Scaling of DF-GGA-X  ScalDFX         ....  0.000000
   Scaling of DF-GGA-C  ScalDFC         ....  1.000000
   Scaling of DF-LDA-C  ScalLDAC        ....  1.000000
   Perturbative correction              ....  0.000000
   Density functional embedding theory  .... OFF
 Long-range corrected/Screened/Range-Separated Hybrid DFT is turned on
   Amount of maximum screened exact exchange              ....  0.850000
   Range separation parameter mu (erf(mu*r12)/r12)        ....  0.300000
   NL short-range parameter             ....  6.000000
   NL long-range parameter              ....  0.010000


General Settings:
 Integral files         IntName         .... Zr2
 Hartree-Fock type      HFTyp           .... UHF
 Total Charge           Charge          ....    0
 Multiplicity           Mult            ....    3
 Number of Electrons    NEL             ....   24
 Basis Dimension        Dim             ....  112
 Nuclear Repulsion      ENuc            ....     34.0185348193 Eh

Convergence Acceleration:
 DIIS                   CNVDIIS         .... on
   Start iteration      DIISMaxIt       ....    12
   Startup error        DIISStart       ....  0.200000
   # of expansion vecs  DIISMaxEq       ....     5
   Bias factor          DIISBfac        ....   1.050
   Max. coefficient     DIISMaxC        ....  10.000
 Newton-Raphson         CNVNR           .... off
 SOSCF                  CNVSOSCF        .... off
 Level Shifting         CNVShift        .... on
   Level shift para.    LevelShift      ....    0.2500
   Turn off err/grad.   ShiftErr        ....    0.0010
 Zerner damping         CNVZerner       .... off
 Static damping         CNVDamp         .... on
   Fraction old density DampFac         ....    0.7000
   Max. Damping (<1)    DampMax         ....    0.9800
   Min. Damping (>=0)   DampMin         ....    0.0000
   Turn off err/grad.   DampErr         ....    0.1000
 Fernandez-Rico         CNVRico         .... off

SCF Procedure:
 Maximum # iterations   MaxIter         ....   125
 SCF integral mode      SCFMode         .... Direct
   Integral package                     .... LIBINT
 Reset frequency        DirectResetFreq ....    20
 Integral Threshold     Thresh          ....  1.000e-10 Eh
 Primitive CutOff       TCut            ....  1.000e-11 Eh

Convergence Tolerance:
 Convergence Check Mode ConvCheckMode   .... Total+1el-Energy
 Convergence forced     ConvForced      .... 0
 Energy Change          TolE            ....  1.000e-06 Eh
 1-El. energy change                    ....  1.000e-03 Eh
 DIIS Error             TolErr          ....  1.000e-06


Diagonalization of the overlap matrix:
Smallest eigenvalue                        ... 1.502e-04
Time for diagonalization                   ...    0.002 sec
Threshold for overlap eigenvalues          ... 1.000e-08
Number of eigenvalues below threshold      ... 0
Time for construction of square roots      ...    0.230 sec
Total time needed                          ...    0.232 sec

-------------------
DFT GRID GENERATION
-------------------

General Integration Accuracy     IntAcc      ...  4.670
Radial Grid Type                 RadialGrid  ... Gauss-Chebyshev
Angular Grid (max. acc.)         AngularGrid ... Lebedev-302
Angular grid pruning method      GridPruning ... 3 (G Style)
Weight generation scheme         WeightScheme... Becke
Basis function cutoff            BFCut       ...    1.0000e-10
Integration weight cutoff        WCut        ...    1.0000e-14
Grids for H and He will be reduced by one unit

# of grid points (after initial pruning)     ...  21364 (   0.0 sec)
# of grid points (after weights+screening)   ...  21326 (   0.0 sec)
nearest neighbour list constructed           ...    0.0 sec
Grid point re-assignment to atoms done       ...    0.0 sec
Grid point division into batches done        ...    0.2 sec
Reduced shell lists constructed in    0.2 sec

Total number of grid points                  ...    21326
Total number of batches                      ...      334
Average number of points per batch           ...       63
Average number of grid points per atom       ...    10663
Average number of shells per batch           ...     3.15 ( 9.86%)
Average number of basis functions per batch  ...     7.15 ( 6.39%)
Average number of large shells per batch     ...     2.31 (73.17%)
Average number of large basis fcns per batch ...     5.08 (70.97%)
Maximum spatial batch extension              ...  31.14, 31.14, 19.99 au
Average spatial batch extension              ...   0.86,  0.86,  0.64 au

Time for grid setup =    2.469 sec

------------------------------
INITIAL GUESS: MODEL POTENTIAL
------------------------------
Loading Hartree-Fock densities                     ... done
  calling /mnt/storage/software/apps/orca-4.2.0/orca_4_2_0_linux_x86-64_openmpi314/orca Zr2_atom40.inp > Zr2_atom40.out in order to generate an atomic fitting density for atom 0 (Zr with ECP) on-the-fly... 
    atom 0 (Zr), assumed electronic state with S=3: 1s2 2s2 2p6 3s2 3p6 4s2 3d10 4p6 4d2 5s2           ... done
Calculating cut-offs                               ... done
Setting up the integral package                    ... done
Initializing the effective Hamiltonian             ... done
Starting the Coulomb interaction                   ... done (   0.0 sec)
Reading the grid                                   ... done
Mapping shells                                     ... done
Starting the XC term evaluation                    ... done (   0.0 sec)
  promolecular density results
     # of electrons  =     80.000622817
     EX              =   -220.233168017
     EC              =     -3.981729766
     EX+EC           =   -224.214897783
Transforming the Hamiltonian                       ... done (   0.1 sec)
Diagonalizing the Hamiltonian                      ... done (   0.0 sec)
Back transforming the eigenvectors                 ... done (   0.0 sec)
Now organizing SCF variables                       ... done
                      ------------------
                      INITIAL GUESS DONE (  21.3 sec)
                      ------------------
--------------
SCF ITERATIONS
--------------
ITER       Energy         Delta-E        Max-DP      RMS-DP      [F,P]     Damp
               ***  Starting incremental Fock matrix formation  ***
  0    -92.5345764302   0.000000000000 0.20903908  0.00460574  0.4845374 0.7000
  1    -93.0399959591  -0.505419528864 0.13095944  0.00304974  0.3123688 0.7000
                               ***Turning on DIIS***
  2    -93.2458626550  -0.205866695967 0.04182272  0.00152316  0.1985619 0.7000
  3    -93.3640093354  -0.118146680309 0.04718962  0.00109618  0.1292878 0.7000
  4    -93.4578419339  -0.093832598497 0.15706809  0.00386123  0.0891881 0.0000
  5    -93.7211656709  -0.263323737088 0.05690632  0.00131685  0.0154703 0.0000
  6    -93.7286382792  -0.007472608291 0.03273527  0.00089645  0.0115392 0.0000
  7    -93.7325485895  -0.003910310284 0.02566521  0.00076486  0.0085599 0.0000
  8    -93.7354237743  -0.002875184782 0.01533947  0.00040155  0.0071723 0.0000
  9    -93.7368320577  -0.001408283445 0.02179299  0.00046620  0.0075524 0.0000
 10    -93.7385918851  -0.001759827364 0.01495003  0.00031575  0.0071277 0.0000
 11    -93.7399739930  -0.001382107939 0.01527625  0.00034438  0.0069117 0.0000
 12    -93.7416099097  -0.001635916607 0.01200209  0.00032323  0.0067221 0.0000
 13    -93.7432242329  -0.001614323283 0.01391399  0.00042759  0.0063200 0.0000
 14    -93.7452793960  -0.002055163028 0.00477716  0.00014212  0.0060596 0.0000
 15    -93.7459613513  -0.000681955313 0.02524594  0.00076631  0.0051622 0.0000
 16    -93.7489499188  -0.002988567565 0.00642769  0.00018286  0.0069501 0.0000
 17    -93.7497375467  -0.000787627900 0.00791807  0.00021377  0.0041664 0.0000
 18    -93.7504026641  -0.000665117342 0.01649564  0.00042509  0.0034863 0.0000
 19    -93.7514987885  -0.001096124392 0.00750666  0.00022021  0.0033047 0.0000
               *** Restarting incremental Fock matrix formation ***
                                   *** Resetting DIIS ***
 20    -93.7519008630  -0.000402074510 0.00292472  0.00006800  0.0018023 0.0000
 21    -93.7519581991  -0.000057336091 0.00213381  0.00005256  0.0015790 0.0000
 22    -93.7520143419  -0.000056142848 0.00169510  0.00004780  0.0015273 0.0000
 23    -93.7520718670  -0.000057525107 0.00216046  0.00006594  0.0014614 0.0000
 24    -93.7521526897  -0.000080822674 0.00333989  0.00009893  0.0013485 0.0000
 25    -93.7522668259  -0.000114136203 0.00365272  0.00010734  0.0011891 0.0000
 26    -93.7523766088  -0.000109782848 0.00765870  0.00022613  0.0009934 0.0000
 27    -93.7525832692  -0.000206660428 0.00374133  0.00011654  0.0005550 0.0000
 28    -93.7526283520  -0.000045082866 0.00245511  0.00007863  0.0003979 0.0000
 29    -93.7526368856  -0.000008533524 0.00141109  0.00004572  0.0007067 0.0000
 30    -93.7526363409   0.000000544635 0.00030348  0.00001022  0.0001194 0.0000
 31    -93.7526299550   0.000006385959 0.00052688  0.00001819  0.0000308 0.0000
                 **** Energy Check signals convergence ****

               *****************************************************
               *                     SUCCESS                       *
               *           SCF CONVERGED AFTER  32 CYCLES          *
               *****************************************************


Setting up the DFT-NL grid :

General Integration Accuracy     IntAcc      ...  4.340
Radial Grid Type                 RadialGrid  ... Gauss-Chebyshev
Angular Grid (max. acc.)         AngularGrid ... Lebedev-110
Angular grid pruning method      GridPruning ... 3 (G Style)
Weight generation scheme         WeightScheme... Becke
Basis function cutoff            BFCut       ...    1.0000e-10
Integration weight cutoff        WCut        ...    1.0000e-14
Grids for H and He will be reduced by one unit

# of grid points (after initial pruning)     ...   6560 (   0.0 sec)
# of grid points (after weights+screening)   ...   6526 (   0.0 sec)
nearest neighbour list constructed           ...    0.0 sec
Grid point re-assignment to atoms done       ...    0.0 sec
Grid point division into batches done        ...    0.0 sec
Reduced shell lists constructed in    0.0 sec

Total number of grid points                  ...     6526
Total number of batches                      ...      102
Average number of points per batch           ...       63
Average number of grid points per atom       ...     3263
Average number of shells per batch           ...    10.40 (32.50%)
Average number of basis functions per batch  ...    36.00 (32.14%)
Average number of large shells per batch     ...     8.00 (76.92%)
Average number of large basis fcns per batch ...    20.80 (57.78%)
Maximum spatial batch extension              ...  23.83, 37.49, 21.87 au
Average spatial batch extension              ...   0.87,  1.20,  0.86 au

Final grid set up in    1.6 sec

-------------------------------------------------------------------------------
                         DFT-NL dispersion correction                          
-------------------------------------------------------------------------------

SC Energy -93.752629213 
NL    Energy 0.087266155 
SC+NL Energy -93.665363058 
NL done in    0.9 sec
-------------------------------------------------------------------------------

----------------
TOTAL SCF ENERGY
----------------

Total Energy       :          -93.66536306 Eh           -2548.76411 eV

Components:
Nuclear Repulsion  :           34.01853482 Eh             925.69139 eV
Electronic Energy  :         -127.68389788 Eh           -3474.45550 eV
One Electron Energy:         -225.06613812 Eh           -6124.36097 eV
Two Electron Energy:           97.38224024 Eh            2649.90548 eV

Virial components:
Potential Energy   :         -124.87952963 Eh           -3398.14476 eV
Kinetic Energy     :           31.21416658 Eh             849.38065 eV
Virial Ratio       :            4.00073247


DFT components:
N(Alpha)           :       12.999999180522 electrons
N(Beta)            :       11.000000061870 electrons
N(Total)           :       23.999999242393 electrons
E(X)               :       -6.461361513968 Eh       
E(C)               :       -0.679242229038 Eh       
NL Energy, E(C,NL) :        0.087266155050 Eh       
E(XC)              :       -7.053337587955 Eh       
DFET-embed. en.    :        0.000000000000 Eh       

---------------
SCF CONVERGENCE
---------------

  Last Energy change         ...    7.4242e-07  Tolerance :   1.0000e-06
  Last MAX-Density change    ...    2.7850e-04  Tolerance :   1.0000e-05
  Last RMS-Density change    ...    1.0629e-05  Tolerance :   1.0000e-06
  Last DIIS Error            ...    2.6839e-05  Tolerance :   1.0000e-06

             **** THE GBW FILE WAS UPDATED (Zr2.gbw) ****
             **** DENSITY FILE WAS UPDATED (Zr2.scfp) ****
             **** ENERGY FILE WAS UPDATED (Zr2.en.tmp) ****
----------------------
UHF SPIN CONTAMINATION
----------------------

Warning: in a DFT calculation there is little theoretical justification to 
         calculate <S**2> as in Hartree-Fock theory. We will do it anyways
         but you should keep in mind that the values have only limited relevance

Expectation value of <S**2>     :     2.032081
Ideal value S*(S+1) for S=1.0   :     2.000000
Deviation                       :     0.032081

             **** THE GBW FILE WAS UPDATED (Zr2.gbw) ****
             **** DENSITY FILE WAS UPDATED (Zr2.scfp) ****
----------------
ORBITAL ENERGIES
----------------
                 SPIN UP ORBITALS
  NO   OCC          E(Eh)            E(eV) 
   0   1.0000      -2.205580       -60.0169 
   1   1.0000      -2.175279       -59.1924 
   2   1.0000      -1.396244       -37.9937 
   3   1.0000      -1.334416       -36.3113 
   4   1.0000      -1.334416       -36.3113 
   5   1.0000      -1.305915       -35.5358 
   6   1.0000      -1.305915       -35.5357 
   7   1.0000      -1.253835       -34.1186 
   8   1.0000      -0.257057        -6.9949 
   9   1.0000      -0.257057        -6.9949 
  10   1.0000      -0.224096        -6.0979 
  11   1.0000      -0.190156        -5.1744 
  12   1.0000      -0.190156        -5.1744 
  13   0.0000      -0.030804        -0.8382 
  14   0.0000      -0.019105        -0.5199 
  15   0.0000       0.007980         0.2171 
  16   0.0000       0.007980         0.2171 
  17   0.0000       0.034656         0.9430 
  18   0.0000       0.034656         0.9430 
  19   0.0000       0.050044         1.3618 
  20   0.0000       0.052371         1.4251 
  21   0.0000       0.055760         1.5173 
  22   0.0000       0.055762         1.5174 
  23   0.0000       0.109586         2.9820 
  24   0.0000       0.109586         2.9820 
  25   0.0000       0.109916         2.9910 
  26   0.0000       0.119380         3.2485 
  27   0.0000       0.162844         4.4312 
  28   0.0000       0.162844         4.4312 
  29   0.0000       0.180616         4.9148 
  30   0.0000       0.188626         5.1328 
  31   0.0000       0.216368         5.8877 
  32   0.0000       0.216369         5.8877 
  33   0.0000       0.226915         6.1747 
  34   0.0000       0.226915         6.1747 
  35   0.0000       0.254030         6.9125 
  36   0.0000       0.254032         6.9126 
  37   0.0000       0.257038         6.9944 
  38   0.0000       0.257038         6.9944 
  39   0.0000       0.276355         7.5200 
  40   0.0000       0.290166         7.8958 
  41   0.0000       0.295601         8.0437 
  42   0.0000       0.295601         8.0437 
  43   0.0000       0.509330        13.8596 
  44   0.0000       0.509330        13.8596 
  45   0.0000       0.522310        14.2128 
  46   0.0000       0.522315        14.2129 
  47   0.0000       0.557607        15.1732 
  48   0.0000       0.622261        16.9326 
  49   0.0000       0.622261        16.9326 
  50   0.0000       0.643790        17.5184 
  51   0.0000       0.668241        18.1838 
  52   0.0000       0.668241        18.1838 
  53   0.0000       0.717144        19.5145 
  54   0.0000       0.720038        19.5932 
  55   0.0000       0.720038        19.5932 
  56   0.0000       0.740879        20.1604 
  57   0.0000       0.740880        20.1604 
  58   0.0000       0.919013        25.0076 
  59   0.0000       0.919013        25.0076 
  60   0.0000       0.919562        25.0226 
  61   0.0000       0.919572        25.0228 
  62   0.0000       0.937694        25.5159 
  63   0.0000       0.951551        25.8930 
  64   0.0000       0.951551        25.8930 
  65   0.0000       1.003641        27.3105 
  66   0.0000       1.003651        27.3107 
  67   0.0000       1.059369        28.8269 
  68   0.0000       1.059369        28.8269 
  69   0.0000       1.061878        28.8952 
  70   0.0000       1.085487        29.5376 
  71   0.0000       1.162715        31.6391 
  72   0.0000       1.162715        31.6391 
  73   0.0000       1.200434        32.6655 
  74   0.0000       1.204888        32.7867 
  75   0.0000       1.204907        32.7872 
  76   0.0000       1.268744        34.5243 
  77   0.0000       1.268758        34.5247 
  78   0.0000       1.291112        35.1330 
  79   0.0000       1.291113        35.1330 
  80   0.0000       1.304853        35.5069 
  81   0.0000       1.304883        35.5077 
  82   0.0000       1.395534        37.9744 
  83   0.0000       1.395534        37.9744 
  84   0.0000       1.411776        38.4164 
  85   0.0000       1.474384        40.1200 
  86   0.0000       1.474384        40.1200 
  87   0.0000       1.594814        43.3971 
  88   0.0000       1.691366        46.0244 
  89   0.0000       1.691366        46.0244 
  90   0.0000       1.732163        47.1346 
  91   0.0000       1.732163        47.1346 
  92   0.0000       1.738853        47.3166 
  93   0.0000       1.738853        47.3166 
  94   0.0000       1.739549        47.3355 
  95   0.0000       1.760103        47.8948 
  96   0.0000       1.760108        47.8950 
  97   0.0000       1.768849        48.1328 
  98   0.0000       1.768860        48.1331 
  99   0.0000       1.794644        48.8348 
 100   0.0000       1.794653        48.8350 
 101   0.0000       1.843318        50.1592 
 102   0.0000       2.009032        54.6685 
 103   0.0000       2.009032        54.6685 
 104   0.0000       2.127252        57.8855 
 105   0.0000       2.265724        61.6535 
 106   0.0000       2.265724        61.6535 
 107   0.0000       2.771904        75.4273 
 108   0.0000      20.288464       552.0772 
 109   0.0000      20.555453       559.3423 
 110   0.0000      72.613693      1975.9190 
 111   0.0000      72.707238      1978.4645 

                 SPIN DOWN ORBITALS
  NO   OCC          E(Eh)            E(eV) 
   0   1.0000      -2.192394       -59.6581 
   1   1.0000      -2.162237       -58.8375 
   2   1.0000      -1.390267       -37.8311 
   3   1.0000      -1.304318       -35.4923 
   4   1.0000      -1.304318       -35.4923 
   5   1.0000      -1.281266       -34.8650 
   6   1.0000      -1.281266       -34.8650 
   7   1.0000      -1.248207       -33.9654 
   8   1.0000      -0.241767        -6.5788 
   9   1.0000      -0.241767        -6.5788 
  10   1.0000      -0.209852        -5.7104 
  11   0.0000      -0.027943        -0.7604 
  12   0.0000      -0.003098        -0.0843 
  13   0.0000       0.008740         0.2378 
  14   0.0000       0.008740         0.2378 
  15   0.0000       0.034709         0.9445 
  16   0.0000       0.034709         0.9445 
  17   0.0000       0.041666         1.1338 
  18   0.0000       0.041667         1.1338 
  19   0.0000       0.056183         1.5288 
  20   0.0000       0.058679         1.5967 
  21   0.0000       0.102525         2.7899 
  22   0.0000       0.102526         2.7899 
  23   0.0000       0.111403         3.0314 
  24   0.0000       0.111404         3.0314 
  25   0.0000       0.115800         3.1511 
  26   0.0000       0.120380         3.2757 
  27   0.0000       0.164290         4.4706 
  28   0.0000       0.164290         4.4706 
  29   0.0000       0.180388         4.9086 
  30   0.0000       0.197272         5.3681 
  31   0.0000       0.226636         6.1671 
  32   0.0000       0.226639         6.1672 
  33   0.0000       0.229320         6.2401 
  34   0.0000       0.229320         6.2401 
  35   0.0000       0.257556         7.0084 
  36   0.0000       0.257558         7.0085 
  37   0.0000       0.263695         7.1755 
  38   0.0000       0.263696         7.1755 
  39   0.0000       0.282479         7.6866 
  40   0.0000       0.290752         7.9118 
  41   0.0000       0.292816         7.9679 
  42   0.0000       0.292816         7.9679 
  43   0.0000       0.529886        14.4189 
  44   0.0000       0.529886        14.4189 
  45   0.0000       0.534220        14.5369 
  46   0.0000       0.534222        14.5369 
  47   0.0000       0.558949        15.2098 
  48   0.0000       0.622847        16.9485 
  49   0.0000       0.622847        16.9485 
  50   0.0000       0.650276        17.6949 
  51   0.0000       0.666833        18.1454 
  52   0.0000       0.666833        18.1454 
  53   0.0000       0.717795        19.5322 
  54   0.0000       0.717795        19.5322 
  55   0.0000       0.727758        19.8033 
  56   0.0000       0.742614        20.2075 
  57   0.0000       0.742614        20.2076 
  58   0.0000       0.925889        25.1947 
  59   0.0000       0.925889        25.1947 
  60   0.0000       0.926073        25.1997 
  61   0.0000       0.926080        25.1999 
  62   0.0000       0.941397        25.6167 
  63   0.0000       0.952886        25.9293 
  64   0.0000       0.952886        25.9293 
  65   0.0000       1.009263        27.4634 
  66   0.0000       1.009274        27.4637 
  67   0.0000       1.066617        29.0241 
  68   0.0000       1.071336        29.1525 
  69   0.0000       1.071336        29.1525 
  70   0.0000       1.090893        29.6847 
  71   0.0000       1.174231        31.9524 
  72   0.0000       1.174231        31.9524 
  73   0.0000       1.207516        32.8582 
  74   0.0000       1.210820        32.9481 
  75   0.0000       1.210835        32.9485 
  76   0.0000       1.273763        34.6609 
  77   0.0000       1.273773        34.6611 
  78   0.0000       1.302090        35.4317 
  79   0.0000       1.302090        35.4317 
  80   0.0000       1.306020        35.5386 
  81   0.0000       1.306038        35.5391 
  82   0.0000       1.410193        38.3733 
  83   0.0000       1.410193        38.3733 
  84   0.0000       1.421836        38.6901 
  85   0.0000       1.489101        40.5205 
  86   0.0000       1.489101        40.5205 
  87   0.0000       1.608765        43.7767 
  88   0.0000       1.725573        46.9552 
  89   0.0000       1.725573        46.9552 
  90   0.0000       1.747326        47.5472 
  91   0.0000       1.752754        47.6949 
  92   0.0000       1.752754        47.6949 
  93   0.0000       1.762278        47.9540 
  94   0.0000       1.762278        47.9540 
  95   0.0000       1.776729        48.3472 
  96   0.0000       1.776742        48.3476 
  97   0.0000       1.783793        48.5395 
  98   0.0000       1.783821        48.5402 
  99   0.0000       1.799400        48.9642 
 100   0.0000       1.799401        48.9642 
 101   0.0000       1.857292        50.5395 
 102   0.0000       2.018599        54.9289 
 103   0.0000       2.018599        54.9289 
 104   0.0000       2.138511        58.1918 
 105   0.0000       2.273549        61.8664 
 106   0.0000       2.273549        61.8664 
 107   0.0000       2.777022        75.5666 
 108   0.0000      20.293976       552.2272 
 109   0.0000      20.560998       559.4932 
 110   0.0000      72.615974      1975.9811 
 111   0.0000      72.709549      1978.5274 

                    ********************************
                    * MULLIKEN POPULATION ANALYSIS *
                    ********************************

--------------------------------------------
MULLIKEN ATOMIC CHARGES AND SPIN POPULATIONS
--------------------------------------------
   0 Zr:   -0.000132    0.999941
   1 Zr:    0.000132    1.000059
Sum of atomic charges         :   -0.0000000
Sum of atomic spin populations:    2.0000000

-----------------------------------------------------
MULLIKEN REDUCED ORBITAL CHARGES AND SPIN POPULATIONS
-----------------------------------------------------
CHARGE
  0 Zrs       :     2.965952  s :     2.965952
      pz      :     1.966914  p :     5.989840
      px      :     2.011463
      py      :     2.011463
      dz2     :     0.055091  d :     2.987299
      dxz     :     0.971060
      dyz     :     0.971060
      dx2y2   :     0.495044
      dxy     :     0.495044
      f0      :     0.009427  f :     0.041692
      f+1     :     0.012349
      f-1     :     0.012349
      f+2     :     0.003783
      f-2     :     0.003784
      f+3     :     0.000000
      f-3     :     0.000000
      g0      :     0.002745  g :     0.015351
      g+1     :     0.005141
      g-1     :     0.005141
      g+2     :     0.001162
      g-2     :     0.001162
      g+3     :     0.000000
      g-3     :     0.000000
      g+4     :     0.000000
      g-4     :     0.000000
  1 Zrs       :     2.965722  s :     2.965722
      pz      :     1.966885  p :     5.989811
      px      :     2.011463
      py      :     2.011463
      dz2     :     0.055093  d :     2.987292
      dxz     :     0.971035
      dyz     :     0.971034
      dx2y2   :     0.495066
      dxy     :     0.495064
      f0      :     0.009428  f :     0.041693
      f+1     :     0.012349
      f-1     :     0.012349
      f+2     :     0.003783
      f-2     :     0.003784
      f+3     :     0.000000
      f-3     :     0.000000
      g0      :     0.002745  g :     0.015351
      g+1     :     0.005141
      g-1     :     0.005141
      g+2     :     0.001162
      g-2     :     0.001162
      g+3     :     0.000000
      g-3     :     0.000000
      g+4     :     0.000000
      g-4     :     0.000000

SPIN
  0 Zrs       :    -0.036274  s :    -0.036274
      pz      :     0.008881  p :     0.031628
      px      :     0.011373
      py      :     0.011373
      dz2     :     0.024945  d :     0.995179
      dxz     :    -0.009927
      dyz     :    -0.009927
      dx2y2   :     0.495044
      dxy     :     0.495044
      f0      :     0.001967  f :     0.007893
      f+1     :    -0.000821
      f-1     :    -0.000821
      f+2     :     0.003783
      f-2     :     0.003784
      f+3     :     0.000000
      f-3     :    -0.000000
      g0      :     0.000449  g :     0.001515
      g+1     :    -0.000629
      g-1     :    -0.000629
      g+2     :     0.001162
      g-2     :     0.001162
      g+3     :     0.000000
      g-3     :     0.000000
      g+4     :     0.000000
      g-4     :     0.000000
  1 Zrs       :    -0.036215  s :    -0.036215
      pz      :     0.008886  p :     0.031632
      px      :     0.011373
      py      :     0.011373
      dz2     :     0.024945  d :     0.995235
      dxz     :    -0.009920
      dyz     :    -0.009920
      dx2y2   :     0.495066
      dxy     :     0.495064
      f0      :     0.001967  f :     0.007892
      f+1     :    -0.000821
      f-1     :    -0.000821
      f+2     :     0.003783
      f-2     :     0.003784
      f+3     :     0.000000
      f-3     :    -0.000000
      g0      :     0.000449  g :     0.001515
      g+1     :    -0.000629
      g-1     :    -0.000629
      g+2     :     0.001162
      g-2     :     0.001162
      g+3     :     0.000000
      g-3     :     0.000000
      g+4     :     0.000000
      g-4     :     0.000000


                     *******************************
                     * LOEWDIN POPULATION ANALYSIS *
                     *******************************

-------------------------------------------
LOEWDIN ATOMIC CHARGES AND SPIN POPULATIONS
-------------------------------------------
   0 Zr:   -0.000007    0.999974
   1 Zr:    0.000007    1.000026

----------------------------------------------------
LOEWDIN REDUCED ORBITAL CHARGES AND SPIN POPULATIONS
----------------------------------------------------
CHARGE
  0 Zrs       :     2.673968  s :     2.673968
      pz      :     1.991966  p :     5.930685
      px      :     1.969360
      py      :     1.969359
      dz2     :     0.165781  d :     3.071328
      dxz     :     0.963911
      dyz     :     0.963911
      dx2y2   :     0.488863
      dxy     :     0.488863
      f0      :     0.105621  f :     0.199386
      f+1     :     0.039340
      f-1     :     0.039340
      f+2     :     0.007543
      f-2     :     0.007543
      f+3     :     0.000000
      f-3     :     0.000000
      g0      :     0.062669  g :     0.124639
      g+1     :     0.027400
      g-1     :     0.027400
      g+2     :     0.003584
      g-2     :     0.003585
      g+3     :     0.000000
      g-3     :     0.000000
      g+4     :     0.000000
      g-4     :     0.000000
  1 Zrs       :     2.673958  s :     2.673958
      pz      :     1.991967  p :     5.930687
      px      :     1.969360
      py      :     1.969360
      dz2     :     0.165780  d :     3.071322
      dxz     :     0.963888
      dyz     :     0.963888
      dx2y2   :     0.488884
      dxy     :     0.488882
      f0      :     0.105621  f :     0.199387
      f+1     :     0.039341
      f-1     :     0.039341
      f+2     :     0.007542
      f-2     :     0.007543
      f+3     :     0.000000
      f-3     :     0.000000
      g0      :     0.062669  g :     0.124639
      g+1     :     0.027401
      g-1     :     0.027401
      g+2     :     0.003584
      g-2     :     0.003585
      g+3     :     0.000000
      g-3     :     0.000000
      g+4     :     0.000000
      g-4     :     0.000000

SPIN
  0 Zrs       :    -0.033591  s :    -0.033591
      pz      :     0.005480  p :     0.021079
      px      :     0.007800
      py      :     0.007800
      dz2     :     0.024903  d :     0.987441
      dxz     :    -0.007594
      dyz     :    -0.007594
      dx2y2   :     0.488863
      dxy     :     0.488863
      f0      :     0.002391  f :     0.018100
      f+1     :     0.000311
      f-1     :     0.000311
      f+2     :     0.007543
      f-2     :     0.007543
      f+3     :     0.000000
      f-3     :    -0.000000
      g0      :     0.000816  g :     0.006944
      g+1     :    -0.000520
      g-1     :    -0.000520
      g+2     :     0.003584
      g-2     :     0.003585
      g+3     :     0.000000
      g-3     :     0.000000
      g+4     :     0.000000
      g-4     :     0.000000
  1 Zrs       :    -0.033588  s :    -0.033588
      pz      :     0.005480  p :     0.021079
      px      :     0.007799
      py      :     0.007799
      dz2     :     0.024903  d :     0.987493
      dxz     :    -0.007587
      dyz     :    -0.007587
      dx2y2   :     0.488884
      dxy     :     0.488882
      f0      :     0.002391  f :     0.018098
      f+1     :     0.000311
      f-1     :     0.000311
      f+2     :     0.007542
      f-2     :     0.007543
      f+3     :     0.000000
      f-3     :    -0.000000
      g0      :     0.000816  g :     0.006944
      g+1     :    -0.000520
      g-1     :    -0.000520
      g+2     :     0.003584
      g-2     :     0.003585
      g+3     :     0.000000
      g-3     :     0.000000
      g+4     :     0.000000
      g-4     :     0.000000


                      *****************************
                      * MAYER POPULATION ANALYSIS *
                      *****************************

  NA   - Mulliken gross atomic population
  ZA   - Total nuclear charge
  QA   - Mulliken gross atomic charge
  VA   - Mayer's total valence
  BVA  - Mayer's bonded valence
  FA   - Mayer's free valence

  ATOM       NA         ZA         QA         VA         BVA        FA
  0 Zr    12.0001    12.0000    -0.0001     4.8194     4.3035     0.5159
  1 Zr    11.9999    12.0000     0.0001     4.8194     4.3035     0.5159

  Mayer bond orders larger than 0.100000
B(  0-Zr,  1-Zr) :   4.3035 

-------
TIMINGS
-------

Total SCF time: 0 days 0 hours 3 min 46 sec 

Total time                  ....     226.691 sec
Sum of individual times     ....     224.098 sec  ( 98.9%)

Fock matrix formation       ....     197.437 sec  ( 87.1%)
  XC integration            ....     183.042 sec  ( 92.7% of F)
    Basis function eval.    ....       0.070 sec  (  0.0% of XC)
    Density eval.           ....       0.199 sec  (  0.1% of XC)
    XC-Functional eval.     ....       0.065 sec  (  0.0% of XC)
    XC-Potential eval.      ....       0.514 sec  (  0.3% of XC)
Diagonalization             ....       3.194 sec  (  1.4%)
Density matrix formation    ....       0.018 sec  (  0.0%)
Population analysis         ....       0.249 sec  (  0.1%)
Initial guess               ....      18.809 sec  (  8.3%)
Orbital Transformation      ....       0.000 sec  (  0.0%)
Orbital Orthonormalization  ....       0.000 sec  (  0.0%)
DIIS solution               ....       0.359 sec  (  0.2%)
Grid generation             ....       4.032 sec  (  1.8%)

-------------------------   --------------------
FINAL SINGLE POINT ENERGY       -93.665363057509
-------------------------   --------------------


----------------------------------------------------------------------------
                           ORCA NUMERICAL GRADIENT
                              (28-process run)
----------------------------------------------------------------------------

I state                        ... 1
J state                        ... 0
Number of atoms                ... 2
Derivative's order of accuracy ... 2
Central differences            ... used
Number of displacements        ... 12
Numerical increment            ... 5.000e-03 bohr
Translation invariance         ... used

The output will be reduced. Please look at the following files:
SCF program output             ... >Zr2.lastscf
Integral program output        ... >Zr2.lastint
Gradient program output        ... >Zr2.lastgrad


     Note:   There are more processes than displacements to do
     ===>:   Reducing number of processes to   3

             <<<Displacing   2/coordinate 1 (+)>>>
             <<<Displacing   2/coordinate 3 (+)>>>
             <<<Displacing   2/coordinate 2 (+)>>>
             <<<Displacing   2/coordinate 1 (-)>>>
             <<<Displacing   2/coordinate 2 (-)>>>
             <<<Displacing   2/coordinate 3 (-)>>>

------------------------------
CARTESIAN GRADIENT (NUMERICAL)
-------------------------------
   1   Zr  :   -0.000002611   -0.000005458   -0.042894484
   2   Zr  :    0.000002611    0.000005458    0.042894484

Norm of the cartesian gradient     ...    0.060661962
RMS gradient                       ...    0.024765142
MAX gradient                       ...    0.042894484

-------
TIMINGS
-------

Total numerical gradient time      ...       74.677 sec


                            ***************************************
                            *     ORCA property calculations      *
                            ***************************************

                                    ---------------------
                                    Active property flags
                                    ---------------------
   (+) Dipole Moment


------------------------------------------------------------------------------
                       ORCA ELECTRIC PROPERTIES CALCULATION
------------------------------------------------------------------------------

Dipole Moment Calculation                       ... on
Quadrupole Moment Calculation                   ... off
Polarizability Calculation                      ... off
GBWName                                         ... Zr2.gbw
Electron density file                           ... Zr2.scfp
The origin for moment calculation is the CENTER OF MASS  = ( 0.000000,  0.000000  2.116493)

-------------
DIPOLE MOMENT
-------------
                                X             Y             Z
Electronic contribution:      0.00000      -0.00000       0.00006
Nuclear contribution   :      0.00000       0.00000       0.00000
                        -----------------------------------------
Total Dipole Moment    :      0.00000      -0.00000       0.00006
                        -----------------------------------------
Magnitude (a.u.)       :      0.00006
Magnitude (Debye)      :      0.00014



--------------------
Rotational spectrum 
--------------------
 
Rotational constants in cm-1:     0.000000     0.073662     0.073662 
Rotational constants in MHz :     0.000000  2208.317403  2208.317403 

 Dipole components along the rotational axes: 
x,y,z [a.u.] :     0.000055    -0.000000     0.000000 
x,y,z [Debye]:     0.000140    -0.000000     0.000000 

 

Timings for individual modules:

Sum of individual times         ...      308.619 sec (=   5.144 min)
GTO integral calculation        ...        6.398 sec (=   0.107 min)   2.1 %
SCF iterations                  ...      227.545 sec (=   3.792 min)  73.7 %
SCF Gradient evaluation         ...       74.677 sec (=   1.245 min)  24.2 %
                             ****ORCA TERMINATED NORMALLY****
TOTAL RUN TIME: 0 days 0 hours 5 minutes 10 seconds 494 msec
