
    -----------------------------------------------------------------------
          Psi4: An Open-Source Ab Initio Electronic Structure Package
                               Psi4 1.4.1 release

                         Git: Rev {HEAD} cd00f19 


    D. G. A. Smith, L. A. Burns, A. C. Simmonett, R. M. Parrish,
    M. C. Schieber, R. Galvelis, P. Kraus, H. Kruse, R. Di Remigio,
    A. Alenaizan, A. M. James, S. Lehtola, J. P. Misiewicz, M. Scheurer,
    R. A. Shaw, J. B. Schriber, Y. Xie, Z. L. Glick, D. A. Sirianni,
    J. S. O'Brien, J. M. Waldrop, A. Kumar, E. G. Hohenstein,
    B. P. Pritchard, B. R. Brooks, H. F. Schaefer III, A. Yu. Sokolov,
    K. Patkowski, A. E. DePrince III, U. Bozkaya, R. A. King,
    F. A. Evangelista, J. M. Turney, T. D. Crawford, C. D. Sherrill,
    J. Chem. Phys. 152(18) 184108 (2020). https://doi.org/10.1063/5.0006002

                            Additional Code Authors
    E. T. Seidl, C. L. Janssen, E. F. Valeev, M. L. Leininger,
    J. F. Gonthier, R. M. Richard, H. R. McAlexander, M. Saitow, X. Wang,
    P. Verma, and M. H. Lechner

             Previous Authors, Complete List of Code Contributors,
                       and Citations for Specific Modules
    https://github.com/psi4/psi4/blob/master/codemeta.json
    https://github.com/psi4/psi4/graphs/contributors
    http://psicode.org/psi4manual/master/introduction.html#citing-psifour

    -----------------------------------------------------------------------


    Psi4 started on: Sunday, 07 November 2021 05:06AM

    Process ID: 18714
    Host:       compute428.bc4.acrc.priv
    PSIDATADIR: /mnt/storage/home/zw18965/.conda/envs/p4env/share/psi4
    Memory:     500.0 MiB
    Threads:    28
    
  ==> Input File <==

--------------------------------------------------------------------------
memory 120 GB

molecule {
0 2
Ag         0.00000        0.00000        0.00000
 }

set reference uks
set dynamic_level 1
set basis Def2-TZVPPD

energy("GAM")
--------------------------------------------------------------------------

  Memory set to 111.759 GiB by Python driver.

Scratch directory: /tmp/

*** tstart() called on compute428.bc4.acrc.priv
*** at Sun Nov  7 05:06:22 2021

   => Loading Basis Set <=

    Name: DEF2-TZVPPD
    Role: ORBITAL
    Keyword: BASIS
    atoms 1 entry AG         line  2174 (ECP: line  3646) file /mnt/storage/home/zw18965/.conda/envs/p4env/share/psi4/basis/def2-tzvppd.gbs 

    !!!  WARNING: ECP capability is in beta. Please check occupations closely.  !!!


         ---------------------------------------------------------
                                   SCF
               by Justin Turney, Rob Parrish, Andy Simmonett
                          and Daniel G. A. Smith
                              UKS Reference
                       28 Threads, 114440 MiB Core
         ---------------------------------------------------------

  ==> Geometry <==

    Molecular point group: d2h
    Geometry (in Angstrom), charge = 0, multiplicity = 2:

       Center              X                  Y                   Z               Mass       
    ------------   -----------------  -----------------  -----------------  -----------------
         AG           0.000000000000     0.000000000000     0.000000000000   106.905091600000

  Running in d2h symmetry.

  Rotational constants: A = ************  B = ************  C = ************ [cm^-1]
  Rotational constants: A = ************  B = ************  C = ************ [MHz]
  Nuclear repulsion =    0.000000000000000

  Charge       = 0
  Multiplicity = 2
  Electrons    = 19
  Nalpha       = 10
  Nbeta        = 9

  ==> Algorithm <==

  SCF Algorithm Type is DF.
  DIIS enabled.
  MOM disabled.
  Fractional occupation disabled.
  Guess Type is CORE.
  Energy threshold   = 1.00e-06
  Density threshold  = 1.00e-06
  Integral threshold = 1.00e-12

  ==> Primary Basis <==

  Basis Set: DEF2-TZVPPD
    Blend: DEF2-TZVPPD
    Number of shells: 16
    Number of basis functions: 56
    Number of Cartesian functions: 71
    Spherical Harmonics?: true
    Max angular momentum: 4

  Core potential: DEF2-TZVPPD
    Number of shells: 4
    Number of ECP primitives: 14
    Number of ECP core electrons: 28
    Max angular momentum: 3

  ==> DFT Potential <==

   => Composite Functional: GAM <= 

   GAM GGA Minessota Exchange-Correlation Functional

    H.S. Yu, et al., Phys. Chem. Chem. Phys. 17, 12146, 2015


    Deriv               =              1
    GGA                 =           TRUE
    Meta                =          FALSE

    Exchange Hybrid     =          FALSE
    MP2 Hybrid          =          FALSE

   => Exchange Functionals <=

    1.0000     XC_GGA_X_GAM

   => Correlation Functionals <=

    1.0000     XC_GGA_C_GAM

   => LibXC Density Thresholds  <==

    XC_GGA_C_GAM:  1.00E-14 
    XC_GGA_X_GAM:  1.00E-14 

   => Molecular Quadrature <=

    Radial Scheme          =       TREUTLER
    Pruning Scheme         =           NONE
    Nuclear Scheme         =       TREUTLER

    BS radius alpha        =              1
    Pruning alpha          =              1
    Radial Points          =             75
    Spherical Points       =            302
    Total Points           =          20832
    Total Blocks           =            235
    Max Points             =            255
    Max Functions          =             56
    Weights Tolerance      =       1.00E-15

   => Loading Basis Set <=

    Name: (DEF2-TZVPPD AUX)
    Role: JKFIT
    Keyword: DF_BASIS_SCF
    atoms 1 entry AG         line  4364 file /mnt/storage/home/zw18965/.conda/envs/p4env/share/psi4/basis/def2-universal-jkfit.gbs 

  ==> Integral Setup <==

  DFHelper Memory: AOs need 0.008 GiB; user supplied 83.791 GiB. Using in-core AOs.

  ==> MemDFJK: Density-Fitted J/K Matrices <==

    J tasked:                   Yes
    K tasked:                    No
    wK tasked:                   No
    OpenMP threads:              28
    Memory [MiB]:             85801
    Algorithm:                 Core
    Schwarz Cutoff:           1E-12
    Mask sparsity (%):       0.0000
    Fitting Condition:        1E-10

   => Auxiliary Basis Set <=

  Basis Set: (DEF2-TZVPPD AUX)
    Blend: DEF2-UNIVERSAL-JKFIT
    Number of shells: 49
    Number of basis functions: 255
    Number of Cartesian functions: 384
    Spherical Harmonics?: true
    Max angular momentum: 6

  Cached 100.0% of DFT collocation blocks in 0.028 [GiB].

  Minimum eigenvalue in the overlap matrix is 2.2101858439E-02.
  Reciprocal condition number of the overlap matrix is 7.0222993859E-03.
    Using symmetric orthogonalization.

  ==> Pre-Iterations <==

  SCF Guess: Core (One-Electron) Hamiltonian.

   -------------------------------------------------------
    Irrep   Nso     Nmo     Nalpha   Nbeta   Ndocc  Nsocc
   -------------------------------------------------------
     Ag        15      15       3       3       3       0
     B1g        5       5       1       1       1       0
     B2g        5       5       1       1       1       0
     B3g        5       5       1       1       1       0
     Au         2       2       0       0       0       0
     B1u        8       8       1       1       1       0
     B2u        8       8       2       1       1       1
     B3u        8       8       1       1       1       0
   -------------------------------------------------------
    Total      56      56      10       9       9       1
   -------------------------------------------------------

  ==> Iterations <==

                           Total Energy        Delta E     RMS |[F,P]|

    Occupation by irrep:
             Ag   B1g   B2g   B3g    Au   B1u   B2u   B3u 
    DOCC [     3,    0,    0,    0,    0,    2,    2,    2 ]
    SOCC [     0,    1,    0,    0,    0,    0,    0,    0 ]

   @DF-UKS iter   1:  -132.62496213313528   -1.32625e+02   2.60590e-01 DIIS
    Occupation by irrep:
             Ag   B1g   B2g   B3g    Au   B1u   B2u   B3u 
    DOCC [     3,    1,    1,    1,    0,    1,    1,    1 ]
    SOCC [     1,    0,    0,    0,    0,    0,    0,    0 ]

   @DF-UKS iter   2:  -114.50538844946635    1.81196e+01   3.72494e-01 DIIS
   @DF-UKS iter   3:  -147.29715684250860   -3.27918e+01   2.90658e-02 DIIS
   @DF-UKS iter   4:  -147.39809153882112   -1.00935e-01   3.39466e-02 DIIS
   @DF-UKS iter   5:  -147.55797304868258   -1.59882e-01   7.90520e-03 DIIS
   @DF-UKS iter   6:  -147.56643783632748   -8.46479e-03   1.08173e-03 DIIS
   @DF-UKS iter   7:  -147.56660059824259   -1.62762e-04   9.93479e-05 DIIS
   @DF-UKS iter   8:  -147.56660206094588   -1.46270e-06   5.21791e-06 DIIS
   @DF-UKS iter   9:  -147.56660206540334   -4.45746e-09   5.80626e-07 DIIS
  Energy and wave function converged.


  ==> Post-Iterations <==

   Electrons on quadrature grid:
      Nalpha   =   10.0000000000 ; deviation = 0.000e+00
      Nbeta    =    9.0000000000 ; deviation = -1.421e-14
      Ntotal   =   19.0000000000 ; deviation = -1.421e-14 

   @Spin Contamination Metric:   9.375439083E-04
   @S^2 Expected:                7.500000000E-01
   @S^2 Observed:                7.509375439E-01
   @S   Expected:                5.000000000E-01
   @S   Observed:                5.000000000E-01

    Orbital Energies [Eh]
    ---------------------

    Alpha Occupied:                                                       

       1Ag    -3.571169     1B2u   -2.202158     1B1u   -2.202158  
       1B3u   -2.202158     2Ag    -0.272565     1B2g   -0.272565  
       1B3g   -0.272565     1B1g   -0.272565     3Ag    -0.272565  
       4Ag    -0.166453  

    Alpha Virtual:                                                        

       2B3u   -0.019761     2B1u   -0.019761     2B2u   -0.019761  
       5Ag     0.101815     3B3u    0.183175     3B1u    0.183175  
       3B2u    0.183175     6Ag     0.360500     2B2g    0.360500  
       2B1g    0.360500     2B3g    0.360500     7Ag     0.360500  
       4B3u    1.532342     4B1u    1.532342     4B2u    1.532342  
       1Au     1.532342     5B3u    1.532342     5B1u    1.532342  
       5B2u    1.532342     6B3u    1.547301     6B1u    1.547301  
       6B2u    1.547301     8Ag     1.783289     9Ag     1.968879  
       3B2g    1.968879     3B3g    1.968879     3B1g    1.968879  
      10Ag     1.968879     7B2u    4.679365     7B1u    4.679365  
       2Au     4.679365     7B3u    4.679365     8B2u    4.679365  
       8B1u    4.679365     8B3u    4.679365    11Ag     5.426486  
       4B2g    5.426486     4B3g    5.426486     4B1g    5.426486  
      12Ag     5.426486     5B2g    5.426486     5B3g    5.426486  
       5B1g    5.426486    13Ag     5.426486    14Ag    33.249299  
      15Ag   110.756946  

    Beta Occupied:                                                        

       1Ag    -3.571663     1B1u   -2.202083     1B2u   -2.202083  
       1B3u   -2.202083     1B3g   -0.265167     2Ag    -0.265167  
       1B1g   -0.265167     3Ag    -0.265167     1B2g   -0.265167  

    Beta Virtual:                                                         

       4Ag    -0.147058     2B3u    0.010226     2B1u    0.010227  
       2B2u    0.010227     5Ag     0.300568     6Ag     0.353924  
       2B2g    0.353925     2B1g    0.353925     7Ag     0.353926  
       2B3g    0.353926     3B2u    0.429741     3B1u    0.429741  
       3B3u    0.429744     4B2u    1.542796     4B3u    1.542796  
       4B1u    1.542796     1Au     1.542796     5B2u    1.542796  
       5B3u    1.542796     5B1u    1.542796     6B3u    1.575663  
       6B1u    1.575663     6B2u    1.575663     8Ag     1.822619  
       9Ag     1.965315     3B2g    1.965315     3B1g    1.965315  
      10Ag     1.965315     3B3g    1.965315     7B2u    4.683986  
       7B1u    4.683986     7B3u    4.683987     2Au     4.683987  
       8B1u    4.683987     8B2u    4.683987     8B3u    4.683987  
       4B1g    5.427480    11Ag     5.427480     4B3g    5.427480  
       4B2g    5.427480    12Ag     5.427480     5B1g    5.427480  
       5B3g    5.427480     5B2g    5.427480    13Ag     5.427480  
      14Ag    33.252768    15Ag   110.764666  

    Final Occupation by Irrep:
             Ag   B1g   B2g   B3g    Au   B1u   B2u   B3u 
    DOCC [     3,    1,    1,    1,    0,    1,    1,    1 ]
    SOCC [     1,    0,    0,    0,    0,    0,    0,    0 ]

  @DF-UKS Final Energy:  -147.56660206540334

   => Energetics <=

    Nuclear Repulsion Energy =              0.0000000000000000
    One-Electron Energy =                -261.7562078380800585
    Two-Electron Energy =                 129.0055252802600307
    DFT Exchange-Correlation Energy =     -14.8159195075832884
    Empirical Dispersion Energy =           0.0000000000000000
    VV10 Nonlocal Energy =                  0.0000000000000000
    Total Energy =                       -147.5666020654033161

  UHF NO Occupations:
  HONO-2 :    3 Ag 1.9999073
  HONO-1 :    1B3g 1.9999073
  HONO-0 :    4 Ag 1.0000000
  LUNO+0 :    2B3g 0.0000927
  LUNO+1 :    5 Ag 0.0000927
  LUNO+2 :    2B2g 0.0000927
  LUNO+3 :    2B1g 0.0000927


Computation Completed


Properties will be evaluated at   0.000000,   0.000000,   0.000000 [a0]

Properties computed using the SCF density matrix

  Nuclear Dipole Moment: [e a0]
     X:     0.0000      Y:     0.0000      Z:     0.0000

  Electronic Dipole Moment: [e a0]
     X:     0.0000      Y:     0.0000      Z:     0.0000

  Dipole Moment: [e a0]
     X:     0.0000      Y:     0.0000      Z:     0.0000     Total:     0.0000

  Dipole Moment: [D]
     X:     0.0000      Y:     0.0000      Z:     0.0000     Total:     0.0000


*** tstop() called on compute428.bc4.acrc.priv at Sun Nov  7 05:06:26 2021
Module time:
	user time   =      49.19 seconds =       0.82 minutes
	system time =       2.17 seconds =       0.04 minutes
	total time  =          4 seconds =       0.07 minutes
Total time:
	user time   =      49.19 seconds =       0.82 minutes
	system time =       2.17 seconds =       0.04 minutes
	total time  =          4 seconds =       0.07 minutes

    Psi4 stopped on: Sunday, 07 November 2021 05:06AM
    Psi4 wall time for execution: 0:00:03.36

*** Psi4 exiting successfully. Buy a developer a beer!
