
    -----------------------------------------------------------------------
          Psi4: An Open-Source Ab Initio Electronic Structure Package
                               Psi4 1.4.1 release

                         Git: Rev {HEAD} cd00f19 


    D. G. A. Smith, L. A. Burns, A. C. Simmonett, R. M. Parrish,
    M. C. Schieber, R. Galvelis, P. Kraus, H. Kruse, R. Di Remigio,
    A. Alenaizan, A. M. James, S. Lehtola, J. P. Misiewicz, M. Scheurer,
    R. A. Shaw, J. B. Schriber, Y. Xie, Z. L. Glick, D. A. Sirianni,
    J. S. O'Brien, J. M. Waldrop, A. Kumar, E. G. Hohenstein,
    B. P. Pritchard, B. R. Brooks, H. F. Schaefer III, A. Yu. Sokolov,
    K. Patkowski, A. E. DePrince III, U. Bozkaya, R. A. King,
    F. A. Evangelista, J. M. Turney, T. D. Crawford, C. D. Sherrill,
    J. Chem. Phys. 152(18) 184108 (2020). https://doi.org/10.1063/5.0006002

                            Additional Code Authors
    E. T. Seidl, C. L. Janssen, E. F. Valeev, M. L. Leininger,
    J. F. Gonthier, R. M. Richard, H. R. McAlexander, M. Saitow, X. Wang,
    P. Verma, and M. H. Lechner

             Previous Authors, Complete List of Code Contributors,
                       and Citations for Specific Modules
    https://github.com/psi4/psi4/blob/master/codemeta.json
    https://github.com/psi4/psi4/graphs/contributors
    http://psicode.org/psi4manual/master/introduction.html#citing-psifour

    -----------------------------------------------------------------------


    Psi4 started on: Sunday, 07 November 2021 05:06AM

    Process ID: 17217
    Host:       compute427.bc4.acrc.priv
    PSIDATADIR: /mnt/storage/home/zw18965/.conda/envs/p4env/share/psi4
    Memory:     500.0 MiB
    Threads:    28
    
  ==> Input File <==

--------------------------------------------------------------------------
memory 120 GB

molecule {
0 1
Ag         0.00000        0.00000        0.00000
Ag         0.00000        0.00000        2.58711
 }

set dynamic_level 1
set basis Def2-TZVPPD

energy("GAM")
--------------------------------------------------------------------------

  Memory set to 111.759 GiB by Python driver.

Scratch directory: /tmp/

*** tstart() called on compute427.bc4.acrc.priv
*** at Sun Nov  7 05:06:22 2021

   => Loading Basis Set <=

    Name: DEF2-TZVPPD
    Role: ORBITAL
    Keyword: BASIS
    atoms 1-2 entry AG         line  2174 (ECP: line  3646) file /mnt/storage/home/zw18965/.conda/envs/p4env/share/psi4/basis/def2-tzvppd.gbs 

    !!!  WARNING: ECP capability is in beta. Please check occupations closely.  !!!


         ---------------------------------------------------------
                                   SCF
               by Justin Turney, Rob Parrish, Andy Simmonett
                          and Daniel G. A. Smith
                              RKS Reference
                       28 Threads, 114440 MiB Core
         ---------------------------------------------------------

  ==> Geometry <==

    Molecular point group: d2h
    Full point group: D_inf_h

    Geometry (in Angstrom), charge = 0, multiplicity = 1:

       Center              X                  Y                   Z               Mass       
    ------------   -----------------  -----------------  -----------------  -----------------
         AG           0.000000000000     0.000000000000    -1.293555000000   106.905091600000
         AG           0.000000000000     0.000000000000     1.293555000000   106.905091600000

  Running in d2h symmetry.

  Rotational constants: A = ************  B =      0.04712  C =      0.04712 [cm^-1]
  Rotational constants: A = ************  B =   1412.59939  C =   1412.59939 [MHz]
  Nuclear repulsion =   73.840297881369551

  Charge       = 0
  Multiplicity = 1
  Electrons    = 38
  Nalpha       = 19
  Nbeta        = 19

  ==> Algorithm <==

  SCF Algorithm Type is DF.
  DIIS enabled.
  MOM disabled.
  Fractional occupation disabled.
  Guess Type is SAD.
  Energy threshold   = 1.00e-06
  Density threshold  = 1.00e-06
  Integral threshold = 1.00e-12

  ==> Primary Basis <==

  Basis Set: DEF2-TZVPPD
    Blend: DEF2-TZVPPD
    Number of shells: 32
    Number of basis functions: 112
    Number of Cartesian functions: 142
    Spherical Harmonics?: true
    Max angular momentum: 4

  Core potential: DEF2-TZVPPD
    Number of shells: 8
    Number of ECP primitives: 28
    Number of ECP core electrons: 56
    Max angular momentum: 3

  ==> DFT Potential <==

   => Composite Functional: GAM <= 

   GAM GGA Minessota Exchange-Correlation Functional

    H.S. Yu, et al., Phys. Chem. Chem. Phys. 17, 12146, 2015


    Deriv               =              1
    GGA                 =           TRUE
    Meta                =          FALSE

    Exchange Hybrid     =          FALSE
    MP2 Hybrid          =          FALSE

   => Exchange Functionals <=

    1.0000     XC_GGA_X_GAM

   => Correlation Functionals <=

    1.0000     XC_GGA_C_GAM

   => LibXC Density Thresholds  <==

    XC_GGA_C_GAM:  1.00E-14 
    XC_GGA_X_GAM:  1.00E-14 

   => Molecular Quadrature <=

    Radial Scheme          =       TREUTLER
    Pruning Scheme         =           NONE
    Nuclear Scheme         =       TREUTLER

    BS radius alpha        =              1
    Pruning alpha          =              1
    Radial Points          =             75
    Spherical Points       =            302
    Total Points           =          41814
    Total Blocks           =            412
    Max Points             =            252
    Max Functions          =            110
    Weights Tolerance      =       1.00E-15

   => Loading Basis Set <=

    Name: (DEF2-TZVPPD AUX)
    Role: JKFIT
    Keyword: DF_BASIS_SCF
    atoms 1-2 entry AG         line  4364 file /mnt/storage/home/zw18965/.conda/envs/p4env/share/psi4/basis/def2-universal-jkfit.gbs 

  ==> Integral Setup <==

  DFHelper Memory: AOs need 0.055 GiB; user supplied 83.720 GiB. Using in-core AOs.

  ==> MemDFJK: Density-Fitted J/K Matrices <==

    J tasked:                   Yes
    K tasked:                    No
    wK tasked:                   No
    OpenMP threads:              28
    Memory [MiB]:             85729
    Algorithm:                 Core
    Schwarz Cutoff:           1E-12
    Mask sparsity (%):       1.1798
    Fitting Condition:        1E-10

   => Auxiliary Basis Set <=

  Basis Set: (DEF2-TZVPPD AUX)
    Blend: DEF2-UNIVERSAL-JKFIT
    Number of shells: 98
    Number of basis functions: 510
    Number of Cartesian functions: 768
    Spherical Harmonics?: true
    Max angular momentum: 6

  Cached 100.0% of DFT collocation blocks in 0.099 [GiB].

  Minimum eigenvalue in the overlap matrix is 9.3036050550E-03.
  Reciprocal condition number of the overlap matrix is 2.4053126480E-03.
    Using symmetric orthogonalization.

  ==> Pre-Iterations <==

  SCF Guess: Superposition of Atomic Densities via on-the-fly atomic UHF (no occupation information).

   -------------------------
    Irrep   Nso     Nmo    
   -------------------------
     Ag        23      23 
     B1g        7       7 
     B2g       13      13 
     B3g       13      13 
     Au         7       7 
     B1u       23      23 
     B2u       13      13 
     B3u       13      13 
   -------------------------
    Total     112     112
   -------------------------

  ==> Iterations <==

                           Total Energy        Delta E     RMS |[F,P]|

   @DF-RKS iter SAD:  -294.73590250611011   -2.94736e+02   0.00000e+00 
   @DF-RKS iter   1:  -295.14792329670644   -4.12021e-01   8.34830e-03 DIIS
   @DF-RKS iter   2:  -295.02577588505977    1.22147e-01   1.69484e-02 DIIS
   @DF-RKS iter   3:  -295.19560760932575   -1.69832e-01   8.65098e-04 DIIS
   @DF-RKS iter   4:  -295.19601126964960   -4.03660e-04   3.57071e-04 DIIS
   @DF-RKS iter   5:  -295.19607491360119   -6.36440e-05   4.88142e-05 DIIS
   @DF-RKS iter   6:  -295.19607598449807   -1.07090e-06   1.20248e-05 DIIS
   @DF-RKS iter   7:  -295.19607611380462   -1.29307e-07   4.46570e-07 DIIS
  Energy and wave function converged.


  ==> Post-Iterations <==

   Electrons on quadrature grid:
      Ntotal   =   37.9999764449 ; deviation = -2.356e-05 

    Orbital Energies [Eh]
    ---------------------

    Doubly Occupied:                                                      

       1Ag    -3.572510     1B1u   -3.572077     2Ag    -2.207471  
       2B1u   -2.202661     1B2u   -2.201780     1B3u   -2.201780  
       1B3g   -2.201335     1B2g   -2.201334     3Ag    -0.303883  
       2B2u   -0.287135     2B3u   -0.287135     1B1g   -0.269739  
       4Ag    -0.269738     1Au    -0.263417     3B1u   -0.263417  
       2B3g   -0.254934     2B2g   -0.254934     4B1u   -0.249396  
       5Ag    -0.184783  

    Virtual:                                                              

       5B1u   -0.112094     3B2u   -0.037942     3B3u   -0.037942  
       6Ag    -0.014990     3B3g    0.025361     3B2g    0.025361  
       6B1u    0.084234     7Ag     0.087966     7B1u    0.141157  
       8Ag     0.170876     4B2u    0.174861     4B3u    0.174861  
       4B3g    0.224794     4B2g    0.224794     8B1u    0.339828  
       9Ag     0.347492     2B1g    0.347493     5B2u    0.382492  
       5B3u    0.382492     9B1u    0.432117     2Au     0.432119  
      10Ag     0.541066     5B3g    0.551600     5B2g    0.551600  
      10B1u    0.678554    11Ag     1.383813     6B2u    1.491293  
       6B3u    1.491293     3B1g    1.528398    12Ag     1.528406  
       7B3u    1.540934     7B2u    1.540934     6B3g    1.542507  
       6B2g    1.542507     3Au     1.551013    11B1u    1.551017  
       7B3g    1.560871     7B2g    1.560871     8B2u    1.566621  
       8B3u    1.566621    12B1u    1.586154    13Ag     1.664339  
       8B3g    1.664744     8B2g    1.664744    13B1u    1.678308  
      14Ag     1.855075    15Ag     1.967767     4B1g    1.967794  
       9B2u    1.996252     9B3u    1.996252    14B1u    2.004438  
       4Au     2.004460     9B3g    2.063573     9B2g    2.063573  
      16Ag     2.080118    15B1u    2.208239    16B1u    2.254244  
      17Ag     4.635868    10B2u    4.639005    10B3u    4.639005  
       5B1g    4.672481    18Ag     4.672825    11B3u    4.682258  
      11B2u    4.682258    10B3g    4.683624    10B2g    4.683624  
       5Au     4.692807    17B1u    4.693151    11B3g    4.766221  
      11B2g    4.766221    18B1u    4.954035    12B2u    5.425407  
      12B3u    5.425407    19Ag     5.426707     6B1g    5.427029  
      20Ag     5.427111     6Au     5.427319    19B1u    5.427397  
      12B3g    5.428546    12B2g    5.428546    13B3u    5.428793  
      13B2u    5.428793    13B2g    5.428821    13B3g    5.428821  
      20B1u    5.430341    21Ag     5.430343     7B1g    5.431070  
       7Au     5.431070    21B1u    5.438161    22Ag    33.292663  
      22B1u   33.538458    23Ag   110.771487    23B1u  110.849663  

    Final Occupation by Irrep:
             Ag   B1g   B2g   B3g    Au   B1u   B2u   B3u 
    DOCC [     5,    1,    2,    2,    1,    4,    2,    2 ]

  @DF-RKS Final Energy:  -295.19607611380462

   => Energetics <=

    Nuclear Repulsion Energy =             73.8402978813695512
    One-Electron Energy =                -671.2250122736705862
    Two-Electron Energy =                 331.8347332821882674
    DFT Exchange-Correlation Energy =     -29.6460950036918547
    Empirical Dispersion Energy =           0.0000000000000000
    VV10 Nonlocal Energy =                  0.0000000000000000
    Total Energy =                       -295.1960761138046223

Computation Completed


Properties will be evaluated at   0.000000,   0.000000,   0.000000 [a0]

Properties computed using the SCF density matrix

  Nuclear Dipole Moment: [e a0]
     X:     0.0000      Y:     0.0000      Z:     0.0000

  Electronic Dipole Moment: [e a0]
     X:     0.0000      Y:     0.0000      Z:     0.0000

  Dipole Moment: [e a0]
     X:     0.0000      Y:     0.0000      Z:     0.0000     Total:     0.0000

  Dipole Moment: [D]
     X:     0.0000      Y:     0.0000      Z:     0.0000     Total:     0.0000


*** tstop() called on compute427.bc4.acrc.priv at Sun Nov  7 05:06:29 2021
Module time:
	user time   =      52.25 seconds =       0.87 minutes
	system time =       1.90 seconds =       0.03 minutes
	total time  =          7 seconds =       0.12 minutes
Total time:
	user time   =      52.25 seconds =       0.87 minutes
	system time =       1.90 seconds =       0.03 minutes
	total time  =          7 seconds =       0.12 minutes

    Psi4 stopped on: Sunday, 07 November 2021 05:06AM
    Psi4 wall time for execution: 0:00:06.68

*** Psi4 exiting successfully. Buy a developer a beer!
