
    -----------------------------------------------------------------------
          Psi4: An Open-Source Ab Initio Electronic Structure Package
                               Psi4 1.4.1 release

                         Git: Rev {HEAD} cd00f19 


    D. G. A. Smith, L. A. Burns, A. C. Simmonett, R. M. Parrish,
    M. C. Schieber, R. Galvelis, P. Kraus, H. Kruse, R. Di Remigio,
    A. Alenaizan, A. M. James, S. Lehtola, J. P. Misiewicz, M. Scheurer,
    R. A. Shaw, J. B. Schriber, Y. Xie, Z. L. Glick, D. A. Sirianni,
    J. S. O'Brien, J. M. Waldrop, A. Kumar, E. G. Hohenstein,
    B. P. Pritchard, B. R. Brooks, H. F. Schaefer III, A. Yu. Sokolov,
    K. Patkowski, A. E. DePrince III, U. Bozkaya, R. A. King,
    F. A. Evangelista, J. M. Turney, T. D. Crawford, C. D. Sherrill,
    J. Chem. Phys. 152(18) 184108 (2020). https://doi.org/10.1063/5.0006002

                            Additional Code Authors
    E. T. Seidl, C. L. Janssen, E. F. Valeev, M. L. Leininger,
    J. F. Gonthier, R. M. Richard, H. R. McAlexander, M. Saitow, X. Wang,
    P. Verma, and M. H. Lechner

             Previous Authors, Complete List of Code Contributors,
                       and Citations for Specific Modules
    https://github.com/psi4/psi4/blob/master/codemeta.json
    https://github.com/psi4/psi4/graphs/contributors
    http://psicode.org/psi4manual/master/introduction.html#citing-psifour

    -----------------------------------------------------------------------


    Psi4 started on: Sunday, 07 November 2021 05:06AM

    Process ID: 16954
    Host:       compute423.bc4.acrc.priv
    PSIDATADIR: /mnt/storage/home/zw18965/.conda/envs/p4env/share/psi4
    Memory:     500.0 MiB
    Threads:    28
    
  ==> Input File <==

--------------------------------------------------------------------------
memory 120 GB

molecule {
0 1
Ag         0.00000        0.00000        0.00000
H          0.00000        0.00000        1.61800
 }

set dynamic_level 1
set basis Def2-TZVPPD

energy("GAM")
--------------------------------------------------------------------------

  Memory set to 111.759 GiB by Python driver.

Scratch directory: /tmp/

*** tstart() called on compute423.bc4.acrc.priv
*** at Sun Nov  7 05:06:22 2021

   => Loading Basis Set <=

    Name: DEF2-TZVPPD
    Role: ORBITAL
    Keyword: BASIS
    atoms 1 entry AG         line  2174 (ECP: line  3646) file /mnt/storage/home/zw18965/.conda/envs/p4env/share/psi4/basis/def2-tzvppd.gbs 
    atoms 2 entry H          line    14 file /mnt/storage/home/zw18965/.conda/envs/p4env/share/psi4/basis/def2-tzvppd.gbs 

    !!!  WARNING: ECP capability is in beta. Please check occupations closely.  !!!


         ---------------------------------------------------------
                                   SCF
               by Justin Turney, Rob Parrish, Andy Simmonett
                          and Daniel G. A. Smith
                              RKS Reference
                       28 Threads, 114440 MiB Core
         ---------------------------------------------------------

  ==> Geometry <==

    Molecular point group: c2v
    Full point group: C_inf_v

    Geometry (in Angstrom), charge = 0, multiplicity = 1:

       Center              X                  Y                   Z               Mass       
    ------------   -----------------  -----------------  -----------------  -----------------
         AG           0.000000000000     0.000000000000    -0.015110896388   106.905091600000
         H            0.000000000000     0.000000000000     1.602889103612     1.007825032230

  Running in c2v symmetry.

  Rotational constants: A = ************  B =      6.44955  C =      6.44955 [cm^-1]
  Rotational constants: A = ************  B = 193352.62136  C = 193352.62136 [MHz]
  Nuclear repulsion =    6.214071077088998

  Charge       = 0
  Multiplicity = 1
  Electrons    = 20
  Nalpha       = 10
  Nbeta        = 10

  ==> Algorithm <==

  SCF Algorithm Type is DF.
  DIIS enabled.
  MOM disabled.
  Fractional occupation disabled.
  Guess Type is SAD.
  Energy threshold   = 1.00e-06
  Density threshold  = 1.00e-06
  Integral threshold = 1.00e-12

  ==> Primary Basis <==

  Basis Set: DEF2-TZVPPD
    Blend: DEF2-TZVPPD
    Number of shells: 23
    Number of basis functions: 73
    Number of Cartesian functions: 89
    Spherical Harmonics?: true
    Max angular momentum: 4

  Core potential: DEF2-TZVPPD
    Number of shells: 4
    Number of ECP primitives: 14
    Number of ECP core electrons: 28
    Max angular momentum: 3

  ==> DFT Potential <==

   => Composite Functional: GAM <= 

   GAM GGA Minessota Exchange-Correlation Functional

    H.S. Yu, et al., Phys. Chem. Chem. Phys. 17, 12146, 2015


    Deriv               =              1
    GGA                 =           TRUE
    Meta                =          FALSE

    Exchange Hybrid     =          FALSE
    MP2 Hybrid          =          FALSE

   => Exchange Functionals <=

    1.0000     XC_GGA_X_GAM

   => Correlation Functionals <=

    1.0000     XC_GGA_C_GAM

   => LibXC Density Thresholds  <==

    XC_GGA_C_GAM:  1.00E-14 
    XC_GGA_X_GAM:  1.00E-14 

   => Molecular Quadrature <=

    Radial Scheme          =       TREUTLER
    Pruning Scheme         =           NONE
    Nuclear Scheme         =       TREUTLER

    BS radius alpha        =              1
    Pruning alpha          =              1
    Radial Points          =             75
    Spherical Points       =            302
    Total Points           =          43134
    Total Blocks           =            396
    Max Points             =            256
    Max Functions          =             73
    Weights Tolerance      =       1.00E-15

   => Loading Basis Set <=

    Name: (DEF2-TZVPPD AUX)
    Role: JKFIT
    Keyword: DF_BASIS_SCF
    atoms 1 entry AG         line  4364 file /mnt/storage/home/zw18965/.conda/envs/p4env/share/psi4/basis/def2-universal-jkfit.gbs 
    atoms 2 entry H          line    18 file /mnt/storage/home/zw18965/.conda/envs/p4env/share/psi4/basis/def2-universal-jkfit.gbs 

  ==> Integral Setup <==

  DFHelper Memory: AOs need 0.014 GiB; user supplied 83.737 GiB. Using in-core AOs.

  ==> MemDFJK: Density-Fitted J/K Matrices <==

    J tasked:                   Yes
    K tasked:                    No
    wK tasked:                   No
    OpenMP threads:              28
    Memory [MiB]:             85746
    Algorithm:                 Core
    Schwarz Cutoff:           1E-12
    Mask sparsity (%):       0.0000
    Fitting Condition:        1E-10

   => Auxiliary Basis Set <=

  Basis Set: (DEF2-TZVPPD AUX)
    Blend: DEF2-UNIVERSAL-JKFIT
    Number of shells: 55
    Number of basis functions: 273
    Number of Cartesian functions: 404
    Spherical Harmonics?: true
    Max angular momentum: 6

  Cached 100.0% of DFT collocation blocks in 0.082 [GiB].

  Minimum eigenvalue in the overlap matrix is 3.4168603177E-03.
  Reciprocal condition number of the overlap matrix is 8.1811120032E-04.
    Using symmetric orthogonalization.

  ==> Pre-Iterations <==

  SCF Guess: Superposition of Atomic Densities via on-the-fly atomic UHF (no occupation information).

   -------------------------
    Irrep   Nso     Nmo    
   -------------------------
     A1        31      31 
     A2         8       8 
     B1        17      17 
     B2        17      17 
   -------------------------
    Total      73      73
   -------------------------

  ==> Iterations <==

                           Total Energy        Delta E     RMS |[F,P]|

   @DF-RKS iter SAD:  -147.87987686732973   -1.47880e+02   0.00000e+00 
   @DF-RKS iter   1:  -148.09009519826435   -2.10218e-01   7.89367e-03 DIIS
   @DF-RKS iter   2:  -147.81854536521183    2.71550e-01   1.82231e-02 DIIS
   @DF-RKS iter   3:  -148.14881762892270   -3.30272e-01   2.09621e-03 DIIS
   @DF-RKS iter   4:  -148.15034552623376   -1.52790e-03   1.38087e-03 DIIS
   @DF-RKS iter   5:  -148.15106372416182   -7.18198e-04   3.75660e-04 DIIS
   @DF-RKS iter   6:  -148.15125403975082   -1.90316e-04   6.25964e-05 DIIS
   @DF-RKS iter   7:  -148.15125946377566   -5.42402e-06   1.32497e-05 DIIS
   @DF-RKS iter   8:  -148.15125960089316   -1.37117e-07   1.79215e-06 DIIS
   @DF-RKS iter   9:  -148.15125960448114   -3.58799e-09   2.44526e-07 DIIS
  Energy and wave function converged.


  ==> Post-Iterations <==

   Electrons on quadrature grid:
      Ntotal   =   19.9999989566 ; deviation = -1.043e-06 

    Orbital Energies [Eh]
    ---------------------

    Doubly Occupied:                                                      

       1A1    -3.594946     2A1    -2.230753     1B1    -2.221909  
       1B2    -2.221909     3A1    -0.342333     2B1    -0.291551  
       2B2    -0.291551     4A1    -0.283371     1A2    -0.283371  
       5A1    -0.211879  

    Virtual:                                                              

       6A1    -0.101744     3B2    -0.019725     3B1    -0.019725  
       7A1     0.066586     8A1     0.089109     9A1     0.154814  
       4B2     0.160096     4B1     0.160096     5B2     0.198513  
       5B1     0.198513    10A1     0.359472     2A2     0.376560  
      11A1     0.376560    12A1     0.409824     6B1     0.486523  
       6B2     0.486523    13A1     0.553483     7B1     0.823059  
       7B2     0.823059    14A1     1.020455    15A1     1.516588  
       3A2     1.516590     8B1     1.527238     8B2     1.527238  
       9B1     1.549054     9B2     1.549054    10B1     1.591533  
      10B2     1.591533    16A1     1.611703    17A1     1.778895  
      18A1     1.949984    19A1     1.965905     4A2     1.965906  
      11B1     2.027592    11B2     2.027592    20A1     2.142445  
      21A1     2.557044    22A1     3.166203     5A2     3.166379  
      12B1     3.359453    12B2     3.359453    13B1     3.783246  
      13B2     3.783246    23A1     3.815299    24A1     4.419352  
      14B1     4.663935    14B2     4.663935    25A1     4.675857  
       6A2     4.675859    15B1     4.853856    15B2     4.853856  
      26A1     5.064220    16B2     5.410446    16B1     5.410446  
      27A1     5.412413     7A2     5.412413    28A1     5.414404  
       8A2     5.414404    17B1     5.538682    17B2     5.538682  
      29A1     5.985634    30A1    33.495498    31A1   110.816234  

    Final Occupation by Irrep:
             A1    A2    B1    B2 
    DOCC [     5,    1,    2,    2 ]

  @DF-RKS Final Energy:  -148.15125960448114

   => Energetics <=

    Nuclear Repulsion Energy =              6.2140710770889980
    One-Electron Energy =                -274.3908121768727142
    Two-Electron Energy =                 135.1566579647938227
    DFT Exchange-Correlation Energy =     -15.1311764694912547
    Empirical Dispersion Energy =           0.0000000000000000
    VV10 Nonlocal Energy =                  0.0000000000000000
    Total Energy =                       -148.1512596044811687

Computation Completed


Properties will be evaluated at   0.000000,   0.000000,   0.000000 [a0]

Properties computed using the SCF density matrix

  Nuclear Dipole Moment: [e a0]
     X:     0.0000      Y:     0.0000      Z:     2.4865

  Electronic Dipole Moment: [e a0]
     X:     0.0000      Y:     0.0000      Z:    -3.4946

  Dipole Moment: [e a0]
     X:     0.0000      Y:     0.0000      Z:    -1.0082     Total:     1.0082

  Dipole Moment: [D]
     X:     0.0000      Y:     0.0000      Z:    -2.5625     Total:     2.5625


*** tstop() called on compute423.bc4.acrc.priv at Sun Nov  7 05:06:27 2021
Module time:
	user time   =      42.12 seconds =       0.70 minutes
	system time =       1.58 seconds =       0.03 minutes
	total time  =          5 seconds =       0.08 minutes
Total time:
	user time   =      42.12 seconds =       0.70 minutes
	system time =       1.58 seconds =       0.03 minutes
	total time  =          5 seconds =       0.08 minutes

    Psi4 stopped on: Sunday, 07 November 2021 05:06AM
    Psi4 wall time for execution: 0:00:04.47

*** Psi4 exiting successfully. Buy a developer a beer!
