
    -----------------------------------------------------------------------
          Psi4: An Open-Source Ab Initio Electronic Structure Package
                               Psi4 1.4.1 release

                         Git: Rev {HEAD} cd00f19 


    D. G. A. Smith, L. A. Burns, A. C. Simmonett, R. M. Parrish,
    M. C. Schieber, R. Galvelis, P. Kraus, H. Kruse, R. Di Remigio,
    A. Alenaizan, A. M. James, S. Lehtola, J. P. Misiewicz, M. Scheurer,
    R. A. Shaw, J. B. Schriber, Y. Xie, Z. L. Glick, D. A. Sirianni,
    J. S. O'Brien, J. M. Waldrop, A. Kumar, E. G. Hohenstein,
    B. P. Pritchard, B. R. Brooks, H. F. Schaefer III, A. Yu. Sokolov,
    K. Patkowski, A. E. DePrince III, U. Bozkaya, R. A. King,
    F. A. Evangelista, J. M. Turney, T. D. Crawford, C. D. Sherrill,
    J. Chem. Phys. 152(18) 184108 (2020). https://doi.org/10.1063/5.0006002

                            Additional Code Authors
    E. T. Seidl, C. L. Janssen, E. F. Valeev, M. L. Leininger,
    J. F. Gonthier, R. M. Richard, H. R. McAlexander, M. Saitow, X. Wang,
    P. Verma, and M. H. Lechner

             Previous Authors, Complete List of Code Contributors,
                       and Citations for Specific Modules
    https://github.com/psi4/psi4/blob/master/codemeta.json
    https://github.com/psi4/psi4/graphs/contributors
    http://psicode.org/psi4manual/master/introduction.html#citing-psifour

    -----------------------------------------------------------------------


    Psi4 started on: Sunday, 07 November 2021 05:07AM

    Process ID: 14315
    Host:       compute191.bc4.acrc.priv
    PSIDATADIR: /mnt/storage/home/zw18965/.conda/envs/p4env/share/psi4
    Memory:     500.0 MiB
    Threads:    28
    
  ==> Input File <==

--------------------------------------------------------------------------
memory 120 GB

molecule {
0 2
Al         0.00000        0.00000        0.00000
 }

set reference uks
set dynamic_level 1
set basis Def2-TZVPPD

energy("GAM")
--------------------------------------------------------------------------

  Memory set to 111.759 GiB by Python driver.

Scratch directory: /tmp/

*** tstart() called on compute191.bc4.acrc.priv
*** at Sun Nov  7 05:07:20 2021

   => Loading Basis Set <=

    Name: DEF2-TZVPPD
    Role: ORBITAL
    Keyword: BASIS
    atoms 1 entry AL         line   417 file /mnt/storage/home/zw18965/.conda/envs/p4env/share/psi4/basis/def2-tzvppd.gbs 


         ---------------------------------------------------------
                                   SCF
               by Justin Turney, Rob Parrish, Andy Simmonett
                          and Daniel G. A. Smith
                              UKS Reference
                       28 Threads, 114440 MiB Core
         ---------------------------------------------------------

  ==> Geometry <==

    Molecular point group: d2h
    Geometry (in Angstrom), charge = 0, multiplicity = 2:

       Center              X                  Y                   Z               Mass       
    ------------   -----------------  -----------------  -----------------  -----------------
         AL           0.000000000000     0.000000000000     0.000000000000    26.981538530000

  Running in d2h symmetry.

  Rotational constants: A = ************  B = ************  C = ************ [cm^-1]
  Rotational constants: A = ************  B = ************  C = ************ [MHz]
  Nuclear repulsion =    0.000000000000000

  Charge       = 0
  Multiplicity = 2
  Electrons    = 13
  Nalpha       = 7
  Nbeta        = 6

  ==> Algorithm <==

  SCF Algorithm Type is DF.
  DIIS enabled.
  MOM disabled.
  Fractional occupation disabled.
  Guess Type is CORE.
  Energy threshold   = 1.00e-06
  Density threshold  = 1.00e-06
  Integral threshold = 1.00e-12

  ==> Primary Basis <==

  Basis Set: DEF2-TZVPPD
    Blend: DEF2-TZVPPD
    Number of shells: 16
    Number of basis functions: 48
    Number of Cartesian functions: 55
    Spherical Harmonics?: true
    Max angular momentum: 3

  ==> DFT Potential <==

   => Composite Functional: GAM <= 

   GAM GGA Minessota Exchange-Correlation Functional

    H.S. Yu, et al., Phys. Chem. Chem. Phys. 17, 12146, 2015


    Deriv               =              1
    GGA                 =           TRUE
    Meta                =          FALSE

    Exchange Hybrid     =          FALSE
    MP2 Hybrid          =          FALSE

   => Exchange Functionals <=

    1.0000     XC_GGA_X_GAM

   => Correlation Functionals <=

    1.0000     XC_GGA_C_GAM

   => LibXC Density Thresholds  <==

    XC_GGA_C_GAM:  1.00E-14 
    XC_GGA_X_GAM:  1.00E-14 

   => Molecular Quadrature <=

    Radial Scheme          =       TREUTLER
    Pruning Scheme         =           NONE
    Nuclear Scheme         =       TREUTLER

    BS radius alpha        =              1
    Pruning alpha          =              1
    Radial Points          =             75
    Spherical Points       =            302
    Total Points           =          22016
    Total Blocks           =            242
    Max Points             =            245
    Max Functions          =             48
    Weights Tolerance      =       1.00E-15

   => Loading Basis Set <=

    Name: (DEF2-TZVPPD AUX)
    Role: JKFIT
    Keyword: DF_BASIS_SCF
    atoms 1 entry AL         line   654 file /mnt/storage/home/zw18965/.conda/envs/p4env/share/psi4/basis/def2-universal-jkfit.gbs 

  ==> Integral Setup <==

  DFHelper Memory: AOs need 0.003 GiB; user supplied 83.791 GiB. Using in-core AOs.

  ==> MemDFJK: Density-Fitted J/K Matrices <==

    J tasked:                   Yes
    K tasked:                    No
    wK tasked:                   No
    OpenMP threads:              28
    Memory [MiB]:             85802
    Algorithm:                 Core
    Schwarz Cutoff:           1E-12
    Mask sparsity (%):       0.0000
    Fitting Condition:        1E-10

   => Auxiliary Basis Set <=

  Basis Set: (DEF2-TZVPPD AUX)
    Blend: DEF2-UNIVERSAL-JKFIT
    Number of shells: 38
    Number of basis functions: 128
    Number of Cartesian functions: 155
    Spherical Harmonics?: true
    Max angular momentum: 4

  Cached 100.0% of DFT collocation blocks in 0.028 [GiB].

  Minimum eigenvalue in the overlap matrix is 2.4089687170E-02.
  Reciprocal condition number of the overlap matrix is 8.2205348864E-03.
    Using symmetric orthogonalization.

  ==> Pre-Iterations <==

  SCF Guess: Core (One-Electron) Hamiltonian.

   -------------------------------------------------------
    Irrep   Nso     Nmo     Nalpha   Nbeta   Ndocc  Nsocc
   -------------------------------------------------------
     Ag        14      14       2       2       2       0
     B1g        4       4       0       0       0       0
     B2g        4       4       0       0       0       0
     B3g        4       4       0       0       0       0
     Au         1       1       0       0       0       0
     B1u        7       7       2       1       1       1
     B2u        7       7       2       2       2       0
     B3u        7       7       1       1       1       0
   -------------------------------------------------------
    Total      48      48       7       6       6       1
   -------------------------------------------------------

  ==> Iterations <==

                           Total Energy        Delta E     RMS |[F,P]|

    Occupation by irrep:
             Ag   B1g   B2g   B3g    Au   B1u   B2u   B3u 
    DOCC [     4,    0,    0,    0,    0,    0,    1,    1 ]
    SOCC [     0,    0,    0,    0,    0,    1,    0,    0 ]

   @DF-UKS iter   1:  -217.67506095849313   -2.17675e+02   6.28633e-01 DIIS
    Occupation by irrep:
             Ag   B1g   B2g   B3g    Au   B1u   B2u   B3u 
    DOCC [     3,    0,    0,    0,    0,    1,    1,    1 ]
    SOCC [     0,    0,    0,    0,    0,    1,    0,    0 ]

   @DF-UKS iter   2:  -199.96147461701037    1.77136e+01   3.96492e-01 DIIS
   @DF-UKS iter   3:  -239.37844826544284   -3.94170e+01   2.19847e-01 DIIS
   @DF-UKS iter   4:  -242.09693845498469   -2.71849e+00   4.70936e-02 DIIS
   @DF-UKS iter   5:  -242.33703147565859   -2.40093e-01   2.26731e-03 DIIS
   @DF-UKS iter   6:  -242.33946346640289   -2.43199e-03   7.87582e-04 DIIS
   @DF-UKS iter   7:  -242.34026032173293   -7.96855e-04   7.94749e-04 DIIS
   @DF-UKS iter   8:  -242.34046114046208   -2.00819e-04   5.96443e-04 DIIS
   @DF-UKS iter   9:  -242.34041710006454    4.40404e-05   4.97174e-04 DIIS
   @DF-UKS iter  10:  -242.34068534085239   -2.68241e-04   1.35333e-04 DIIS
   @DF-UKS iter  11:  -242.34069855876979   -1.32179e-05   1.00881e-05 DIIS
   @DF-UKS iter  12:  -242.34069832189419    2.36876e-07   1.95055e-05 DIIS
   @DF-UKS iter  13:  -242.34069861286372   -2.90970e-07   2.07892e-06 DIIS
   @DF-UKS iter  14:  -242.34069861543119   -2.56748e-09   6.06012e-07 DIIS
  Energy and wave function converged.


  ==> Post-Iterations <==

   Electrons on quadrature grid:
      Nalpha   =    6.9999999888 ; deviation = -1.116e-08
      Nbeta    =    5.9999999888 ; deviation = -1.116e-08
      Ntotal   =   12.9999999777 ; deviation = -2.232e-08 

   @Spin Contamination Metric:   9.450253923E-03
   @S^2 Expected:                7.500000000E-01
   @S^2 Observed:                7.594502539E-01
   @S   Expected:                5.000000000E-01
   @S   Observed:                5.000000000E-01

    Orbital Energies [Eh]
    ---------------------

    Alpha Occupied:                                                       

       1Ag   -55.257220     2Ag    -4.019548     1B2u   -2.625135  
       1B3u   -2.625135     1B1u   -2.618188     3Ag    -0.287104  
       2B1u   -0.111627  

    Alpha Virtual:                                                        

       2B2u   -0.097218     2B3u   -0.097218     4Ag     0.014228  
       5Ag     0.053165     1B3g    0.054075     1B2g    0.054075  
       6Ag     0.061932     1B1g    0.061934     3B1u    0.168163  
       3B2u    0.184504     3B3u    0.184504     2B2g    0.213910  
       2B3g    0.213910     7Ag     0.217650     8Ag     0.223255  
       2B1g    0.223258     9Ag     0.240355     4B1u    0.691530  
       4B2u    0.692209     4B3u    0.692209     5B1u    0.695619  
       1Au     0.695619     5B2u    0.708193     5B3u    0.708193  
       3B3g    0.712419     3B2g    0.712419    10Ag     0.726410  
       3B1g    0.726411    11Ag     0.727901     6B2u    1.756509  
       6B3u    1.756509     6B1u    1.763478     4B3g    3.059828  
       4B2g    3.059828    12Ag     3.059979     4B1g    3.059979  
      13Ag     3.062716    14Ag     6.284389     7B2u    8.934016  
       7B3u    8.934016     7B1u    8.945828  

    Beta Occupied:                                                        

       1Ag   -55.254879     2Ag    -4.017978     1B2u   -2.623178  
       1B3u   -2.623178     1B1u   -2.613360     3Ag    -0.258400  

    Beta Virtual:                                                         

       2B3u   -0.092499     2B2u   -0.092499     2B1u   -0.083165  
       4Ag    -0.052409     1B3g    0.003383     1B2g    0.003383  
       5Ag     0.035710     1B1g    0.045401     6Ag     0.045401  
       3B1u    0.155965     3B3u    0.167941     3B2u    0.167941  
       2B1g    0.227572     7Ag     0.227572     2B3g    0.244846  
       2B2g    0.244846     8Ag     0.248443     9Ag     0.259726  
       4B2u    0.711977     4B3u    0.711977     3B1g    0.730813  
      10Ag     0.730813     1Au     0.736569     4B1u    0.736569  
       3B2g    0.751551     3B3g    0.751551     5B3u    0.752345  
       5B2u    0.752345     5B1u    0.757948    11Ag     0.759301  
       6B3u    1.762420     6B2u    1.762420     6B1u    1.791768  
      12Ag     3.059704     4B1g    3.059704     4B2g    3.069687  
       4B3g    3.069687    13Ag     3.073785    14Ag     6.288526  
       7B3u    8.936853     7B2u    8.936853     7B1u    8.955256  

    Final Occupation by Irrep:
             Ag   B1g   B2g   B3g    Au   B1u   B2u   B3u 
    DOCC [     3,    0,    0,    0,    0,    1,    1,    1 ]
    SOCC [     0,    0,    0,    0,    0,    1,    0,    0 ]

  @DF-UKS Final Energy:  -242.34069861543119

   => Energetics <=

    Nuclear Repulsion Energy =              0.0000000000000000
    One-Electron Energy =                -337.0738096762941609
    Two-Electron Energy =                 113.3330448799165140
    DFT Exchange-Correlation Energy =     -18.5999338190535681
    Empirical Dispersion Energy =           0.0000000000000000
    VV10 Nonlocal Energy =                  0.0000000000000000
    Total Energy =                       -242.3406986154312222

  UHF NO Occupations:
  HONO-2 :    1B1u 1.9999988
  HONO-1 :    3 Ag 1.9952658
  HONO-0 :    2B1u 1.0000000
  LUNO+0 :    4 Ag 0.0047342
  LUNO+1 :    3B1u 0.0000012
  LUNO+2 :    2B2u 0.0000004
  LUNO+3 :    2B3u 0.0000004


Computation Completed


Properties will be evaluated at   0.000000,   0.000000,   0.000000 [a0]

Properties computed using the SCF density matrix

  Nuclear Dipole Moment: [e a0]
     X:     0.0000      Y:     0.0000      Z:     0.0000

  Electronic Dipole Moment: [e a0]
     X:     0.0000      Y:     0.0000      Z:     0.0000

  Dipole Moment: [e a0]
     X:     0.0000      Y:     0.0000      Z:     0.0000     Total:     0.0000

  Dipole Moment: [D]
     X:     0.0000      Y:     0.0000      Z:     0.0000     Total:     0.0000


*** tstop() called on compute191.bc4.acrc.priv at Sun Nov  7 05:07:22 2021
Module time:
	user time   =      40.96 seconds =       0.68 minutes
	system time =       1.97 seconds =       0.03 minutes
	total time  =          2 seconds =       0.03 minutes
Total time:
	user time   =      40.96 seconds =       0.68 minutes
	system time =       1.97 seconds =       0.03 minutes
	total time  =          2 seconds =       0.03 minutes

    Psi4 stopped on: Sunday, 07 November 2021 05:07AM
    Psi4 wall time for execution: 0:00:01.62

*** Psi4 exiting successfully. Buy a developer a beer!
