
    -----------------------------------------------------------------------
          Psi4: An Open-Source Ab Initio Electronic Structure Package
                               Psi4 1.4.1 release

                         Git: Rev {HEAD} cd00f19 


    D. G. A. Smith, L. A. Burns, A. C. Simmonett, R. M. Parrish,
    M. C. Schieber, R. Galvelis, P. Kraus, H. Kruse, R. Di Remigio,
    A. Alenaizan, A. M. James, S. Lehtola, J. P. Misiewicz, M. Scheurer,
    R. A. Shaw, J. B. Schriber, Y. Xie, Z. L. Glick, D. A. Sirianni,
    J. S. O'Brien, J. M. Waldrop, A. Kumar, E. G. Hohenstein,
    B. P. Pritchard, B. R. Brooks, H. F. Schaefer III, A. Yu. Sokolov,
    K. Patkowski, A. E. DePrince III, U. Bozkaya, R. A. King,
    F. A. Evangelista, J. M. Turney, T. D. Crawford, C. D. Sherrill,
    J. Chem. Phys. 152(18) 184108 (2020). https://doi.org/10.1063/5.0006002

                            Additional Code Authors
    E. T. Seidl, C. L. Janssen, E. F. Valeev, M. L. Leininger,
    J. F. Gonthier, R. M. Richard, H. R. McAlexander, M. Saitow, X. Wang,
    P. Verma, and M. H. Lechner

             Previous Authors, Complete List of Code Contributors,
                       and Citations for Specific Modules
    https://github.com/psi4/psi4/blob/master/codemeta.json
    https://github.com/psi4/psi4/graphs/contributors
    http://psicode.org/psi4manual/master/introduction.html#citing-psifour

    -----------------------------------------------------------------------


    Psi4 started on: Sunday, 07 November 2021 05:06AM

    Process ID: 20032
    Host:       compute304.bc4.acrc.priv
    PSIDATADIR: /mnt/storage/home/zw18965/.conda/envs/p4env/share/psi4
    Memory:     500.0 MiB
    Threads:    28
    
  ==> Input File <==

--------------------------------------------------------------------------
memory 120 GB

molecule {
0 1
Cl         0.00000        0.00000       -1.07053
Al         0.00000        0.00000        1.07053
 }

set dynamic_level 1
set basis Def2-TZVPPD

energy("GAM")
--------------------------------------------------------------------------

  Memory set to 111.759 GiB by Python driver.

Scratch directory: /tmp/

*** tstart() called on compute304.bc4.acrc.priv
*** at Sun Nov  7 05:06:22 2021

   => Loading Basis Set <=

    Name: DEF2-TZVPPD
    Role: ORBITAL
    Keyword: BASIS
    atoms 1 entry CL         line   607 file /mnt/storage/home/zw18965/.conda/envs/p4env/share/psi4/basis/def2-tzvppd.gbs 
    atoms 2 entry AL         line   417 file /mnt/storage/home/zw18965/.conda/envs/p4env/share/psi4/basis/def2-tzvppd.gbs 


         ---------------------------------------------------------
                                   SCF
               by Justin Turney, Rob Parrish, Andy Simmonett
                          and Daniel G. A. Smith
                              RKS Reference
                       28 Threads, 114440 MiB Core
         ---------------------------------------------------------

  ==> Geometry <==

    Molecular point group: c2v
    Full point group: C_inf_v

    Geometry (in Angstrom), charge = 0, multiplicity = 1:

       Center              X                  Y                   Z               Mass       
    ------------   -----------------  -----------------  -----------------  -----------------
         CL           0.000000000000     0.000000000000    -0.932505699397    34.968852682000
         AL           0.000000000000     0.000000000000     1.208554300603    26.981538530000

  Running in c2v symmetry.

  Rotational constants: A = ************  B =      0.24145  C =      0.24145 [cm^-1]
  Rotational constants: A = ************  B =   7238.61508  C =   7238.61508 [MHz]
  Nuclear repulsion =   54.621618991560261

  Charge       = 0
  Multiplicity = 1
  Electrons    = 30
  Nalpha       = 15
  Nbeta        = 15

  ==> Algorithm <==

  SCF Algorithm Type is DF.
  DIIS enabled.
  MOM disabled.
  Fractional occupation disabled.
  Guess Type is SAD.
  Energy threshold   = 1.00e-06
  Density threshold  = 1.00e-06
  Integral threshold = 1.00e-12

  ==> Primary Basis <==

  Basis Set: DEF2-TZVPPD
    Blend: DEF2-TZVPPD
    Number of shells: 33
    Number of basis functions: 99
    Number of Cartesian functions: 113
    Spherical Harmonics?: true
    Max angular momentum: 3

  ==> DFT Potential <==

   => Composite Functional: GAM <= 

   GAM GGA Minessota Exchange-Correlation Functional

    H.S. Yu, et al., Phys. Chem. Chem. Phys. 17, 12146, 2015


    Deriv               =              1
    GGA                 =           TRUE
    Meta                =          FALSE

    Exchange Hybrid     =          FALSE
    MP2 Hybrid          =          FALSE

   => Exchange Functionals <=

    1.0000     XC_GGA_X_GAM

   => Correlation Functionals <=

    1.0000     XC_GGA_C_GAM

   => LibXC Density Thresholds  <==

    XC_GGA_C_GAM:  1.00E-14 
    XC_GGA_X_GAM:  1.00E-14 

   => Molecular Quadrature <=

    Radial Scheme          =       TREUTLER
    Pruning Scheme         =           NONE
    Nuclear Scheme         =       TREUTLER

    BS radius alpha        =              1
    Pruning alpha          =              1
    Radial Points          =             75
    Spherical Points       =            302
    Total Points           =          44074
    Total Blocks           =            428
    Max Points             =            255
    Max Functions          =             98
    Weights Tolerance      =       1.00E-15

   => Loading Basis Set <=

    Name: (DEF2-TZVPPD AUX)
    Role: JKFIT
    Keyword: DF_BASIS_SCF
    atoms 1 entry CL         line   986 file /mnt/storage/home/zw18965/.conda/envs/p4env/share/psi4/basis/def2-universal-jkfit.gbs 
    atoms 2 entry AL         line   654 file /mnt/storage/home/zw18965/.conda/envs/p4env/share/psi4/basis/def2-universal-jkfit.gbs 

  ==> Integral Setup <==

  DFHelper Memory: AOs need 0.023 GiB; user supplied 83.717 GiB. Using in-core AOs.

  ==> MemDFJK: Density-Fitted J/K Matrices <==

    J tasked:                   Yes
    K tasked:                    No
    wK tasked:                   No
    OpenMP threads:              28
    Memory [MiB]:             85726
    Algorithm:                 Core
    Schwarz Cutoff:           1E-12
    Mask sparsity (%):       1.3672
    Fitting Condition:        1E-10

   => Auxiliary Basis Set <=

  Basis Set: (DEF2-TZVPPD AUX)
    Blend: DEF2-UNIVERSAL-JKFIT
    Number of shells: 76
    Number of basis functions: 256
    Number of Cartesian functions: 310
    Spherical Harmonics?: true
    Max angular momentum: 4

  Cached 100.0% of DFT collocation blocks in 0.102 [GiB].

  Minimum eigenvalue in the overlap matrix is 1.5138583548E-03.
  Reciprocal condition number of the overlap matrix is 3.2671110224E-04.
    Using symmetric orthogonalization.

  ==> Pre-Iterations <==

  SCF Guess: Superposition of Atomic Densities via on-the-fly atomic UHF (no occupation information).

   -------------------------
    Irrep   Nso     Nmo    
   -------------------------
     A1        43      43 
     A2        10      10 
     B1        23      23 
     B2        23      23 
   -------------------------
    Total      99      99
   -------------------------

  ==> Iterations <==

                           Total Energy        Delta E     RMS |[F,P]|

   @DF-RKS iter SAD:  -702.32470621739162   -7.02325e+02   0.00000e+00 
   @DF-RKS iter   1:  -702.57245181918370   -2.47746e-01   1.02553e-02 DIIS
   @DF-RKS iter   2:  -702.46154878555444    1.10903e-01   1.16538e-02 DIIS
   @DF-RKS iter   3:  -702.64486552386484   -1.83317e-01   3.30342e-03 DIIS
   @DF-RKS iter   4:  -702.66545934202702   -2.05938e-02   6.35422e-04 DIIS
   @DF-RKS iter   5:  -702.66591536162116   -4.56020e-04   2.59162e-04 DIIS
   @DF-RKS iter   6:  -702.66599281672563   -7.74551e-05   5.18156e-05 DIIS
   @DF-RKS iter   7:  -702.66599845549308   -5.63877e-06   4.03136e-06 DIIS
   @DF-RKS iter   8:  -702.66599847673854   -2.12455e-08   5.63239e-07 DIIS
  Energy and wave function converged.


  ==> Post-Iterations <==

   Electrons on quadrature grid:
      Ntotal   =   30.0000006867 ; deviation = 6.867e-07 

    Orbital Energies [Eh]
    ---------------------

    Doubly Occupied:                                                      

       1A1  -100.382934     2A1   -55.263142     3A1    -9.244114  
       4A1    -7.085929     1B1    -7.084302     1B2    -7.084302  
       5A1    -4.026165     2B2    -2.630639     2B1    -2.630639  
       6A1    -2.625164     7A1    -0.730110     8A1    -0.362187  
       3B1    -0.289282     3B2    -0.289282     9A1    -0.219360  

    Virtual:                                                              

       4B1    -0.083209     4B2    -0.083209    10A1    -0.010878  
      11A1     0.013475     1A2     0.051321    12A1     0.051321  
      13A1     0.053250     5B2     0.058358     5B1     0.058358  
       6B2     0.076877     6B1     0.076877    14A1     0.111041  
      15A1     0.135763     2A2     0.183708    16A1     0.183710  
       7B2     0.188144     7B1     0.188144    17A1     0.204632  
       8B2     0.228154     8B1     0.228154     3A2     0.228232  
      18A1     0.228233    19A1     0.237225     9B2     0.319091  
       9B1     0.319091    20A1     0.339234    21A1     0.387357  
      10B1     0.494143    10B2     0.494143    22A1     0.527710  
      11B2     0.556069    11B1     0.556069     4A2     0.556390  
      23A1     0.556392    12B1     0.704878    12B2     0.704878  
      24A1     0.719939     5A2     0.722749    25A1     0.722750  
      13B2     0.752043    13B1     0.752043     6A2     0.752547  
      26A1     0.752549    27A1     0.807583    14B2     0.954211  
      14B1     0.954211    28A1     1.026747    29A1     1.057882  
      15B2     1.798567    15B1     1.798567    30A1     1.860466  
       7A2     1.860471    16B1     1.917354    16B2     1.917354  
      31A1     1.926586    17B1     2.007349    17B2     2.007349  
      32A1     2.049811     8A2     2.049815    33A1     2.135568  
      18B2     2.250808    18B1     2.250808    19B2     2.293868  
      19B1     2.293868    34A1     2.353424    35A1     2.650824  
      36A1     3.056344     9A2     3.056345    20B2     3.143578  
      20B1     3.143578    37A1     3.382867    38A1     6.927628  
      10A2     7.929697    39A1     7.929773    21B1     7.986992  
      21B2     7.986992    40A1     8.081356    22B2     8.985345  
      22B1     8.985345    41A1     9.281142    23B1    10.561397  
      23B2    10.561397    42A1    10.929851    43A1    24.621818  

    Final Occupation by Irrep:
             A1    A2    B1    B2 
    DOCC [     9,    0,    3,    3 ]

  @DF-RKS Final Energy:  -702.66599847673854

   => Energetics <=

    Nuclear Repulsion Energy =             54.6216189915602612
    One-Electron Energy =               -1082.9549491319135086
    Two-Electron Energy =                 372.6760344106884304
    DFT Exchange-Correlation Energy =     -47.0087027470737908
    Empirical Dispersion Energy =           0.0000000000000000
    VV10 Nonlocal Energy =                  0.0000000000000000
    Total Energy =                       -702.6659984767385367

Computation Completed


Properties will be evaluated at   0.000000,   0.000000,   0.000000 [a0]

Properties computed using the SCF density matrix

  Nuclear Dipole Moment: [e a0]
     X:     0.0000      Y:     0.0000      Z:    -0.2672

  Electronic Dipole Moment: [e a0]
     X:     0.0000      Y:     0.0000      Z:     0.8815

  Dipole Moment: [e a0]
     X:     0.0000      Y:     0.0000      Z:     0.6143     Total:     0.6143

  Dipole Moment: [D]
     X:     0.0000      Y:     0.0000      Z:     1.5614     Total:     1.5614


*** tstop() called on compute304.bc4.acrc.priv at Sun Nov  7 05:06:23 2021
Module time:
	user time   =      19.22 seconds =       0.32 minutes
	system time =       0.98 seconds =       0.02 minutes
	total time  =          1 seconds =       0.02 minutes
Total time:
	user time   =      19.22 seconds =       0.32 minutes
	system time =       0.98 seconds =       0.02 minutes
	total time  =          1 seconds =       0.02 minutes

    Psi4 stopped on: Sunday, 07 November 2021 05:06AM
    Psi4 wall time for execution: 0:00:00.91

*** Psi4 exiting successfully. Buy a developer a beer!
