
    -----------------------------------------------------------------------
          Psi4: An Open-Source Ab Initio Electronic Structure Package
                               Psi4 1.4.1 release

                         Git: Rev {HEAD} cd00f19 


    D. G. A. Smith, L. A. Burns, A. C. Simmonett, R. M. Parrish,
    M. C. Schieber, R. Galvelis, P. Kraus, H. Kruse, R. Di Remigio,
    A. Alenaizan, A. M. James, S. Lehtola, J. P. Misiewicz, M. Scheurer,
    R. A. Shaw, J. B. Schriber, Y. Xie, Z. L. Glick, D. A. Sirianni,
    J. S. O'Brien, J. M. Waldrop, A. Kumar, E. G. Hohenstein,
    B. P. Pritchard, B. R. Brooks, H. F. Schaefer III, A. Yu. Sokolov,
    K. Patkowski, A. E. DePrince III, U. Bozkaya, R. A. King,
    F. A. Evangelista, J. M. Turney, T. D. Crawford, C. D. Sherrill,
    J. Chem. Phys. 152(18) 184108 (2020). https://doi.org/10.1063/5.0006002

                            Additional Code Authors
    E. T. Seidl, C. L. Janssen, E. F. Valeev, M. L. Leininger,
    J. F. Gonthier, R. M. Richard, H. R. McAlexander, M. Saitow, X. Wang,
    P. Verma, and M. H. Lechner

             Previous Authors, Complete List of Code Contributors,
                       and Citations for Specific Modules
    https://github.com/psi4/psi4/blob/master/codemeta.json
    https://github.com/psi4/psi4/graphs/contributors
    http://psicode.org/psi4manual/master/introduction.html#citing-psifour

    -----------------------------------------------------------------------


    Psi4 started on: Sunday, 07 November 2021 05:06AM

    Process ID: 27830
    Host:       compute424.bc4.acrc.priv
    PSIDATADIR: /mnt/storage/home/zw18965/.conda/envs/p4env/share/psi4
    Memory:     500.0 MiB
    Threads:    28
    
  ==> Input File <==

--------------------------------------------------------------------------
memory 120 GB

molecule {
0 2
C          0.00000        0.00000        0.00000
H          0.00000        0.00000        1.07732
H          0.93298        0.00000       -0.53866
H         -0.93298        0.00000       -0.53866
 }

set reference uks
set dynamic_level 1
set basis Def2-TZVPPD

energy("GAM")
--------------------------------------------------------------------------

  Memory set to 111.759 GiB by Python driver.

Scratch directory: /tmp/

*** tstart() called on compute424.bc4.acrc.priv
*** at Sun Nov  7 05:06:22 2021

   => Loading Basis Set <=

    Name: DEF2-TZVPPD
    Role: ORBITAL
    Keyword: BASIS
    atoms 1   entry C          line   144 file /mnt/storage/home/zw18965/.conda/envs/p4env/share/psi4/basis/def2-tzvppd.gbs 
    atoms 2-4 entry H          line    14 file /mnt/storage/home/zw18965/.conda/envs/p4env/share/psi4/basis/def2-tzvppd.gbs 


         ---------------------------------------------------------
                                   SCF
               by Justin Turney, Rob Parrish, Andy Simmonett
                          and Daniel G. A. Smith
                              UKS Reference
                       28 Threads, 114440 MiB Core
         ---------------------------------------------------------

  ==> Geometry <==

    Molecular point group: c2v
    Full point group: C2v

    Geometry (in Angstrom), charge = 0, multiplicity = 2:

       Center              X                  Y                   Z               Mass       
    ------------   -----------------  -----------------  -----------------  -----------------
         C            0.000000000000    -0.000000000000     0.000000000000    12.000000000000
         H            0.000000000000    -0.000000000000     1.077320000000     1.007825032230
         H            0.932980000000     0.000000000000    -0.538660000000     1.007825032230
         H           -0.932980000000    -0.000000000000    -0.538660000000     1.007825032230

  Running in c2v symmetry.

  Rotational constants: A =      9.60808  B =      9.60795  C =      4.80401 [cm^-1]
  Rotational constants: A = 288043.04579  B = 288039.03969  C = 144020.52137 [MHz]
  Nuclear repulsion =    9.692373587579699

  Charge       = 0
  Multiplicity = 2
  Electrons    = 9
  Nalpha       = 5
  Nbeta        = 4

  ==> Algorithm <==

  SCF Algorithm Type is DF.
  DIIS enabled.
  MOM disabled.
  Fractional occupation disabled.
  Guess Type is SAD.
  Energy threshold   = 1.00e-06
  Density threshold  = 1.00e-06
  Integral threshold = 1.00e-12

  ==> Primary Basis <==

  Basis Set: DEF2-TZVPPD
    Blend: DEF2-TZVPPD
    Number of shells: 34
    Number of basis functions: 88
    Number of Cartesian functions: 97
    Spherical Harmonics?: true
    Max angular momentum: 3

  ==> DFT Potential <==

   => Composite Functional: GAM <= 

   GAM GGA Minessota Exchange-Correlation Functional

    H.S. Yu, et al., Phys. Chem. Chem. Phys. 17, 12146, 2015


    Deriv               =              1
    GGA                 =           TRUE
    Meta                =          FALSE

    Exchange Hybrid     =          FALSE
    MP2 Hybrid          =          FALSE

   => Exchange Functionals <=

    1.0000     XC_GGA_X_GAM

   => Correlation Functionals <=

    1.0000     XC_GGA_C_GAM

   => LibXC Density Thresholds  <==

    XC_GGA_C_GAM:  1.00E-14 
    XC_GGA_X_GAM:  1.00E-14 

   => Molecular Quadrature <=

    Radial Scheme          =       TREUTLER
    Pruning Scheme         =           NONE
    Nuclear Scheme         =       TREUTLER

    BS radius alpha        =              1
    Pruning alpha          =              1
    Radial Points          =             75
    Spherical Points       =            302
    Total Points           =          88580
    Total Blocks           =            722
    Max Points             =            256
    Max Functions          =             88
    Weights Tolerance      =       1.00E-15

   => Loading Basis Set <=

    Name: (DEF2-TZVPPD AUX)
    Role: JKFIT
    Keyword: DF_BASIS_SCF
    atoms 1   entry C          line   198 file /mnt/storage/home/zw18965/.conda/envs/p4env/share/psi4/basis/def2-universal-jkfit.gbs 
    atoms 2-4 entry H          line    18 file /mnt/storage/home/zw18965/.conda/envs/p4env/share/psi4/basis/def2-universal-jkfit.gbs 

  ==> Integral Setup <==

  DFHelper Memory: AOs need 0.011 GiB; user supplied 83.598 GiB. Using in-core AOs.

  ==> MemDFJK: Density-Fitted J/K Matrices <==

    J tasked:                   Yes
    K tasked:                    No
    wK tasked:                   No
    OpenMP threads:              28
    Memory [MiB]:             85604
    Algorithm:                 Core
    Schwarz Cutoff:           1E-12
    Mask sparsity (%):       0.0000
    Fitting Condition:        1E-10

   => Auxiliary Basis Set <=

  Basis Set: (DEF2-TZVPPD AUX)
    Blend: DEF2-UNIVERSAL-JKFIT
    Number of shells: 43
    Number of basis functions: 129
    Number of Cartesian functions: 149
    Spherical Harmonics?: true
    Max angular momentum: 4

  Cached 100.0% of DFT collocation blocks in 0.221 [GiB].

  Minimum eigenvalue in the overlap matrix is 6.3181553827E-05.
  Reciprocal condition number of the overlap matrix is 8.9107266358E-06.
    Using symmetric orthogonalization.

  ==> Pre-Iterations <==

  SCF Guess: Superposition of Atomic Densities via on-the-fly atomic UHF (no occupation information).

   -------------------------
    Irrep   Nso     Nmo    
   -------------------------
     A1        37      37 
     A2        10      10 
     B1        24      24 
     B2        17      17 
   -------------------------
    Total      88      88
   -------------------------

  ==> Iterations <==

                           Total Energy        Delta E     RMS |[F,P]|

   @DF-UKS iter SAD:   -39.38116836445624   -3.93812e+01   0.00000e+00 
   @DF-UKS iter   1:   -39.68973219682042   -3.08564e-01   1.18347e-02 DIIS
   @DF-UKS iter   2:   -39.59052977834936    9.92024e-02   1.39278e-02 DIIS
   @DF-UKS iter   3:   -39.86756762865384   -2.77038e-01   8.57361e-04 DIIS
   @DF-UKS iter   4:   -39.86872616104731   -1.15853e-03   7.12672e-05 DIIS
   @DF-UKS iter   5:   -39.86873580302212   -9.64197e-06   1.24948e-05 DIIS
   @DF-UKS iter   6:   -39.86873616395994   -3.60938e-07   2.33140e-06 DIIS
   @DF-UKS iter   7:   -39.86873617983065   -1.58707e-08   4.49833e-07 DIIS
  Energy and wave function converged.


  ==> Post-Iterations <==

   Electrons on quadrature grid:
      Nalpha   =    5.0000004602 ; deviation = 4.602e-07
      Nbeta    =    3.9999998777 ; deviation = -1.223e-07
      Ntotal   =    9.0000003378 ; deviation = 3.378e-07 

   @Spin Contamination Metric:   6.533119849E-03
   @S^2 Expected:                7.500000000E-01
   @S^2 Observed:                7.565331198E-01
   @S   Expected:                5.000000000E-01
   @S   Observed:                5.000000000E-01

    Orbital Energies [Eh]
    ---------------------

    Alpha Occupied:                                                       

       1A1    -9.932917     2A1    -0.627545     1B1    -0.378578  
       3A1    -0.378577     1B2    -0.193504  

    Alpha Virtual:                                                        

       4A1     0.016239     5A1     0.093149     2B1     0.093149  
       3B1     0.129631     6A1     0.129632     7A1     0.130878  
       2B2     0.167858     3B2     0.186697     1A2     0.186697  
       8A1     0.233449     9A1     0.287170     4B1     0.287170  
       5B1     0.295078    10A1     0.297186     2A2     0.334384  
       4B2     0.334387    11A1     0.399785     5B2     0.401055  
      12A1     0.414660     6B1     0.414661     7B1     0.439384  
      13A1     0.439385    14A1     0.667034    15A1     0.688834  
       8B1     0.688835     6B2     0.713874     3A2     0.713876  
      16A1     0.859735     9B1     0.859738     7B2     0.943423  
      10B1     0.956438    17A1     0.968298     4A2     1.172961  
       8B2     1.172963    18A1     1.366189    19A1     1.381504  
      11B1     1.381506    12B1     1.412309    20A1     1.412312  
       9B2     1.568112    21A1     1.676377    13B1     1.731288  
      22A1     1.731290    14B1     2.522645    23A1     2.522650  
       5A2     2.588852    10B2     2.588861    24A1     2.622060  
      11B2     2.795708    25A1     2.831840    15B1     2.831859  
      16B1     2.845358    26A1     2.906296    12B2     2.935527  
       6A2     2.935534     7A2     3.145863    27A1     3.404794  
      17B1     3.404801    28A1     3.486266     8A2     3.606629  
      13B2     3.606641    18B1     3.627885    29A1     3.627890  
      14B2     3.850206    30A1     3.880400    19B1     3.880700  
      20B1     3.898550    31A1     3.898554    15B2     4.074470  
       9A2     4.074481    16B2     4.483140    21B1     4.582177  
      32A1     4.582196    22B1     4.837134    33A1     4.837136  
      17B2     4.876080    10A2     4.876092    34A1     5.358102  
      35A1     5.368735    23B1     5.368744    36A1     5.520304  
      24B1     6.103853    37A1    23.326405  

    Beta Occupied:                                                        

       1A1    -9.924116     2A1    -0.580950     1B1    -0.361924  
       3A1    -0.361921  

    Beta Virtual:                                                         

       1B2    -0.115067     4A1     0.008234     2B1     0.090972  
       5A1     0.090972     6A1     0.095743     7A1     0.121913  
       3B1     0.121913     2B2     0.153051     1A2     0.153052  
       3B2     0.165095     8A1     0.232698     9A1     0.288484  
       4B1     0.289647     5B1     0.289729    10A1     0.289729  
       2A2     0.306335     4B2     0.306340     5B2     0.328938  
      11A1     0.399251     6B1     0.399254     7B1     0.411939  
      12A1     0.411942    13A1     0.440532    14A1     0.656783  
       8B1     0.679252    15A1     0.679254     6B2     0.740805  
       3A2     0.740807    16A1     0.851247     9B1     0.851251  
      10B1     0.953636     7B2     0.959665    17A1     1.018503  
       8B2     1.211462     4A2     1.211462    18A1     1.377890  
      19A1     1.392361    11B1     1.392365    12B1     1.419546  
      20A1     1.419553     9B2     1.659279    21A1     1.687854  
      13B1     1.763450    22A1     1.763454    14B1     2.527447  
      23A1     2.527454    24A1     2.632490     5A2     2.638892  
      10B2     2.638922    25A1     2.850458    15B1     2.850516  
      16B1     2.856620    11B2     2.890826    12B2     3.014054  
       6A2     3.014073    26A1     3.030858     7A2     3.146715  
      27A1     3.428556    17B1     3.428562    28A1     3.498143  
       8A2     3.621317    13B2     3.621326    18B1     3.660806  
      29A1     3.660823    14B2     3.862775    19B1     3.874588  
      30A1     3.881547    20B1     3.901892    31A1     3.901897  
      15B2     4.087564     9A2     4.087570    16B2     4.517199  
      21B1     4.591953    32A1     4.591987    22B1     4.845847  
      33A1     4.845856    17B2     4.925849    10A2     4.925861  
      34A1     5.379040    23B1     5.379056    35A1     5.388531  
      36A1     5.529291    24B1     6.118040    37A1    23.348466  

    Final Occupation by Irrep:
             A1    A2    B1    B2 
    DOCC [     3,    0,    1,    0 ]
    SOCC [     0,    0,    0,    1 ]

  @DF-UKS Final Energy:   -39.86873617983065

   => Energetics <=

    Nuclear Repulsion Energy =              9.6923735875796986
    One-Electron Energy =                 -71.7297407503267266
    Two-Electron Energy =                  28.6910627067727049
    DFT Exchange-Correlation Energy =      -6.5224317238563305
    Empirical Dispersion Energy =           0.0000000000000000
    VV10 Nonlocal Energy =                  0.0000000000000000
    Total Energy =                        -39.8687361798306554

  UHF NO Occupations:
  HONO-2 :    2 A1 1.9993787
  HONO-1 :    3 A1 1.9979744
  HONO-0 :    1 B2 1.0000000
  LUNO+0 :    4 A1 0.0020256
  LUNO+1 :    5 A1 0.0006213
  LUNO+2 :    2 B1 0.0006212
  LUNO+3 :    6 A1 0.0000009


Computation Completed


Properties will be evaluated at   0.000000,   0.000000,   0.000000 [a0]

Properties computed using the SCF density matrix

  Nuclear Dipole Moment: [e a0]
     X:     0.0000      Y:     0.0000      Z:     0.0000

  Electronic Dipole Moment: [e a0]
     X:     0.0000      Y:     0.0000      Z:    -0.0000

  Dipole Moment: [e a0]
     X:     0.0000      Y:     0.0000      Z:    -0.0000     Total:     0.0000

  Dipole Moment: [D]
     X:     0.0000      Y:     0.0000      Z:    -0.0000     Total:     0.0000


*** tstop() called on compute424.bc4.acrc.priv at Sun Nov  7 05:06:28 2021
Module time:
	user time   =     142.58 seconds =       2.38 minutes
	system time =       9.86 seconds =       0.16 minutes
	total time  =          6 seconds =       0.10 minutes
Total time:
	user time   =     142.58 seconds =       2.38 minutes
	system time =       9.86 seconds =       0.16 minutes
	total time  =          6 seconds =       0.10 minutes

    Psi4 stopped on: Sunday, 07 November 2021 05:06AM
    Psi4 wall time for execution: 0:00:05.85

*** Psi4 exiting successfully. Buy a developer a beer!
