
    -----------------------------------------------------------------------
          Psi4: An Open-Source Ab Initio Electronic Structure Package
                               Psi4 1.4.1 release

                         Git: Rev {HEAD} cd00f19 


    D. G. A. Smith, L. A. Burns, A. C. Simmonett, R. M. Parrish,
    M. C. Schieber, R. Galvelis, P. Kraus, H. Kruse, R. Di Remigio,
    A. Alenaizan, A. M. James, S. Lehtola, J. P. Misiewicz, M. Scheurer,
    R. A. Shaw, J. B. Schriber, Y. Xie, Z. L. Glick, D. A. Sirianni,
    J. S. O'Brien, J. M. Waldrop, A. Kumar, E. G. Hohenstein,
    B. P. Pritchard, B. R. Brooks, H. F. Schaefer III, A. Yu. Sokolov,
    K. Patkowski, A. E. DePrince III, U. Bozkaya, R. A. King,
    F. A. Evangelista, J. M. Turney, T. D. Crawford, C. D. Sherrill,
    J. Chem. Phys. 152(18) 184108 (2020). https://doi.org/10.1063/5.0006002

                            Additional Code Authors
    E. T. Seidl, C. L. Janssen, E. F. Valeev, M. L. Leininger,
    J. F. Gonthier, R. M. Richard, H. R. McAlexander, M. Saitow, X. Wang,
    P. Verma, and M. H. Lechner

             Previous Authors, Complete List of Code Contributors,
                       and Citations for Specific Modules
    https://github.com/psi4/psi4/blob/master/codemeta.json
    https://github.com/psi4/psi4/graphs/contributors
    http://psicode.org/psi4manual/master/introduction.html#citing-psifour

    -----------------------------------------------------------------------


    Psi4 started on: Sunday, 07 November 2021 05:07AM

    Process ID: 16429
    Host:       compute502.bc4.acrc.priv
    PSIDATADIR: /mnt/storage/home/zw18965/.conda/envs/p4env/share/psi4
    Memory:     500.0 MiB
    Threads:    28
    
  ==> Input File <==

--------------------------------------------------------------------------
memory 120 GB

molecule {
0 2
Cl         0.00000        0.00000        0.00000
 }

set reference uks
set dynamic_level 1
set basis Def2-TZVPPD

energy("GAM")
--------------------------------------------------------------------------

  Memory set to 111.759 GiB by Python driver.

Scratch directory: /tmp/

*** tstart() called on compute502.bc4.acrc.priv
*** at Sun Nov  7 05:07:28 2021

   => Loading Basis Set <=

    Name: DEF2-TZVPPD
    Role: ORBITAL
    Keyword: BASIS
    atoms 1 entry CL         line   607 file /mnt/storage/home/zw18965/.conda/envs/p4env/share/psi4/basis/def2-tzvppd.gbs 


         ---------------------------------------------------------
                                   SCF
               by Justin Turney, Rob Parrish, Andy Simmonett
                          and Daniel G. A. Smith
                              UKS Reference
                       28 Threads, 114440 MiB Core
         ---------------------------------------------------------

  ==> Geometry <==

    Molecular point group: d2h
    Geometry (in Angstrom), charge = 0, multiplicity = 2:

       Center              X                  Y                   Z               Mass       
    ------------   -----------------  -----------------  -----------------  -----------------
         CL           0.000000000000     0.000000000000     0.000000000000    34.968852682000

  Running in d2h symmetry.

  Rotational constants: A = ************  B = ************  C = ************ [cm^-1]
  Rotational constants: A = ************  B = ************  C = ************ [MHz]
  Nuclear repulsion =    0.000000000000000

  Charge       = 0
  Multiplicity = 2
  Electrons    = 17
  Nalpha       = 9
  Nbeta        = 8

  ==> Algorithm <==

  SCF Algorithm Type is DF.
  DIIS enabled.
  MOM disabled.
  Fractional occupation disabled.
  Guess Type is CORE.
  Energy threshold   = 1.00e-06
  Density threshold  = 1.00e-06
  Integral threshold = 1.00e-12

  ==> Primary Basis <==

  Basis Set: DEF2-TZVPPD
    Blend: DEF2-TZVPPD
    Number of shells: 17
    Number of basis functions: 51
    Number of Cartesian functions: 58
    Spherical Harmonics?: true
    Max angular momentum: 3

  ==> DFT Potential <==

   => Composite Functional: GAM <= 

   GAM GGA Minessota Exchange-Correlation Functional

    H.S. Yu, et al., Phys. Chem. Chem. Phys. 17, 12146, 2015


    Deriv               =              1
    GGA                 =           TRUE
    Meta                =          FALSE

    Exchange Hybrid     =          FALSE
    MP2 Hybrid          =          FALSE

   => Exchange Functionals <=

    1.0000     XC_GGA_X_GAM

   => Correlation Functionals <=

    1.0000     XC_GGA_C_GAM

   => LibXC Density Thresholds  <==

    XC_GGA_C_GAM:  1.00E-14 
    XC_GGA_X_GAM:  1.00E-14 

   => Molecular Quadrature <=

    Radial Scheme          =       TREUTLER
    Pruning Scheme         =           NONE
    Nuclear Scheme         =       TREUTLER

    BS radius alpha        =              1
    Pruning alpha          =              1
    Radial Points          =             75
    Spherical Points       =            302
    Total Points           =          22046
    Total Blocks           =            238
    Max Points             =            249
    Max Functions          =             51
    Weights Tolerance      =       1.00E-15

   => Loading Basis Set <=

    Name: (DEF2-TZVPPD AUX)
    Role: JKFIT
    Keyword: DF_BASIS_SCF
    atoms 1 entry CL         line   986 file /mnt/storage/home/zw18965/.conda/envs/p4env/share/psi4/basis/def2-universal-jkfit.gbs 

  ==> Integral Setup <==

  DFHelper Memory: AOs need 0.004 GiB; user supplied 83.791 GiB. Using in-core AOs.

  ==> MemDFJK: Density-Fitted J/K Matrices <==

    J tasked:                   Yes
    K tasked:                    No
    wK tasked:                   No
    OpenMP threads:              28
    Memory [MiB]:             85801
    Algorithm:                 Core
    Schwarz Cutoff:           1E-12
    Mask sparsity (%):       0.0000
    Fitting Condition:        1E-10

   => Auxiliary Basis Set <=

  Basis Set: (DEF2-TZVPPD AUX)
    Blend: DEF2-UNIVERSAL-JKFIT
    Number of shells: 38
    Number of basis functions: 128
    Number of Cartesian functions: 155
    Spherical Harmonics?: true
    Max angular momentum: 4

  Cached 100.0% of DFT collocation blocks in 0.028 [GiB].

  Minimum eigenvalue in the overlap matrix is 3.1418479739E-02.
  Reciprocal condition number of the overlap matrix is 1.0671479415E-02.
    Using symmetric orthogonalization.

  ==> Pre-Iterations <==

  SCF Guess: Core (One-Electron) Hamiltonian.

   -------------------------------------------------------
    Irrep   Nso     Nmo     Nalpha   Nbeta   Ndocc  Nsocc
   -------------------------------------------------------
     Ag        14      14       2       2       2       0
     B1g        4       4       0       0       0       0
     B2g        4       4       1       0       0       1
     B3g        4       4       0       0       0       0
     Au         1       1       0       0       0       0
     B1u        8       8       2       2       2       0
     B2u        8       8       2       2       2       0
     B3u        8       8       2       2       2       0
   -------------------------------------------------------
    Total      51      51       9       8       8       1
   -------------------------------------------------------

  ==> Iterations <==

                           Total Energy        Delta E     RMS |[F,P]|

    Occupation by irrep:
             Ag   B1g   B2g   B3g    Au   B1u   B2u   B3u 
    DOCC [     2,    0,    0,    0,    0,    2,    2,    2 ]
    SOCC [     1,    0,    0,    0,    0,    0,    0,    0 ]

   @DF-UKS iter   1:  -414.00078839883855   -4.14001e+02   8.46406e-01 DIIS
    Occupation by irrep:
             Ag   B1g   B2g   B3g    Au   B1u   B2u   B3u 
    DOCC [     3,    0,    0,    0,    0,    1,    2,    2 ]
    SOCC [     0,    0,    0,    0,    0,    1,    0,    0 ]

   @DF-UKS iter   2:  -438.24945476284097   -2.42487e+01   6.13020e-01 DIIS
    Occupation by irrep:
             Ag   B1g   B2g   B3g    Au   B1u   B2u   B3u 
    DOCC [     3,    0,    0,    0,    0,    2,    1,    2 ]
    SOCC [     0,    0,    0,    0,    0,    0,    1,    0 ]

   @DF-UKS iter   3:  -459.57479708903327   -2.13253e+01   6.65362e-02 DIIS
    Occupation by irrep:
             Ag   B1g   B2g   B3g    Au   B1u   B2u   B3u 
    DOCC [     3,    0,    0,    0,    0,    1,    2,    2 ]
    SOCC [     0,    0,    0,    0,    0,    1,    0,    0 ]

   @DF-UKS iter   4:  -459.96265034505967   -3.87853e-01   2.86801e-02 DIIS
   @DF-UKS iter   5:  -460.12391995674261   -1.61270e-01   7.24086e-03 DIIS
   @DF-UKS iter   6:  -460.13472245366989   -1.08025e-02   1.10919e-03 DIIS
   @DF-UKS iter   7:  -460.13506051861475   -3.38065e-04   2.89855e-04 DIIS
   @DF-UKS iter   8:  -460.13507914386247   -1.86252e-05   3.68698e-05 DIIS
   @DF-UKS iter   9:  -460.13507944254764   -2.98685e-07   2.59101e-06 DIIS
   @DF-UKS iter  10:  -460.13507944435207   -1.80444e-09   2.77438e-07 DIIS
  Energy and wave function converged.


  ==> Post-Iterations <==

   Electrons on quadrature grid:
      Nalpha   =    8.9999999971 ; deviation = -2.881e-09
      Nbeta    =    7.9999999971 ; deviation = -2.880e-09
      Ntotal   =   16.9999999942 ; deviation = -5.761e-09 

   @Spin Contamination Metric:   4.778025625E-03
   @S^2 Expected:                7.500000000E-01
   @S^2 Observed:                7.547780256E-01
   @S   Expected:                5.000000000E-01
   @S   Observed:                5.000000000E-01

    Orbital Energies [Eh]
    ---------------------

    Alpha Occupied:                                                       

       1Ag  -100.457687     2Ag    -9.311971     1B1u   -7.170306  
       1B3u   -7.147915     1B2u   -7.147915     3Ag    -0.778981  
       2B1u   -0.371208     2B3u   -0.317611     2B2u   -0.317611  

    Alpha Virtual:                                                        

       4Ag     0.044705     3B1u    0.056631     3B3u    0.063065  
       3B2u    0.063066     1B2g    0.151870     1B3g    0.151870  
       5Ag     0.152090     6Ag     0.158971     1B1g    0.158971  
       4B1u    0.408053     4B3u    0.421886     4B2u    0.421886  
       7Ag     0.486947     2B2g    0.493449     2B3g    0.493450  
       8Ag     0.517587     2B1g    0.517587     9Ag     0.755888  
      10Ag     1.757071     3B2g    1.767895     3B3g    1.767895  
      11Ag     1.801491     3B1g    1.801491     5B1u    1.913830  
       5B3u    1.920445     5B2u    1.920445     6B1u    1.940257  
       1Au     1.940257     6B2u    1.974400     6B3u    1.974400  
       7B1u    2.163645     7B3u    2.204642     7B2u    2.204642  
      12Ag     7.837396     4B2g    7.844916     4B3g    7.844917  
      13Ag     7.869494     4B1g    7.869494     8B1u   10.431791  
       8B3u   10.465729     8B2u   10.465729    14Ag    24.011220  

    Beta Occupied:                                                        

       1Ag  -100.449933     2Ag    -9.309299     1B1u   -7.158941  
       1B3u   -7.142928     1B2u   -7.142928     3Ag    -0.721419  
       2B3u   -0.293858     2B2u   -0.293858  

    Beta Virtual:                                                         

       2B1u   -0.276034     4Ag     0.027859     3B2u    0.055545  
       3B3u    0.055545     3B1u    0.064560     5Ag     0.137358  
       1B3g    0.152128     1B2g    0.152128     6Ag     0.162270  
       1B1g    0.162270     4B1u    0.393683     4B2u    0.420611  
       4B3u    0.420611     2B1g    0.529146     7Ag     0.529146  
       2B3g    0.533851     2B2g    0.533851     8Ag     0.554699  
       9Ag     0.783238     3B2g    1.806570     3B3g    1.806570  
      10Ag     1.810769     3B1g    1.810769    11Ag     1.824853  
       5B2u    1.983525     5B3u    1.983525     1Au     1.993369  
       5B1u    1.993369     6B3u    2.011609     6B2u    2.011609  
       6B1u    2.025341     7B1u    2.212162     7B3u    2.212591  
       7B2u    2.212592     4B2g    7.868192     4B3g    7.868193  
      12Ag     7.869452    13Ag     7.875442     4B1g    7.875442  
       8B3u   10.479969     8B2u   10.479969     8B1u   10.481166  
      14Ag    24.025207  

    Final Occupation by Irrep:
             Ag   B1g   B2g   B3g    Au   B1u   B2u   B3u 
    DOCC [     3,    0,    0,    0,    0,    1,    2,    2 ]
    SOCC [     0,    0,    0,    0,    0,    1,    0,    0 ]

  @DF-UKS Final Energy:  -460.13507944435207

   => Energetics <=

    Nuclear Repulsion Energy =              0.0000000000000000
    One-Electron Energy =                -635.7622777268240952
    Two-Electron Energy =                 203.9073606282553328
    DFT Exchange-Correlation Energy =     -28.2801623457832747
    Empirical Dispersion Energy =           0.0000000000000000
    VV10 Nonlocal Energy =                  0.0000000000000000
    Total Energy =                       -460.1350794443520158

  UHF NO Occupations:
  HONO-2 :    2B3u 1.9995903
  HONO-1 :    3 Ag 1.9984307
  HONO-0 :    2B1u 1.0000000
  LUNO+0 :    4 Ag 0.0015693
  LUNO+1 :    3B3u 0.0004097
  LUNO+2 :    3B2u 0.0004097
  LUNO+3 :    3B1u 0.0000011


Computation Completed


Properties will be evaluated at   0.000000,   0.000000,   0.000000 [a0]

Properties computed using the SCF density matrix

  Nuclear Dipole Moment: [e a0]
     X:     0.0000      Y:     0.0000      Z:     0.0000

  Electronic Dipole Moment: [e a0]
     X:     0.0000      Y:     0.0000      Z:     0.0000

  Dipole Moment: [e a0]
     X:     0.0000      Y:     0.0000      Z:     0.0000     Total:     0.0000

  Dipole Moment: [D]
     X:     0.0000      Y:     0.0000      Z:     0.0000     Total:     0.0000


*** tstop() called on compute502.bc4.acrc.priv at Sun Nov  7 05:07:29 2021
Module time:
	user time   =      36.72 seconds =       0.61 minutes
	system time =       1.61 seconds =       0.03 minutes
	total time  =          1 seconds =       0.02 minutes
Total time:
	user time   =      36.72 seconds =       0.61 minutes
	system time =       1.61 seconds =       0.03 minutes
	total time  =          1 seconds =       0.02 minutes

    Psi4 stopped on: Sunday, 07 November 2021 05:07AM
    Psi4 wall time for execution: 0:00:01.51

*** Psi4 exiting successfully. Buy a developer a beer!
