
    -----------------------------------------------------------------------
          Psi4: An Open-Source Ab Initio Electronic Structure Package
                               Psi4 1.4.1 release

                         Git: Rev {HEAD} cd00f19 


    D. G. A. Smith, L. A. Burns, A. C. Simmonett, R. M. Parrish,
    M. C. Schieber, R. Galvelis, P. Kraus, H. Kruse, R. Di Remigio,
    A. Alenaizan, A. M. James, S. Lehtola, J. P. Misiewicz, M. Scheurer,
    R. A. Shaw, J. B. Schriber, Y. Xie, Z. L. Glick, D. A. Sirianni,
    J. S. O'Brien, J. M. Waldrop, A. Kumar, E. G. Hohenstein,
    B. P. Pritchard, B. R. Brooks, H. F. Schaefer III, A. Yu. Sokolov,
    K. Patkowski, A. E. DePrince III, U. Bozkaya, R. A. King,
    F. A. Evangelista, J. M. Turney, T. D. Crawford, C. D. Sherrill,
    J. Chem. Phys. 152(18) 184108 (2020). https://doi.org/10.1063/5.0006002

                            Additional Code Authors
    E. T. Seidl, C. L. Janssen, E. F. Valeev, M. L. Leininger,
    J. F. Gonthier, R. M. Richard, H. R. McAlexander, M. Saitow, X. Wang,
    P. Verma, and M. H. Lechner

             Previous Authors, Complete List of Code Contributors,
                       and Citations for Specific Modules
    https://github.com/psi4/psi4/blob/master/codemeta.json
    https://github.com/psi4/psi4/graphs/contributors
    http://psicode.org/psi4manual/master/introduction.html#citing-psifour

    -----------------------------------------------------------------------


    Psi4 started on: Sunday, 07 November 2021 05:06AM

    Process ID: 4031
    Host:       compute399.bc4.acrc.priv
    PSIDATADIR: /mnt/storage/home/zw18965/.conda/envs/p4env/share/psi4
    Memory:     500.0 MiB
    Threads:    28
    
  ==> Input File <==

--------------------------------------------------------------------------
memory 120 GB

molecule {
1 6
Cr         0.00000        0.00000        0.00000
 }

set reference uks
set dynamic_level 1
set basis Def2-TZVPPD

energy("GAM")
--------------------------------------------------------------------------

  Memory set to 111.759 GiB by Python driver.

Scratch directory: /tmp/

*** tstart() called on compute399.bc4.acrc.priv
*** at Sun Nov  7 05:06:22 2021

   => Loading Basis Set <=

    Name: DEF2-TZVPPD
    Role: ORBITAL
    Keyword: BASIS
    atoms 1 entry CR         line   985 file /mnt/storage/home/zw18965/.conda/envs/p4env/share/psi4/basis/def2-tzvppd.gbs 


         ---------------------------------------------------------
                                   SCF
               by Justin Turney, Rob Parrish, Andy Simmonett
                          and Daniel G. A. Smith
                              UKS Reference
                       28 Threads, 114440 MiB Core
         ---------------------------------------------------------

  ==> Geometry <==

    Molecular point group: d2h
    Geometry (in Angstrom), charge = 1, multiplicity = 6:

       Center              X                  Y                   Z               Mass       
    ------------   -----------------  -----------------  -----------------  -----------------
         CR           0.000000000000     0.000000000000     0.000000000000    51.940506230000

  Running in d2h symmetry.

  Rotational constants: A = ************  B = ************  C = ************ [cm^-1]
  Rotational constants: A = ************  B = ************  C = ************ [MHz]
  Nuclear repulsion =    0.000000000000000

  Charge       = 1
  Multiplicity = 6
  Electrons    = 23
  Nalpha       = 14
  Nbeta        = 9

  ==> Algorithm <==

  SCF Algorithm Type is DF.
  DIIS enabled.
  MOM disabled.
  Fractional occupation disabled.
  Guess Type is CORE.
  Energy threshold   = 1.00e-06
  Density threshold  = 1.00e-06
  Integral threshold = 1.00e-12

  ==> Primary Basis <==

  Basis Set: DEF2-TZVPPD
    Blend: DEF2-TZVPPD
    Number of shells: 19
    Number of basis functions: 67
    Number of Cartesian functions: 83
    Spherical Harmonics?: true
    Max angular momentum: 4

  ==> DFT Potential <==

   => Composite Functional: GAM <= 

   GAM GGA Minessota Exchange-Correlation Functional

    H.S. Yu, et al., Phys. Chem. Chem. Phys. 17, 12146, 2015


    Deriv               =              1
    GGA                 =           TRUE
    Meta                =          FALSE

    Exchange Hybrid     =          FALSE
    MP2 Hybrid          =          FALSE

   => Exchange Functionals <=

    1.0000     XC_GGA_X_GAM

   => Correlation Functionals <=

    1.0000     XC_GGA_C_GAM

   => LibXC Density Thresholds  <==

    XC_GGA_C_GAM:  1.00E-14 
    XC_GGA_X_GAM:  1.00E-14 

   => Molecular Quadrature <=

    Radial Scheme          =       TREUTLER
    Pruning Scheme         =           NONE
    Nuclear Scheme         =       TREUTLER

    BS radius alpha        =              1
    Pruning alpha          =              1
    Radial Points          =             75
    Spherical Points       =            302
    Total Points           =          21738
    Total Blocks           =            247
    Max Points             =            245
    Max Functions          =             67
    Weights Tolerance      =       1.00E-15

   => Loading Basis Set <=

    Name: (DEF2-TZVPPD AUX)
    Role: JKFIT
    Keyword: DF_BASIS_SCF
    atoms 1 entry CR         line  1726 file /mnt/storage/home/zw18965/.conda/envs/p4env/share/psi4/basis/def2-universal-jkfit.gbs 

  ==> Integral Setup <==

  DFHelper Memory: AOs need 0.012 GiB; user supplied 83.783 GiB. Using in-core AOs.

  ==> MemDFJK: Density-Fitted J/K Matrices <==

    J tasked:                   Yes
    K tasked:                    No
    wK tasked:                   No
    OpenMP threads:              28
    Memory [MiB]:             85793
    Algorithm:                 Core
    Schwarz Cutoff:           1E-12
    Mask sparsity (%):       0.0000
    Fitting Condition:        1E-10

   => Auxiliary Basis Set <=

  Basis Set: (DEF2-TZVPPD AUX)
    Blend: DEF2-UNIVERSAL-JKFIT
    Number of shells: 58
    Number of basis functions: 264
    Number of Cartesian functions: 377
    Spherical Harmonics?: true
    Max angular momentum: 6

  Cached 100.0% of DFT collocation blocks in 0.036 [GiB].

  Minimum eigenvalue in the overlap matrix is 4.1662433519E-02.
  Reciprocal condition number of the overlap matrix is 1.4972218160E-02.
    Using symmetric orthogonalization.

  ==> Pre-Iterations <==

  SCF Guess: Core (One-Electron) Hamiltonian.

   -------------------------------------------------------
    Irrep   Nso     Nmo     Nalpha   Nbeta   Ndocc  Nsocc
   -------------------------------------------------------
     Ag        17      17       5       3       3       2
     B1g        6       6       1       0       0       1
     B2g        6       6       1       0       0       1
     B3g        6       6       1       0       0       1
     Au         2       2       0       0       0       0
     B1u       10      10       2       2       2       0
     B2u       10      10       2       2       2       0
     B3u       10      10       2       2       2       0
   -------------------------------------------------------
    Total      67      67      14       9       9       5
   -------------------------------------------------------

  ==> Iterations <==

                           Total Energy        Delta E     RMS |[F,P]|

    Occupation by irrep:
             Ag   B1g   B2g   B3g    Au   B1u   B2u   B3u 
    DOCC [     3,    0,    0,    0,    0,    2,    2,    2 ]
    SOCC [     2,    0,    0,    0,    0,    1,    1,    1 ]

   @DF-UKS iter   1: -1030.59151136734772   -1.03059e+03   1.99944e-01 DIIS
    Occupation by irrep:
             Ag   B1g   B2g   B3g    Au   B1u   B2u   B3u 
    DOCC [     3,    0,    0,    0,    0,    2,    2,    2 ]
    SOCC [     2,    1,    1,    1,    0,    0,    0,    0 ]

   @DF-UKS iter   2: -1025.11222972665428    5.47928e+00   2.86712e-01 DIIS
   @DF-UKS iter   3: -1044.41593717046362   -1.93037e+01   1.58155e-02 DIIS
   @DF-UKS iter   4: -1044.09734370436718    3.18593e-01   3.80230e-02 DIIS
   @DF-UKS iter   5: -1044.45559812825195   -3.58254e-01   1.06134e-02 DIIS
   @DF-UKS iter   6: -1044.46443422838502   -8.83610e-03   7.16878e-03 DIIS
   @DF-UKS iter   7: -1044.47124326501853   -6.80904e-03   3.46783e-03 DIIS
   @DF-UKS iter   8: -1044.47351818659968   -2.27492e-03   1.19258e-04 DIIS
   @DF-UKS iter   9: -1044.47352444840453   -6.26180e-06   9.79163e-06 DIIS
   @DF-UKS iter  10: -1044.47352450709514   -5.86906e-08   1.98416e-06 DIIS
   @DF-UKS iter  11: -1044.47352451589813   -8.80300e-09   9.15004e-07 DIIS
  Energy and wave function converged.


  ==> Post-Iterations <==

   Electrons on quadrature grid:
      Nalpha   =   14.0000001122 ; deviation = 1.122e-07
      Nbeta    =    9.0000001122 ; deviation = 1.122e-07
      Ntotal   =   23.0000002245 ; deviation = 2.245e-07 

   @Spin Contamination Metric:   1.708997830E-03
   @S^2 Expected:                8.750000000E+00
   @S^2 Observed:                8.751708998E+00
   @S   Expected:                2.500000000E+00
   @S   Observed:                2.500000000E+00

    Orbital Energies [Eh]
    ---------------------

    Alpha Occupied:                                                       

       1Ag  -214.213307     2Ag   -24.525429     1B2u  -20.965419  
       1B1u  -20.965419     1B3u  -20.965419     3Ag    -2.990602  
       2B3u   -1.982027     2B1u   -1.982027     2B2u   -1.982027  
       4Ag    -0.400502     1B3g   -0.400502     1B1g   -0.400502  
       1B2g   -0.400502     5Ag    -0.400502  

    Alpha Virtual:                                                        

       6Ag    -0.347454     3B2u   -0.204262     3B1u   -0.204257  
       3B3u   -0.204257     7Ag    -0.104193     8Ag    -0.066631  
       2B3g   -0.066631     2B1g   -0.066631     2B2g   -0.066630  
       9Ag    -0.066630     4B2u   -0.063110     4B1u   -0.063107  
       4B3u   -0.063107     5B3u    0.184125     5B1u    0.184125  
       5B2u    0.184125    10Ag     0.270994     3B3g    0.270996  
       3B1g    0.270996     3B2g    0.271001    11Ag     0.271001  
       6B3u    1.212757     6B1u    1.212757     6B2u    1.212757  
       1Au     1.212757     7B3u    1.212757     7B1u    1.212757  
       7B2u    1.212757     8B2u    1.479926     8B1u    1.479929  
       8B3u    1.479929    12Ag     1.619796    13Ag     1.754315  
       4B3g    1.754315     4B1g    1.754315     4B2g    1.754317  
      14Ag     1.754317    15Ag     5.229212     5B2g    5.229212  
       5B1g    5.229213     5B3g    5.229213    16Ag     5.229213  
       6B2g    5.229213     6B1g    5.229213     6B3g    5.229213  
      17Ag     5.229213     9B3u    5.785823     9B1u    5.785823  
       2Au     5.785823     9B2u    5.785823    10B3u    5.785823  
      10B1u    5.785823    10B2u    5.785823  

    Beta Occupied:                                                        

       1Ag  -214.212184     2Ag   -24.449198     1B2u  -20.908115  
       1B1u  -20.908115     1B3u  -20.908115     3Ag    -2.784176  
       2B2u   -1.779362     2B1u   -1.779362     2B3u   -1.779362  

    Beta Virtual:                                                         

       1B2g   -0.235438     4Ag    -0.235438     5Ag    -0.235437  
       1B1g   -0.235437     1B3g   -0.235437     6Ag    -0.220501  
       3B2u   -0.059064     3B3u   -0.059063     3B1u   -0.059063  
       4B2u    0.013089     4B3u    0.013106     4B1u    0.013107  
       7Ag     0.251173     2B1g    0.322616     2B3g    0.322617  
       8Ag     0.322621     2B2g    0.322621     9Ag     0.322633  
      10Ag     0.482291    11Ag     0.482292     3B2g    0.482292  
       3B1g    0.482298     3B3g    0.482298     5B2u    0.634916  
       5B3u    0.634919     5B1u    0.634920     6B1u    1.221150  
       6B3u    1.221150     6B2u    1.221150     1Au     1.221150  
       7B1u    1.221150     7B3u    1.221150     7B2u    1.221150  
       8B3u    1.734162     8B1u    1.734162     8B2u    1.734171  
      12Ag     1.856952    13Ag     2.022502     4B2g    2.022502  
      14Ag     2.022504     4B1g    2.022506     4B3g    2.022507  
       5B2g    5.428221    15Ag     5.428221     5B3g    5.428222  
       5B1g    5.428222     6B2g    5.428222    16Ag     5.428222  
       6B1g    5.428222     6B3g    5.428222    17Ag     5.428223  
       9B2u    5.967638     9B1u    5.967638     9B3u    5.967638  
       2Au     5.967638    10B2u    5.967638    10B1u    5.967639  
      10B3u    5.967639  

    Final Occupation by Irrep:
             Ag   B1g   B2g   B3g    Au   B1u   B2u   B3u 
    DOCC [     3,    0,    0,    0,    0,    2,    2,    2 ]
    SOCC [     2,    1,    1,    1,    0,    0,    0,    0 ]

  @DF-UKS Final Energy: -1044.47352451589813

   => Energetics <=

    Nuclear Repulsion Energy =              0.0000000000000000
    One-Electron Energy =               -1434.5910878616382433
    Two-Electron Energy =                 439.2324201945497180
    DFT Exchange-Correlation Energy =     -49.1148568488096942
    Empirical Dispersion Energy =           0.0000000000000000
    VV10 Nonlocal Energy =                  0.0000000000000000
    Total Energy =                      -1044.4735245158981343

  UHF NO Occupations:
  HONO-2 :    1B1g 1.0000000
  HONO-1 :    4 Ag 1.0000000
  HONO-0 :    5 Ag 1.0000000
  LUNO+0 :    3B3u 0.0002708
  LUNO+1 :    3B1u 0.0002708
  LUNO+2 :    3B2u 0.0002708
  LUNO+3 :    6 Ag 0.0000372


Computation Completed


Properties will be evaluated at   0.000000,   0.000000,   0.000000 [a0]

Properties computed using the SCF density matrix

  Nuclear Dipole Moment: [e a0]
     X:     0.0000      Y:     0.0000      Z:     0.0000

  Electronic Dipole Moment: [e a0]
     X:     0.0000      Y:     0.0000      Z:     0.0000

  Dipole Moment: [e a0]
     X:     0.0000      Y:     0.0000      Z:     0.0000     Total:     0.0000

  Dipole Moment: [D]
     X:     0.0000      Y:     0.0000      Z:     0.0000     Total:     0.0000


*** tstop() called on compute399.bc4.acrc.priv at Sun Nov  7 05:06:23 2021
Module time:
	user time   =      44.14 seconds =       0.74 minutes
	system time =       2.07 seconds =       0.03 minutes
	total time  =          1 seconds =       0.02 minutes
Total time:
	user time   =      44.14 seconds =       0.74 minutes
	system time =       2.07 seconds =       0.03 minutes
	total time  =          1 seconds =       0.02 minutes

    Psi4 stopped on: Sunday, 07 November 2021 05:06AM
    Psi4 wall time for execution: 0:00:01.78

*** Psi4 exiting successfully. Buy a developer a beer!
