
    -----------------------------------------------------------------------
          Psi4: An Open-Source Ab Initio Electronic Structure Package
                               Psi4 1.4.1 release

                         Git: Rev {HEAD} cd00f19 


    D. G. A. Smith, L. A. Burns, A. C. Simmonett, R. M. Parrish,
    M. C. Schieber, R. Galvelis, P. Kraus, H. Kruse, R. Di Remigio,
    A. Alenaizan, A. M. James, S. Lehtola, J. P. Misiewicz, M. Scheurer,
    R. A. Shaw, J. B. Schriber, Y. Xie, Z. L. Glick, D. A. Sirianni,
    J. S. O'Brien, J. M. Waldrop, A. Kumar, E. G. Hohenstein,
    B. P. Pritchard, B. R. Brooks, H. F. Schaefer III, A. Yu. Sokolov,
    K. Patkowski, A. E. DePrince III, U. Bozkaya, R. A. King,
    F. A. Evangelista, J. M. Turney, T. D. Crawford, C. D. Sherrill,
    J. Chem. Phys. 152(18) 184108 (2020). https://doi.org/10.1063/5.0006002

                            Additional Code Authors
    E. T. Seidl, C. L. Janssen, E. F. Valeev, M. L. Leininger,
    J. F. Gonthier, R. M. Richard, H. R. McAlexander, M. Saitow, X. Wang,
    P. Verma, and M. H. Lechner

             Previous Authors, Complete List of Code Contributors,
                       and Citations for Specific Modules
    https://github.com/psi4/psi4/blob/master/codemeta.json
    https://github.com/psi4/psi4/graphs/contributors
    http://psicode.org/psi4manual/master/introduction.html#citing-psifour

    -----------------------------------------------------------------------


    Psi4 started on: Sunday, 07 November 2021 05:07AM

    Process ID: 2970
    Host:       compute134.bc4.acrc.priv
    PSIDATADIR: /mnt/storage/home/zw18965/.conda/envs/p4env/share/psi4
    Memory:     500.0 MiB
    Threads:    28
    
  ==> Input File <==

--------------------------------------------------------------------------
memory 120 GB

molecule {
0 2
Cu         0.00000        0.00000        0.00000
 }

set reference uks
set dynamic_level 1
set basis Def2-TZVPPD

energy("GAM")
--------------------------------------------------------------------------

  Memory set to 111.759 GiB by Python driver.

Scratch directory: /tmp/

*** tstart() called on compute134.bc4.acrc.priv
*** at Sun Nov  7 05:07:21 2021

   => Loading Basis Set <=

    Name: DEF2-TZVPPD
    Role: ORBITAL
    Keyword: BASIS
    atoms 1 entry CU         line  1290 file /mnt/storage/home/zw18965/.conda/envs/p4env/share/psi4/basis/def2-tzvppd.gbs 


         ---------------------------------------------------------
                                   SCF
               by Justin Turney, Rob Parrish, Andy Simmonett
                          and Daniel G. A. Smith
                              UKS Reference
                       28 Threads, 114440 MiB Core
         ---------------------------------------------------------

  ==> Geometry <==

    Molecular point group: d2h
    Geometry (in Angstrom), charge = 0, multiplicity = 2:

       Center              X                  Y                   Z               Mass       
    ------------   -----------------  -----------------  -----------------  -----------------
         CU           0.000000000000     0.000000000000     0.000000000000    62.929597720000

  Running in d2h symmetry.

  Rotational constants: A = ************  B = ************  C = ************ [cm^-1]
  Rotational constants: A = ************  B = ************  C = ************ [MHz]
  Nuclear repulsion =    0.000000000000000

  Charge       = 0
  Multiplicity = 2
  Electrons    = 29
  Nalpha       = 15
  Nbeta        = 14

  ==> Algorithm <==

  SCF Algorithm Type is DF.
  DIIS enabled.
  MOM disabled.
  Fractional occupation disabled.
  Guess Type is CORE.
  Energy threshold   = 1.00e-06
  Density threshold  = 1.00e-06
  Integral threshold = 1.00e-12

  ==> Primary Basis <==

  Basis Set: DEF2-TZVPPD
    Blend: DEF2-TZVPPD
    Number of shells: 19
    Number of basis functions: 67
    Number of Cartesian functions: 83
    Spherical Harmonics?: true
    Max angular momentum: 4

  ==> DFT Potential <==

   => Composite Functional: GAM <= 

   GAM GGA Minessota Exchange-Correlation Functional

    H.S. Yu, et al., Phys. Chem. Chem. Phys. 17, 12146, 2015


    Deriv               =              1
    GGA                 =           TRUE
    Meta                =          FALSE

    Exchange Hybrid     =          FALSE
    MP2 Hybrid          =          FALSE

   => Exchange Functionals <=

    1.0000     XC_GGA_X_GAM

   => Correlation Functionals <=

    1.0000     XC_GGA_C_GAM

   => LibXC Density Thresholds  <==

    XC_GGA_C_GAM:  1.00E-14 
    XC_GGA_X_GAM:  1.00E-14 

   => Molecular Quadrature <=

    Radial Scheme          =       TREUTLER
    Pruning Scheme         =           NONE
    Nuclear Scheme         =       TREUTLER

    BS radius alpha        =              1
    Pruning alpha          =              1
    Radial Points          =             75
    Spherical Points       =            302
    Total Points           =          21738
    Total Blocks           =            245
    Max Points             =            245
    Max Functions          =             67
    Weights Tolerance      =       1.00E-15

   => Loading Basis Set <=

    Name: (DEF2-TZVPPD AUX)
    Role: JKFIT
    Keyword: DF_BASIS_SCF
    atoms 1 entry CU         line  2356 file /mnt/storage/home/zw18965/.conda/envs/p4env/share/psi4/basis/def2-universal-jkfit.gbs 

  ==> Integral Setup <==

  DFHelper Memory: AOs need 0.012 GiB; user supplied 83.785 GiB. Using in-core AOs.

  ==> MemDFJK: Density-Fitted J/K Matrices <==

    J tasked:                   Yes
    K tasked:                    No
    wK tasked:                   No
    OpenMP threads:              28
    Memory [MiB]:             85796
    Algorithm:                 Core
    Schwarz Cutoff:           1E-12
    Mask sparsity (%):       0.0000
    Fitting Condition:        1E-10

   => Auxiliary Basis Set <=

  Basis Set: (DEF2-TZVPPD AUX)
    Blend: DEF2-UNIVERSAL-JKFIT
    Number of shells: 58
    Number of basis functions: 264
    Number of Cartesian functions: 377
    Spherical Harmonics?: true
    Max angular momentum: 6

  Cached 100.0% of DFT collocation blocks in 0.034 [GiB].

  Minimum eigenvalue in the overlap matrix is 5.2350090433E-02.
  Reciprocal condition number of the overlap matrix is 1.9381610677E-02.
    Using symmetric orthogonalization.

  ==> Pre-Iterations <==

  SCF Guess: Core (One-Electron) Hamiltonian.

   -------------------------------------------------------
    Irrep   Nso     Nmo     Nalpha   Nbeta   Ndocc  Nsocc
   -------------------------------------------------------
     Ag        17      17       5       5       5       0
     B1g        6       6       1       1       1       0
     B2g        6       6       1       1       1       0
     B3g        6       6       1       1       1       0
     Au         2       2       0       0       0       0
     B1u       10      10       2       2       2       0
     B2u       10      10       2       2       2       0
     B3u       10      10       3       2       2       1
   -------------------------------------------------------
    Total      67      67      15      14      14       1
   -------------------------------------------------------

  ==> Iterations <==

                           Total Energy        Delta E     RMS |[F,P]|

    Occupation by irrep:
             Ag   B1g   B2g   B3g    Au   B1u   B2u   B3u 
    DOCC [     5,    0,    0,    0,    0,    3,    3,    3 ]
    SOCC [     0,    0,    0,    1,    0,    0,    0,    0 ]

   @DF-UKS iter   1: -1591.58560027911085   -1.59159e+03   4.32232e-01 DIIS
    Occupation by irrep:
             Ag   B1g   B2g   B3g    Au   B1u   B2u   B3u 
    DOCC [     5,    1,    1,    1,    0,    2,    2,    2 ]
    SOCC [     1,    0,    0,    0,    0,    0,    0,    0 ]

   @DF-UKS iter   2: -1521.16469415309393    7.04209e+01   5.37382e-01 DIIS
    Occupation by irrep:
             Ag   B1g   B2g   B3g    Au   B1u   B2u   B3u 
    DOCC [     5,    1,    0,    0,    0,    2,    2,    2 ]
    SOCC [     0,    0,    1,    1,    0,    1,    1,    1 ]

   @DF-UKS iter   3: -1639.58025544749398   -1.18416e+02   1.03915e-01 DIIS
    Occupation by irrep:
             Ag   B1g   B2g   B3g    Au   B1u   B2u   B3u 
    DOCC [     5,    1,    1,    1,    0,    2,    2,    2 ]
    SOCC [     1,    0,    0,    0,    0,    0,    0,    0 ]

   @DF-UKS iter   4: -1635.92000372747816    3.66025e+00   1.63972e-01 DIIS
   @DF-UKS iter   5: -1641.21735056092393   -5.29735e+00   3.50875e-02 DIIS
   @DF-UKS iter   6: -1641.41665605834942   -1.99305e-01   6.18969e-03 DIIS
    Occupation by irrep:
             Ag   B1g   B2g   B3g    Au   B1u   B2u   B3u 
    DOCC [     6,    0,    1,    1,    0,    2,    2,    2 ]
    SOCC [     0,    1,    0,    0,    0,    0,    0,    0 ]

   @DF-UKS iter   7: -1641.42153445209033   -4.87839e-03   8.02368e-03 DIIS
    Occupation by irrep:
             Ag   B1g   B2g   B3g    Au   B1u   B2u   B3u 
    DOCC [     5,    1,    1,    1,    0,    2,    2,    2 ]
    SOCC [     1,    0,    0,    0,    0,    0,    0,    0 ]

   @DF-UKS iter   8: -1640.94814538797868    4.73389e-01   4.46960e-02 DIIS
   @DF-UKS iter   9: -1641.42589987300880   -4.77754e-01   4.56888e-03 DIIS
   @DF-UKS iter  10: -1641.42782092917241   -1.92106e-03   5.20493e-03 DIIS
   @DF-UKS iter  11: -1641.06690842506282    3.60913e-01   3.64854e-02 DIIS
   @DF-UKS iter  12: -1641.43001868410875   -3.63110e-01   1.44076e-03 DIIS
   @DF-UKS iter  13: -1641.43118484057072   -1.16616e-03   7.03685e-04 DIIS
   @DF-UKS iter  14: -1641.43130129927795   -1.16459e-04   3.90659e-04 DIIS
   @DF-UKS iter  15: -1641.43132849110611   -2.71918e-05   7.69654e-05 DIIS
   @DF-UKS iter  16: -1641.43133243541752   -3.94431e-06   8.77613e-06 DIIS
   @DF-UKS iter  17: -1641.43133250821757   -7.28000e-08   2.83902e-06 DIIS
   @DF-UKS iter  18: -1641.43133251541212   -7.19456e-09   6.99182e-07 DIIS
  Energy and wave function converged.


  ==> Post-Iterations <==

   Electrons on quadrature grid:
      Nalpha   =   14.9999999797 ; deviation = -2.026e-08
      Nbeta    =   13.9999999798 ; deviation = -2.025e-08
      Ntotal   =   28.9999999595 ; deviation = -4.051e-08 

   @Spin Contamination Metric:   4.570620322E-03
   @S^2 Expected:                7.500000000E-01
   @S^2 Observed:                7.545706203E-01
   @S   Expected:                5.000000000E-01
   @S   Observed:                5.000000000E-01

    Orbital Energies [Eh]
    ---------------------

    Alpha Occupied:                                                       

       1Ag  -320.870386     2Ag   -38.337648     1B2u  -33.736536  
       1B1u  -33.736536     1B3u  -33.736535     3Ag    -4.107841  
       2B2u   -2.644929     2B1u   -2.644929     2B3u   -2.644929  
       1B3g   -0.197566     1B2g   -0.197566     4Ag    -0.197566  
       1B1g   -0.197566     5Ag    -0.197566     6Ag    -0.173439  

    Alpha Virtual:                                                        

       3B2u   -0.024467     3B3u   -0.024467     3B1u   -0.024466  
       7Ag     0.097832     4B3u    0.107081     4B1u    0.107081  
       4B2u    0.107081     8Ag     0.173853     2B3g    0.173853  
       2B1g    0.173853     2B2g    0.173853     9Ag     0.173853  
       5B3u    0.624946     5B2u    0.624946     5B1u    0.624946  
      10Ag     0.843051     3B1g    0.843051     3B2g    0.843051  
       3B3g    0.843051    11Ag     0.843051    12Ag     2.824340  
       6B3u    2.910423     6B2u    2.910423     6B1u    2.910423  
       7B3u    3.367967     7B2u    3.367967     7B1u    3.367967  
       1Au     3.367967     8B3u    3.367967     8B2u    3.367967  
       8B1u    3.367967     4B1g    3.566958    13Ag     3.566958  
       4B2g    3.566959     4B3g    3.566959    14Ag     3.566959  
       5B3g   12.777423     5B2g   12.777423    15Ag    12.777423  
       5B1g   12.777423    16Ag    12.777423     6B1g   12.777423  
       6B3g   12.777423     6B2g   12.777423    17Ag    12.777423  
       9B1u   12.910168     9B2u   12.910168     2Au    12.910168  
       9B3u   12.910168    10B1u   12.910169    10B2u   12.910169  
      10B3u   12.910169  

    Beta Occupied:                                                        

       1Ag  -320.869146     2Ag   -38.339592     1B2u  -33.737718  
       1B1u  -33.737718     1B3u  -33.737718     3Ag    -4.111175  
       2B2u   -2.647744     2B3u   -2.647744     2B1u   -2.647744  
       4Ag    -0.191454     1B1g   -0.191454     5Ag    -0.191454  
       1B3g   -0.191454     1B2g   -0.191454  

    Beta Virtual:                                                         

       6Ag    -0.162674     3B3u   -0.059853     3B2u   -0.059851  
       3B1u   -0.059850     7Ag     0.068797     2B1g    0.068798  
       8Ag     0.068800     2B2g    0.068801     2B3g    0.068804  
       9Ag     0.078439     4B2u    0.187984     4B1u    0.187985  
       4B3u    0.187986     5B3u    0.622466     5B2u    0.622467  
       5B1u    0.622467    10Ag     0.887348     3B3g    0.887348  
       3B2g    0.887348     3B1g    0.887348    11Ag     0.887348  
      12Ag     2.839859     6B1u    2.925785     6B3u    2.925785  
       6B2u    2.925785     7B1u    3.376459     7B2u    3.376459  
       7B3u    3.376459     1Au     3.376459     8B1u    3.376459  
       8B2u    3.376459     8B3u    3.376459    13Ag     3.581015  
       4B3g    3.581015     4B1g    3.581015     4B2g    3.581015  
      14Ag     3.581015    15Ag    12.772989     5B1g   12.772989  
      16Ag    12.772989     5B2g   12.772989     5B3g   12.772989  
       6B1g   12.772989    17Ag    12.772989     6B2g   12.772989  
       6B3g   12.772989     9B2u   12.908326     9B1u   12.908326  
       9B3u   12.908326     2Au    12.908326    10B2u   12.908327  
      10B1u   12.908327    10B3u   12.908327  

    Final Occupation by Irrep:
             Ag   B1g   B2g   B3g    Au   B1u   B2u   B3u 
    DOCC [     5,    1,    1,    1,    0,    2,    2,    2 ]
    SOCC [     1,    0,    0,    0,    0,    0,    0,    0 ]

  @DF-UKS Final Energy: -1641.43133251541212

   => Energetics <=

    Nuclear Repulsion Energy =              0.0000000000000000
    One-Electron Energy =               -2291.2626172725740616
    Two-Electron Energy =                 718.2143384479968518
    DFT Exchange-Correlation Energy =     -68.3830536908348137
    Empirical Dispersion Energy =           0.0000000000000000
    VV10 Nonlocal Energy =                  0.0000000000000000
    Total Energy =                      -1641.4313325154121230

  UHF NO Occupations:
  HONO-2 :    1B1g 1.9995444
  HONO-1 :    5 Ag 1.9995444
  HONO-0 :    6 Ag 1.0000000
  LUNO+0 :    7 Ag 0.0004556
  LUNO+1 :    2B1g 0.0004556
  LUNO+2 :    8 Ag 0.0004556
  LUNO+3 :    2B2g 0.0004556


Computation Completed


Properties will be evaluated at   0.000000,   0.000000,   0.000000 [a0]

Properties computed using the SCF density matrix

  Nuclear Dipole Moment: [e a0]
     X:     0.0000      Y:     0.0000      Z:     0.0000

  Electronic Dipole Moment: [e a0]
     X:     0.0000      Y:     0.0000      Z:     0.0000

  Dipole Moment: [e a0]
     X:     0.0000      Y:     0.0000      Z:     0.0000     Total:     0.0000

  Dipole Moment: [D]
     X:     0.0000      Y:     0.0000      Z:     0.0000     Total:     0.0000


*** tstop() called on compute134.bc4.acrc.priv at Sun Nov  7 05:07:23 2021
Module time:
	user time   =      68.88 seconds =       1.15 minutes
	system time =       3.36 seconds =       0.06 minutes
	total time  =          2 seconds =       0.03 minutes
Total time:
	user time   =      68.88 seconds =       1.15 minutes
	system time =       3.36 seconds =       0.06 minutes
	total time  =          2 seconds =       0.03 minutes

    Psi4 stopped on: Sunday, 07 November 2021 05:07AM
    Psi4 wall time for execution: 0:00:02.80

*** Psi4 exiting successfully. Buy a developer a beer!
