
    -----------------------------------------------------------------------
          Psi4: An Open-Source Ab Initio Electronic Structure Package
                               Psi4 1.4.1 release

                         Git: Rev {HEAD} cd00f19 


    D. G. A. Smith, L. A. Burns, A. C. Simmonett, R. M. Parrish,
    M. C. Schieber, R. Galvelis, P. Kraus, H. Kruse, R. Di Remigio,
    A. Alenaizan, A. M. James, S. Lehtola, J. P. Misiewicz, M. Scheurer,
    R. A. Shaw, J. B. Schriber, Y. Xie, Z. L. Glick, D. A. Sirianni,
    J. S. O'Brien, J. M. Waldrop, A. Kumar, E. G. Hohenstein,
    B. P. Pritchard, B. R. Brooks, H. F. Schaefer III, A. Yu. Sokolov,
    K. Patkowski, A. E. DePrince III, U. Bozkaya, R. A. King,
    F. A. Evangelista, J. M. Turney, T. D. Crawford, C. D. Sherrill,
    J. Chem. Phys. 152(18) 184108 (2020). https://doi.org/10.1063/5.0006002

                            Additional Code Authors
    E. T. Seidl, C. L. Janssen, E. F. Valeev, M. L. Leininger,
    J. F. Gonthier, R. M. Richard, H. R. McAlexander, M. Saitow, X. Wang,
    P. Verma, and M. H. Lechner

             Previous Authors, Complete List of Code Contributors,
                       and Citations for Specific Modules
    https://github.com/psi4/psi4/blob/master/codemeta.json
    https://github.com/psi4/psi4/graphs/contributors
    http://psicode.org/psi4manual/master/introduction.html#citing-psifour

    -----------------------------------------------------------------------


    Psi4 started on: Sunday, 07 November 2021 05:07AM

    Process ID: 8085
    Host:       compute476.bc4.acrc.priv
    PSIDATADIR: /mnt/storage/home/zw18965/.conda/envs/p4env/share/psi4
    Memory:     500.0 MiB
    Threads:    28
    
  ==> Input File <==

--------------------------------------------------------------------------
memory 120 GB

molecule {
0 1
Cu         0.00000        0.00000        0.00000
Cu         0.00000        0.00000        2.22000
 }

set dynamic_level 1
set basis Def2-TZVPPD

energy("GAM")
--------------------------------------------------------------------------

  Memory set to 111.759 GiB by Python driver.

Scratch directory: /tmp/

*** tstart() called on compute476.bc4.acrc.priv
*** at Sun Nov  7 05:07:21 2021

   => Loading Basis Set <=

    Name: DEF2-TZVPPD
    Role: ORBITAL
    Keyword: BASIS
    atoms 1-2 entry CU         line  1290 file /mnt/storage/home/zw18965/.conda/envs/p4env/share/psi4/basis/def2-tzvppd.gbs 


         ---------------------------------------------------------
                                   SCF
               by Justin Turney, Rob Parrish, Andy Simmonett
                          and Daniel G. A. Smith
                              RKS Reference
                       28 Threads, 114440 MiB Core
         ---------------------------------------------------------

  ==> Geometry <==

    Molecular point group: d2h
    Full point group: D_inf_h

    Geometry (in Angstrom), charge = 0, multiplicity = 1:

       Center              X                  Y                   Z               Mass       
    ------------   -----------------  -----------------  -----------------  -----------------
         CU           0.000000000000     0.000000000000    -1.110000000000    62.929597720000
         CU           0.000000000000     0.000000000000     1.110000000000    62.929597720000

  Running in d2h symmetry.

  Rotational constants: A = ************  B =      0.10871  C =      0.10871 [cm^-1]
  Rotational constants: A = ************  B =   3259.01448  C =   3259.01448 [MHz]
  Nuclear repulsion =  200.467582961022515

  Charge       = 0
  Multiplicity = 1
  Electrons    = 58
  Nalpha       = 29
  Nbeta        = 29

  ==> Algorithm <==

  SCF Algorithm Type is DF.
  DIIS enabled.
  MOM disabled.
  Fractional occupation disabled.
  Guess Type is SAD.
  Energy threshold   = 1.00e-06
  Density threshold  = 1.00e-06
  Integral threshold = 1.00e-12

  ==> Primary Basis <==

  Basis Set: DEF2-TZVPPD
    Blend: DEF2-TZVPPD
    Number of shells: 38
    Number of basis functions: 134
    Number of Cartesian functions: 166
    Spherical Harmonics?: true
    Max angular momentum: 4

  ==> DFT Potential <==

   => Composite Functional: GAM <= 

   GAM GGA Minessota Exchange-Correlation Functional

    H.S. Yu, et al., Phys. Chem. Chem. Phys. 17, 12146, 2015


    Deriv               =              1
    GGA                 =           TRUE
    Meta                =          FALSE

    Exchange Hybrid     =          FALSE
    MP2 Hybrid          =          FALSE

   => Exchange Functionals <=

    1.0000     XC_GGA_X_GAM

   => Correlation Functionals <=

    1.0000     XC_GGA_C_GAM

   => LibXC Density Thresholds  <==

    XC_GGA_C_GAM:  1.00E-14 
    XC_GGA_X_GAM:  1.00E-14 

   => Molecular Quadrature <=

    Radial Scheme          =       TREUTLER
    Pruning Scheme         =           NONE
    Nuclear Scheme         =       TREUTLER

    BS radius alpha        =              1
    Pruning alpha          =              1
    Radial Points          =             75
    Spherical Points       =            302
    Total Points           =          43516
    Total Blocks           =            428
    Max Points             =            252
    Max Functions          =            129
    Weights Tolerance      =       1.00E-15

   => Loading Basis Set <=

    Name: (DEF2-TZVPPD AUX)
    Role: JKFIT
    Keyword: DF_BASIS_SCF
    atoms 1-2 entry CU         line  2356 file /mnt/storage/home/zw18965/.conda/envs/p4env/share/psi4/basis/def2-universal-jkfit.gbs 

  ==> Integral Setup <==

  DFHelper Memory: AOs need 0.078 GiB; user supplied 83.706 GiB. Using in-core AOs.

  ==> MemDFJK: Density-Fitted J/K Matrices <==

    J tasked:                   Yes
    K tasked:                    No
    wK tasked:                   No
    OpenMP threads:              28
    Memory [MiB]:             85714
    Algorithm:                 Core
    Schwarz Cutoff:           1E-12
    Mask sparsity (%):       4.9231
    Fitting Condition:        1E-10

   => Auxiliary Basis Set <=

  Basis Set: (DEF2-TZVPPD AUX)
    Blend: DEF2-UNIVERSAL-JKFIT
    Number of shells: 116
    Number of basis functions: 528
    Number of Cartesian functions: 754
    Spherical Harmonics?: true
    Max angular momentum: 6

  Cached 100.0% of DFT collocation blocks in 0.114 [GiB].

  Minimum eigenvalue in the overlap matrix is 1.8045865433E-03.
  Reciprocal condition number of the overlap matrix is 4.2878613612E-04.
    Using symmetric orthogonalization.

  ==> Pre-Iterations <==

  SCF Guess: Superposition of Atomic Densities via on-the-fly atomic UHF (no occupation information).

   -------------------------
    Irrep   Nso     Nmo    
   -------------------------
     Ag        27      27 
     B1g        8       8 
     B2g       16      16 
     B3g       16      16 
     Au         8       8 
     B1u       27      27 
     B2u       16      16 
     B3u       16      16 
   -------------------------
    Total     134     134
   -------------------------

  ==> Iterations <==

                           Total Energy        Delta E     RMS |[F,P]|

   @DF-RKS iter SAD: -3278.33945955296258   -3.27834e+03   0.00000e+00 
    Occupation by irrep:
             Ag   B1g   B2g   B3g    Au   B1u   B2u   B3u 
    DOCC [     9,    1,    3,    3,    0,    7,    3,    3 ]

   @DF-RKS iter   1: -3275.96192299234326    2.37754e+00   1.26320e-01 DIIS
    Occupation by irrep:
             Ag   B1g   B2g   B3g    Au   B1u   B2u   B3u 
    DOCC [     8,    1,    3,    3,    1,    7,    3,    3 ]

   @DF-RKS iter   2: -3187.81096834855543    8.81510e+01   2.70474e-01 DIIS
    Occupation by irrep:
             Ag   B1g   B2g   B3g    Au   B1u   B2u   B3u 
    DOCC [     8,    1,    3,    3,    0,    7,    4,    3 ]

   @DF-RKS iter   3: -3281.18760363020465   -9.33766e+01   5.07029e-02 DIIS
    Occupation by irrep:
             Ag   B1g   B2g   B3g    Au   B1u   B2u   B3u 
    DOCC [     8,    1,    3,    3,    1,    7,    3,    3 ]

   @DF-RKS iter   4: -3242.69185771505363    3.84957e+01   2.00419e-01 DIIS
   @DF-RKS iter   5: -3280.39718420396639   -3.77053e+01   6.25661e-02 DIIS
   @DF-RKS iter   6: -3282.82377113766779   -2.42659e+00   1.45799e-02 DIIS
   @DF-RKS iter   7: -3282.90533368987053   -8.15626e-02   5.46012e-03 DIIS
   @DF-RKS iter   8: -3282.91970111592582   -1.43674e-02   4.04044e-03 DIIS
   @DF-RKS iter   9: -3282.92718876140952   -7.48765e-03   7.28009e-04 DIIS
   @DF-RKS iter  10: -3282.92743021551587   -2.41454e-04   8.65041e-05 DIIS
   @DF-RKS iter  11: -3282.92743380385582   -3.58834e-06   1.75914e-05 DIIS
   @DF-RKS iter  12: -3282.92743393987712   -1.36021e-07   1.33306e-06 DIIS
   @DF-RKS iter  13: -3282.92743394088575   -1.00863e-09   6.06388e-08 DIIS
  Energy and wave function converged.


  ==> Post-Iterations <==

   Electrons on quadrature grid:
      Ntotal   =   58.0000051658 ; deviation = 5.166e-06 

    Orbital Energies [Eh]
    ---------------------

    Doubly Occupied:                                                      

       1B1u -320.871399     1Ag  -320.871380     2B1u  -38.343108  
       2Ag   -38.343057     3Ag   -33.742081     3B1u  -33.742080  
       1B3g  -33.740827     1B2g  -33.740827     1B2u  -33.740825  
       1B3u  -33.740825     4Ag    -4.113451     4B1u   -4.112835  
       5Ag    -2.655047     5B1u   -2.650261     2B2u   -2.648395  
       2B3u   -2.648395     2B3g   -2.647926     2B2g   -2.647926  
       6Ag    -0.235307     3B2u   -0.216090     3B3u   -0.216090  
       1B1g   -0.198379     7Ag    -0.198371     1Au    -0.190710  
       6B1u   -0.190702     8Ag    -0.184467     3B3g   -0.184068  
       3B2g   -0.184068     7B1u   -0.181743  

    Virtual:                                                              

       8B1u   -0.106378     4B3u   -0.040979     4B2u   -0.040979  
       9Ag    -0.012949     4B3g    0.030112     4B2g    0.030112  
       9B1u    0.054452    10Ag     0.085049     5B3u    0.112461  
       5B2u    0.112461    11Ag     0.116050     2B1g    0.143406  
      12Ag     0.143406     5B2g    0.159213     5B3g    0.159213  
      10B1u    0.170397     6B3u    0.205579     6B2u    0.205579  
      11B1u    0.208416     2Au     0.220260    12B1u    0.220260  
      13Ag     0.305080     6B2g    0.319756     6B3g    0.319756  
      13B1u    0.482743    14Ag     0.604508     7B3u    0.616710  
       7B2u    0.616710     7B3g    0.694588     7B2g    0.694588  
      14B1u    0.748061     8B2u    0.794778     8B3u    0.794778  
       3B1g    0.825638    15Ag     0.825648     3Au     0.905286  
      15B1u    0.905295    16Ag     0.931761     8B3g    1.051545  
       8B2g    1.051545    16B1u    1.264156    17Ag     2.870366  
       9B2u    2.898577     9B3u    2.898577    17B1u    2.966922  
       9B3g    2.985244     9B2g    2.985244    18Ag     3.036709  
      18B1u    3.325343    10B2u    3.340229    10B3u    3.340229  
      19Ag     3.359202     4B1g    3.366173    20Ag     3.366201  
      11B2u    3.378581    11B3u    3.378581    10B3g    3.379108  
      10B2g    3.379108     4Au     3.379668    19B1u    3.379704  
      11B3g    3.388643    11B2g    3.388643    20B1u    3.510587  
       5B1g    3.560710    21Ag     3.560769     5Au     3.605071  
      21B1u    3.605124    12B2u    3.630305    12B3u    3.630305  
      12B3g    3.709615    12B2g    3.709615    22Ag     3.896078  
      22B1u    4.017262    13B2u   12.771478    13B3u   12.771478  
      23Ag    12.771514    13B3g   12.771976    13B2g   12.771976  
       6B1g   12.772171     6Au    12.772189    24Ag    12.773008  
      23B1u   12.773028    24B1u   12.773086    14B3u   12.774461  
      14B2u   12.774461    14B2g   12.774469    14B3g   12.774469  
      25Ag    12.776458    25B1u   12.776459     7B1g   12.776781  
       7Au    12.776781    26Ag    12.894607    15B2u   12.900213  
      15B3u   12.900213     8B1g   12.903878    27Ag    12.904184  
      16B3u   12.907169    16B2u   12.907169    15B3g   12.907346  
      15B2g   12.907346     8Au    12.907501    26B1u   12.907804  
      16B3g   12.931590    16B2g   12.931590    27B1u   13.053330  

    Final Occupation by Irrep:
             Ag   B1g   B2g   B3g    Au   B1u   B2u   B3u 
    DOCC [     8,    1,    3,    3,    1,    7,    3,    3 ]

  @DF-RKS Final Energy: -3282.92743394088575

   => Energetics <=

    Nuclear Repulsion Energy =            200.4675829610225151
    One-Electron Energy =               -4983.3390341823787821
    Two-Electron Energy =                1636.7107752737151714
    DFT Exchange-Correlation Energy =    -136.7667579932445392
    Empirical Dispersion Energy =           0.0000000000000000
    VV10 Nonlocal Energy =                  0.0000000000000000
    Total Energy =                      -3282.9274339408857486

Computation Completed


Properties will be evaluated at   0.000000,   0.000000,   0.000000 [a0]

Properties computed using the SCF density matrix

  Nuclear Dipole Moment: [e a0]
     X:     0.0000      Y:     0.0000      Z:     0.0000

  Electronic Dipole Moment: [e a0]
     X:     0.0000      Y:     0.0000      Z:     0.0000

  Dipole Moment: [e a0]
     X:     0.0000      Y:     0.0000      Z:     0.0000     Total:     0.0000

  Dipole Moment: [D]
     X:     0.0000      Y:     0.0000      Z:     0.0000     Total:     0.0000


*** tstop() called on compute476.bc4.acrc.priv at Sun Nov  7 05:07:23 2021
Module time:
	user time   =      37.61 seconds =       0.63 minutes
	system time =       1.78 seconds =       0.03 minutes
	total time  =          2 seconds =       0.03 minutes
Total time:
	user time   =      37.61 seconds =       0.63 minutes
	system time =       1.78 seconds =       0.03 minutes
	total time  =          2 seconds =       0.03 minutes

    Psi4 stopped on: Sunday, 07 November 2021 05:07AM
    Psi4 wall time for execution: 0:00:01.95

*** Psi4 exiting successfully. Buy a developer a beer!
