
    -----------------------------------------------------------------------
          Psi4: An Open-Source Ab Initio Electronic Structure Package
                               Psi4 1.4.1 release

                         Git: Rev {HEAD} cd00f19 


    D. G. A. Smith, L. A. Burns, A. C. Simmonett, R. M. Parrish,
    M. C. Schieber, R. Galvelis, P. Kraus, H. Kruse, R. Di Remigio,
    A. Alenaizan, A. M. James, S. Lehtola, J. P. Misiewicz, M. Scheurer,
    R. A. Shaw, J. B. Schriber, Y. Xie, Z. L. Glick, D. A. Sirianni,
    J. S. O'Brien, J. M. Waldrop, A. Kumar, E. G. Hohenstein,
    B. P. Pritchard, B. R. Brooks, H. F. Schaefer III, A. Yu. Sokolov,
    K. Patkowski, A. E. DePrince III, U. Bozkaya, R. A. King,
    F. A. Evangelista, J. M. Turney, T. D. Crawford, C. D. Sherrill,
    J. Chem. Phys. 152(18) 184108 (2020). https://doi.org/10.1063/5.0006002

                            Additional Code Authors
    E. T. Seidl, C. L. Janssen, E. F. Valeev, M. L. Leininger,
    J. F. Gonthier, R. M. Richard, H. R. McAlexander, M. Saitow, X. Wang,
    P. Verma, and M. H. Lechner

             Previous Authors, Complete List of Code Contributors,
                       and Citations for Specific Modules
    https://github.com/psi4/psi4/blob/master/codemeta.json
    https://github.com/psi4/psi4/graphs/contributors
    http://psicode.org/psi4manual/master/introduction.html#citing-psifour

    -----------------------------------------------------------------------


    Psi4 started on: Sunday, 07 November 2021 05:06AM

    Process ID: 22564
    Host:       compute297.bc4.acrc.priv
    PSIDATADIR: /mnt/storage/home/zw18965/.conda/envs/p4env/share/psi4
    Memory:     500.0 MiB
    Threads:    28
    
  ==> Input File <==

--------------------------------------------------------------------------
memory 120 GB

molecule {
0 1
Cu         0.00000        0.00000        0.00000
Ag         0.00000        0.00000        2.25929
 }

set dynamic_level 1
set basis Def2-TZVPPD

energy("GAM")
--------------------------------------------------------------------------

  Memory set to 111.759 GiB by Python driver.

Scratch directory: /tmp/

*** tstart() called on compute297.bc4.acrc.priv
*** at Sun Nov  7 05:06:22 2021

   => Loading Basis Set <=

    Name: DEF2-TZVPPD
    Role: ORBITAL
    Keyword: BASIS
    atoms 1 entry CU         line  1290 file /mnt/storage/home/zw18965/.conda/envs/p4env/share/psi4/basis/def2-tzvppd.gbs 
    atoms 2 entry AG         line  2174 (ECP: line  3646) file /mnt/storage/home/zw18965/.conda/envs/p4env/share/psi4/basis/def2-tzvppd.gbs 

    !!!  WARNING: ECP capability is in beta. Please check occupations closely.  !!!


         ---------------------------------------------------------
                                   SCF
               by Justin Turney, Rob Parrish, Andy Simmonett
                          and Daniel G. A. Smith
                              RKS Reference
                       28 Threads, 114440 MiB Core
         ---------------------------------------------------------

  ==> Geometry <==

    Molecular point group: c2v
    Full point group: C_inf_v

    Geometry (in Angstrom), charge = 0, multiplicity = 1:

       Center              X                  Y                   Z               Mass       
    ------------   -----------------  -----------------  -----------------  -----------------
         CU           0.000000000000     0.000000000000    -1.422145295334    62.929597720000
         AG           0.000000000000     0.000000000000     0.837144704666   106.905091600000

  Running in c2v symmetry.

  Rotational constants: A = ************  B =      0.08337  C =      0.08337 [cm^-1]
  Rotational constants: A = ************  B =   2499.46060  C =   2499.46060 [MHz]
  Nuclear repulsion =  129.056758131612156

  Charge       = 0
  Multiplicity = 1
  Electrons    = 48
  Nalpha       = 24
  Nbeta        = 24

  ==> Algorithm <==

  SCF Algorithm Type is DF.
  DIIS enabled.
  MOM disabled.
  Fractional occupation disabled.
  Guess Type is SAD.
  Energy threshold   = 1.00e-06
  Density threshold  = 1.00e-06
  Integral threshold = 1.00e-12

  ==> Primary Basis <==

  Basis Set: DEF2-TZVPPD
    Blend: DEF2-TZVPPD
    Number of shells: 35
    Number of basis functions: 123
    Number of Cartesian functions: 154
    Spherical Harmonics?: true
    Max angular momentum: 4

  Core potential: DEF2-TZVPPD
    Number of shells: 4
    Number of ECP primitives: 14
    Number of ECP core electrons: 28
    Max angular momentum: 3

  ==> DFT Potential <==

   => Composite Functional: GAM <= 

   GAM GGA Minessota Exchange-Correlation Functional

    H.S. Yu, et al., Phys. Chem. Chem. Phys. 17, 12146, 2015


    Deriv               =              1
    GGA                 =           TRUE
    Meta                =          FALSE

    Exchange Hybrid     =          FALSE
    MP2 Hybrid          =          FALSE

   => Exchange Functionals <=

    1.0000     XC_GGA_X_GAM

   => Correlation Functionals <=

    1.0000     XC_GGA_C_GAM

   => LibXC Density Thresholds  <==

    XC_GGA_C_GAM:  1.00E-14 
    XC_GGA_X_GAM:  1.00E-14 

   => Molecular Quadrature <=

    Radial Scheme          =       TREUTLER
    Pruning Scheme         =           NONE
    Nuclear Scheme         =       TREUTLER

    BS radius alpha        =              1
    Pruning alpha          =              1
    Radial Points          =             75
    Spherical Points       =            302
    Total Points           =          42944
    Total Blocks           =            427
    Max Points             =            256
    Max Functions          =            121
    Weights Tolerance      =       1.00E-15

   => Loading Basis Set <=

    Name: (DEF2-TZVPPD AUX)
    Role: JKFIT
    Keyword: DF_BASIS_SCF
    atoms 1 entry CU         line  2356 file /mnt/storage/home/zw18965/.conda/envs/p4env/share/psi4/basis/def2-universal-jkfit.gbs 
    atoms 2 entry AG         line  4364 file /mnt/storage/home/zw18965/.conda/envs/p4env/share/psi4/basis/def2-universal-jkfit.gbs 

  ==> Integral Setup <==

  DFHelper Memory: AOs need 0.067 GiB; user supplied 83.711 GiB. Using in-core AOs.

  ==> MemDFJK: Density-Fitted J/K Matrices <==

    J tasked:                   Yes
    K tasked:                    No
    wK tasked:                   No
    OpenMP threads:              28
    Memory [MiB]:             85719
    Algorithm:                 Core
    Schwarz Cutoff:           1E-12
    Mask sparsity (%):       1.5070
    Fitting Condition:        1E-10

   => Auxiliary Basis Set <=

  Basis Set: (DEF2-TZVPPD AUX)
    Blend: DEF2-UNIVERSAL-JKFIT
    Number of shells: 107
    Number of basis functions: 519
    Number of Cartesian functions: 761
    Spherical Harmonics?: true
    Max angular momentum: 6

  Cached 100.0% of DFT collocation blocks in 0.108 [GiB].

  Minimum eigenvalue in the overlap matrix is 1.3894909060E-03.
  Reciprocal condition number of the overlap matrix is 3.1777066296E-04.
    Using symmetric orthogonalization.

  ==> Pre-Iterations <==

  SCF Guess: Superposition of Atomic Densities via on-the-fly atomic UHF (no occupation information).

   -------------------------
    Irrep   Nso     Nmo    
   -------------------------
     A1        50      50 
     A2        15      15 
     B1        29      29 
     B2        29      29 
   -------------------------
    Total     123     123
   -------------------------

  ==> Iterations <==

                           Total Energy        Delta E     RMS |[F,P]|

   @DF-RKS iter SAD: -1786.47260795903776   -1.78647e+03   0.00000e+00 
    Occupation by irrep:
             A1    A2    B1    B2 
    DOCC [    12,    1,    5,    6 ]

   @DF-RKS iter   1: -1784.07437741187118    2.39823e+00   7.61541e-02 DIIS
    Occupation by irrep:
             A1    A2    B1    B2 
    DOCC [    12,    2,    5,    5 ]

   @DF-RKS iter   2: -1731.42269106534650    5.26517e+01   1.62452e-01 DIIS
   @DF-RKS iter   3: -1785.37659741891639   -5.39539e+01   4.60483e-02 DIIS
   @DF-RKS iter   4: -1783.51029667207013    1.86630e+00   6.52436e-02 DIIS
   @DF-RKS iter   5: -1788.73919997018402   -5.22890e+00   1.83691e-02 DIIS
   @DF-RKS iter   6: -1788.81817060977392   -7.89706e-02   1.42451e-02 DIIS
   @DF-RKS iter   7: -1789.02995101916076   -2.11780e-01   3.55061e-03 DIIS
   @DF-RKS iter   8: -1789.05309411278722   -2.31431e-02   1.13629e-03 DIIS
   @DF-RKS iter   9: -1789.05617864310602   -3.08453e-03   2.36306e-04 DIIS
   @DF-RKS iter  10: -1789.05641759174887   -2.38949e-04   2.93817e-05 DIIS
   @DF-RKS iter  11: -1789.05641901598437   -1.42424e-06   1.14293e-05 DIIS
   @DF-RKS iter  12: -1789.05641919352956   -1.77545e-07   7.55339e-06 DIIS
   @DF-RKS iter  13: -1789.05641926386284   -7.03333e-08   1.36276e-06 DIIS
   @DF-RKS iter  14: -1789.05641926581575   -1.95291e-09   2.15652e-07 DIIS
  Energy and wave function converged.


  ==> Post-Iterations <==

   Electrons on quadrature grid:
      Ntotal   =   47.9999962497 ; deviation = -3.750e-06 

    Orbital Energies [Eh]
    ---------------------

    Doubly Occupied:                                                      

       1A1  -320.870264     2A1   -38.341892     3A1   -33.740606  
       1B2   -33.739770     1B1   -33.739770     4A1    -4.112996  
       5A1    -3.576781     6A1    -2.652721     2B2    -2.648128  
       2B1    -2.648128     7A1    -2.211530     3B2    -2.204967  
       3B1    -2.204967     8A1    -0.298648     4B2    -0.282597  
       4B1    -0.282597     9A1    -0.269073     1A2    -0.269068  
      10A1    -0.197097     2A2    -0.194581    11A1    -0.194566  
       5B2    -0.194557     5B1    -0.194557    12A1    -0.185180  

    Virtual:                                                              

      13A1    -0.105697     6B2    -0.040451     6B1    -0.040451  
      14A1    -0.010201     7B1     0.032043     7B2     0.032043  
      15A1     0.067852    16A1     0.087119     8B2     0.124290  
       8B1     0.124290    17A1     0.145516    18A1     0.158535  
       3A2     0.162345    19A1     0.162346     9B2     0.194573  
       9B1     0.194573    10B2     0.244854    10B1     0.244854  
      20A1     0.256861    21A1     0.414663     4A2     0.414663  
      22A1     0.421490    11B2     0.537460    11B1     0.537460  
      23A1     0.607501    12B2     0.638322    12B1     0.638323  
      24A1     0.714403     5A2     0.854536    25A1     0.854549  
      13B2     0.865816    13B1     0.865816    26A1     0.976592  
      27A1     1.538943     6A2     1.538954    14B2     1.540676  
      14B1     1.540676    15B2     1.578796    15B1     1.578796  
      16B2     1.619501    16B1     1.619501    28A1     1.631883  
      29A1     1.727694     7A2     1.995609    30A1     1.995613  
      17B2     2.080680    17B1     2.080680    31A1     2.081832  
      32A1     2.202482    18B2     2.931812    18B1     2.931812  
      33A1     3.045204    34A1     3.104393     8A2     3.374456  
      35A1     3.374509    19B1     3.377833    19B2     3.377833  
      20B2     3.388672    20B1     3.388672    36A1     3.489101  
       9A2     3.574181    37A1     3.574288    21B2     3.615099  
      21B1     3.615099    38A1     3.852524    22B1     4.680204  
      22B2     4.680204    10A2     4.680804    39A1     4.680859  
      23B2     4.742433    23B1     4.742433    40A1     4.957624  
      41A1     5.423268    11A2     5.423295    24B1     5.425857  
      24B2     5.425857    42A1     5.429036    12A2     5.429459  
      25B2     5.429931    25B1     5.429931    43A1     5.450778  
      26B2    12.770597    26B1    12.770597    13A2    12.771430  
      44A1    12.772078    45A1    12.772808    27B1    12.774195  
      27B2    12.774195    46A1    12.776164    14A2    12.776615  
      15A2    12.906107    47A1    12.906558    28B2    12.907324  
      28B1    12.907324    29B2    12.914618    29B1    12.914618  
      48A1    12.958178    49A1    33.485717    50A1   110.829392  

    Final Occupation by Irrep:
             A1    A2    B1    B2 
    DOCC [    12,    2,    5,    5 ]

  @DF-RKS Final Energy: -1789.05641926581575

   => Energetics <=

    Nuclear Repulsion Energy =            129.0567581316121561
    One-Electron Energy =               -2810.9880942759746176
    Two-Electron Energy =                 976.0967182017841424
    DFT Exchange-Correlation Energy =     -83.2218013232375853
    Empirical Dispersion Energy =           0.0000000000000000
    VV10 Nonlocal Energy =                  0.0000000000000000
    Total Energy =                      -1789.0564192658157481

Computation Completed


Properties will be evaluated at   0.000000,   0.000000,   0.000000 [a0]

Properties computed using the SCF density matrix

  Nuclear Dipole Moment: [e a0]
     X:     0.0000      Y:     0.0000      Z:   -47.8790

  Electronic Dipole Moment: [e a0]
     X:     0.0000      Y:     0.0000      Z:    47.8946

  Dipole Moment: [e a0]
     X:     0.0000      Y:     0.0000      Z:     0.0156     Total:     0.0156

  Dipole Moment: [D]
     X:     0.0000      Y:     0.0000      Z:     0.0397     Total:     0.0397


*** tstop() called on compute297.bc4.acrc.priv at Sun Nov  7 05:06:28 2021
Module time:
	user time   =      63.31 seconds =       1.06 minutes
	system time =       3.08 seconds =       0.05 minutes
	total time  =          6 seconds =       0.10 minutes
Total time:
	user time   =      63.31 seconds =       1.06 minutes
	system time =       3.08 seconds =       0.05 minutes
	total time  =          6 seconds =       0.10 minutes

    Psi4 stopped on: Sunday, 07 November 2021 05:06AM
    Psi4 wall time for execution: 0:00:06.12

*** Psi4 exiting successfully. Buy a developer a beer!
