
    -----------------------------------------------------------------------
          Psi4: An Open-Source Ab Initio Electronic Structure Package
                               Psi4 1.4.1 release

                         Git: Rev {HEAD} cd00f19 


    D. G. A. Smith, L. A. Burns, A. C. Simmonett, R. M. Parrish,
    M. C. Schieber, R. Galvelis, P. Kraus, H. Kruse, R. Di Remigio,
    A. Alenaizan, A. M. James, S. Lehtola, J. P. Misiewicz, M. Scheurer,
    R. A. Shaw, J. B. Schriber, Y. Xie, Z. L. Glick, D. A. Sirianni,
    J. S. O'Brien, J. M. Waldrop, A. Kumar, E. G. Hohenstein,
    B. P. Pritchard, B. R. Brooks, H. F. Schaefer III, A. Yu. Sokolov,
    K. Patkowski, A. E. DePrince III, U. Bozkaya, R. A. King,
    F. A. Evangelista, J. M. Turney, T. D. Crawford, C. D. Sherrill,
    J. Chem. Phys. 152(18) 184108 (2020). https://doi.org/10.1063/5.0006002

                            Additional Code Authors
    E. T. Seidl, C. L. Janssen, E. F. Valeev, M. L. Leininger,
    J. F. Gonthier, R. M. Richard, H. R. McAlexander, M. Saitow, X. Wang,
    P. Verma, and M. H. Lechner

             Previous Authors, Complete List of Code Contributors,
                       and Citations for Specific Modules
    https://github.com/psi4/psi4/blob/master/codemeta.json
    https://github.com/psi4/psi4/graphs/contributors
    http://psicode.org/psi4manual/master/introduction.html#citing-psifour

    -----------------------------------------------------------------------


    Psi4 started on: Sunday, 07 November 2021 05:06AM

    Process ID: 10394
    Host:       compute431.bc4.acrc.priv
    PSIDATADIR: /mnt/storage/home/zw18965/.conda/envs/p4env/share/psi4
    Memory:     500.0 MiB
    Threads:    28
    
  ==> Input File <==

--------------------------------------------------------------------------
memory 120 GB

molecule {
1 1
Cu         0.00000        0.00000       -0.49385
O          0.00000        0.00000        1.33615
H         -0.83138        0.00000        1.81615
H          0.83138        0.00000        1.81615
 }

set dynamic_level 1
set basis Def2-TZVPPD

energy("GAM")
--------------------------------------------------------------------------

  Memory set to 111.759 GiB by Python driver.

Scratch directory: /tmp/

*** tstart() called on compute431.bc4.acrc.priv
*** at Sun Nov  7 05:06:22 2021

   => Loading Basis Set <=

    Name: DEF2-TZVPPD
    Role: ORBITAL
    Keyword: BASIS
    atoms 1   entry CU         line  1290 file /mnt/storage/home/zw18965/.conda/envs/p4env/share/psi4/basis/def2-tzvppd.gbs 
    atoms 2   entry O          line   218 file /mnt/storage/home/zw18965/.conda/envs/p4env/share/psi4/basis/def2-tzvppd.gbs 
    atoms 3-4 entry H          line    14 file /mnt/storage/home/zw18965/.conda/envs/p4env/share/psi4/basis/def2-tzvppd.gbs 


         ---------------------------------------------------------
                                   SCF
               by Justin Turney, Rob Parrish, Andy Simmonett
                          and Daniel G. A. Smith
                              RKS Reference
                       28 Threads, 114440 MiB Core
         ---------------------------------------------------------

  ==> Geometry <==

    Molecular point group: c2v
    Full point group: C2v

    Geometry (in Angstrom), charge = 1, multiplicity = 1:

       Center              X                  Y                   Z               Mass       
    ------------   -----------------  -----------------  -----------------  -----------------
         CU           0.000000000000    -0.000000000000    -0.419159591420    62.929597720000
         O            0.000000000000    -0.000000000000     1.410840408580    15.994914619570
         H           -0.831380000000    -0.000000000000     1.890840408580     1.007825032230
         H            0.831380000000     0.000000000000     1.890840408580     1.007825032230

  Running in c2v symmetry.

  Rotational constants: A =     12.09991  B =      0.33648  C =      0.32737 [cm^-1]
  Rotational constants: A = 362746.23798  B =  10087.34150  C =   9814.41957 [MHz]
  Nuclear repulsion =   88.726523002405358

  Charge       = 1
  Multiplicity = 1
  Electrons    = 38
  Nalpha       = 19
  Nbeta        = 19

  ==> Algorithm <==

  SCF Algorithm Type is DF.
  DIIS enabled.
  MOM disabled.
  Fractional occupation disabled.
  Guess Type is SAD.
  Energy threshold   = 1.00e-06
  Density threshold  = 1.00e-06
  Integral threshold = 1.00e-12

  ==> Primary Basis <==

  Basis Set: DEF2-TZVPPD
    Blend: DEF2-TZVPPD
    Number of shells: 47
    Number of basis functions: 141
    Number of Cartesian functions: 165
    Spherical Harmonics?: true
    Max angular momentum: 4

  ==> DFT Potential <==

   => Composite Functional: GAM <= 

   GAM GGA Minessota Exchange-Correlation Functional

    H.S. Yu, et al., Phys. Chem. Chem. Phys. 17, 12146, 2015


    Deriv               =              1
    GGA                 =           TRUE
    Meta                =          FALSE

    Exchange Hybrid     =          FALSE
    MP2 Hybrid          =          FALSE

   => Exchange Functionals <=

    1.0000     XC_GGA_X_GAM

   => Correlation Functionals <=

    1.0000     XC_GGA_C_GAM

   => LibXC Density Thresholds  <==

    XC_GGA_C_GAM:  1.00E-14 
    XC_GGA_X_GAM:  1.00E-14 

   => Molecular Quadrature <=

    Radial Scheme          =       TREUTLER
    Pruning Scheme         =           NONE
    Nuclear Scheme         =       TREUTLER

    BS radius alpha        =              1
    Pruning alpha          =              1
    Radial Points          =             75
    Spherical Points       =            302
    Total Points           =          87793
    Total Blocks           =            725
    Max Points             =            256
    Max Functions          =            140
    Weights Tolerance      =       1.00E-15

   => Loading Basis Set <=

    Name: (DEF2-TZVPPD AUX)
    Role: JKFIT
    Keyword: DF_BASIS_SCF
    atoms 1   entry CU         line  2356 file /mnt/storage/home/zw18965/.conda/envs/p4env/share/psi4/basis/def2-universal-jkfit.gbs 
    atoms 2   entry O          line   318 file /mnt/storage/home/zw18965/.conda/envs/p4env/share/psi4/basis/def2-universal-jkfit.gbs 
    atoms 3-4 entry H          line    18 file /mnt/storage/home/zw18965/.conda/envs/p4env/share/psi4/basis/def2-universal-jkfit.gbs 

  ==> Integral Setup <==

  DFHelper Memory: AOs need 0.067 GiB; user supplied 83.535 GiB. Using in-core AOs.

  ==> MemDFJK: Density-Fitted J/K Matrices <==

    J tasked:                   Yes
    K tasked:                    No
    wK tasked:                   No
    OpenMP threads:              28
    Memory [MiB]:             85539
    Algorithm:                 Core
    Schwarz Cutoff:           1E-12
    Mask sparsity (%):       0.3923
    Fitting Condition:        1E-10

   => Auxiliary Basis Set <=

  Basis Set: (DEF2-TZVPPD AUX)
    Blend: DEF2-UNIVERSAL-JKFIT
    Number of shells: 95
    Number of basis functions: 377
    Number of Cartesian functions: 510
    Spherical Harmonics?: true
    Max angular momentum: 6

  Cached 100.0% of DFT collocation blocks in 0.284 [GiB].

  Minimum eigenvalue in the overlap matrix is 2.0118118913E-04.
  Reciprocal condition number of the overlap matrix is 2.8635659721E-05.
    Using symmetric orthogonalization.

  ==> Pre-Iterations <==

  SCF Guess: Superposition of Atomic Densities via on-the-fly atomic UHF (no occupation information).

   -------------------------
    Irrep   Nso     Nmo    
   -------------------------
     A1        57      57 
     A2        17      17 
     B1        37      37 
     B2        30      30 
   -------------------------
    Total     141     141
   -------------------------

  ==> Iterations <==

                           Total Energy        Delta E     RMS |[F,P]|

   @DF-RKS iter SAD: -1715.38335115437894   -1.71538e+03   0.00000e+00 
    Occupation by irrep:
             A1    A2    B1    B2 
    DOCC [    10,    0,    5,    4 ]

   @DF-RKS iter   1: -1714.21780905020705    1.16554e+00   5.97852e-02 DIIS
    Occupation by irrep:
             A1    A2    B1    B2 
    DOCC [    11,    1,    4,    3 ]

   @DF-RKS iter   2: -1674.24163807770128    3.99762e+01   1.25158e-01 DIIS
    Occupation by irrep:
             A1    A2    B1    B2 
    DOCC [    10,    1,    4,    4 ]

   @DF-RKS iter   3: -1713.94247132186274   -3.97008e+01   3.91917e-02 DIIS
   @DF-RKS iter   4: -1716.35243625888097   -2.40996e+00   2.64188e-02 DIIS
   @DF-RKS iter   5: -1716.68657122395189   -3.34135e-01   2.35836e-02 DIIS
   @DF-RKS iter   6: -1717.55878074401244   -8.72210e-01   8.27380e-03 DIIS
   @DF-RKS iter   7: -1717.62558362285108   -6.68029e-02   1.46162e-03 DIIS
   @DF-RKS iter   8: -1717.63008782805628   -4.50421e-03   3.19873e-04 DIIS
   @DF-RKS iter   9: -1717.63022818686409   -1.40359e-04   4.57137e-05 DIIS
   @DF-RKS iter  10: -1717.63023130974307   -3.12288e-06   4.61531e-06 DIIS
   @DF-RKS iter  11: -1717.63023134171067   -3.19676e-08   1.00558e-06 DIIS
   @DF-RKS iter  12: -1717.63023134278092   -1.07025e-09   1.88316e-07 DIIS
  Energy and wave function converged.


  ==> Post-Iterations <==

   Electrons on quadrature grid:
      Ntotal   =   37.9999960398 ; deviation = -3.960e-06 

    Orbital Energies [Eh]
    ---------------------

    Doubly Occupied:                                                      

       1A1  -321.128105     2A1   -38.595367     1B1   -33.994878  
       1B2   -33.993515     3A1   -33.992987     4A1   -19.036010  
       5A1    -4.372167     6A1    -2.910208     2B1    -2.909884  
       2B2    -2.907341     7A1    -1.212900     3B1    -0.785078  
       8A1    -0.661756     3B2    -0.553817     4B1    -0.455774  
       9A1    -0.455143     1A2    -0.454958     4B2    -0.444172  
      10A1    -0.440919  

    Virtual:                                                              

      11A1    -0.331122    12A1    -0.200088     5B1    -0.197966  
       5B2    -0.185642     6B1    -0.119630    13A1    -0.084512  
       6B2    -0.059847    14A1    -0.057520    15A1    -0.054966  
       7B1    -0.025996     2A2    -0.022503     7B2    -0.018004  
      16A1    -0.005072     8B1     0.013803    17A1     0.025325  
      18A1     0.066081     8B2     0.066668     3A2     0.073655  
       9B1     0.076774    19A1     0.097918     9B2     0.135528  
      20A1     0.162951    10B1     0.172281    21A1     0.182501  
      11B1     0.183503    12B1     0.243608     4A2     0.284286  
      22A1     0.291568    10B2     0.317367    23A1     0.339800  
      13B1     0.440599    11B2     0.442760    24A1     0.455349  
      25A1     0.482586    12B2     0.488290    14B1     0.539312  
      26A1     0.636235     5A2     0.647547    13B2     0.713295  
      15B1     0.740126    27A1     0.749701    16B1     0.777159  
      28A1     0.778351     6A2     0.790492    14B2     0.842280  
      29A1     0.873568    17B1     0.967034    30A1     1.107552  
      18B1     1.175731    31A1     1.191205    15B2     1.504180  
       7A2     1.575673    32A1     1.648952    19B1     1.797150  
      33A1     1.935037    34A1     2.340742    20B1     2.388677  
      35A1     2.463316    16B2     2.478371    17B2     2.683328  
      21B1     2.732619    36A1     2.865252    37A1     2.924427  
      18B2     2.941895     8A2     2.958179    22B1     3.020562  
      23B1     3.060723    38A1     3.064251    24B1     3.109637  
      19B2     3.110712     9A2     3.120718    25B1     3.155910  
      39A1     3.157148    20B2     3.190218    40A1     3.234106  
      10A2     3.330491    41A1     3.348470    21B2     3.397560  
      26B1     3.403288    27B1     3.479583    22B2     3.514153  
      42A1     3.538282    11A2     3.541655    43A1     3.638770  
      12A2     3.822033    44A1     3.838164    23B2     3.862852  
      45A1     3.924943    28B1     3.962676    29B1     4.343471  
      46A1     4.645445    30B1     4.695816    47A1     4.816245  
      24B2     5.093345    48A1     5.496717    13A2     6.059225  
      25B2     6.077823    26B2     6.242161    14A2     6.278595  
      49A1     6.405452    31B1     6.519395    50A1     6.775031  
      32B1     6.787038    33B1     7.039513    51A1     7.508692  
      15A2    12.509392    52A1    12.509704    27B2    12.510398  
      34B1    12.510463    28B2    12.512166    53A1    12.512180  
      16A2    12.512230    35B1    12.512737    54A1    12.519140  
      29B2    12.647080    36B1    12.647312    17A2    12.658083  
      55A1    12.664545    30B2    12.686120    37B1    12.718467  
      56A1    12.870286    57A1    43.595943  

    Final Occupation by Irrep:
             A1    A2    B1    B2 
    DOCC [    10,    1,    4,    4 ]

  @DF-RKS Final Energy: -1717.63023134278092

   => Energetics <=

    Nuclear Repulsion Energy =             88.7265230024053579
    One-Electron Energy =               -2563.1408432201819778
    Two-Electron Energy =                 834.3238526187982416
    DFT Exchange-Correlation Energy =     -77.5397637438027374
    Empirical Dispersion Energy =           0.0000000000000000
    VV10 Nonlocal Energy =                  0.0000000000000000
    Total Energy =                      -1717.6302313427809167

Computation Completed


Properties will be evaluated at   0.000000,   0.000000,   0.000000 [a0]

Properties computed using the SCF density matrix

  Nuclear Dipole Moment: [e a0]
     X:     0.0000      Y:     0.0000      Z:     5.5043

  Electronic Dipole Moment: [e a0]
     X:     0.0000      Y:     0.0000      Z:    -4.8626

  Dipole Moment: [e a0]
     X:     0.0000      Y:     0.0000      Z:     0.6417     Total:     0.6417

  Dipole Moment: [D]
     X:     0.0000      Y:     0.0000      Z:     1.6310     Total:     1.6310


*** tstop() called on compute431.bc4.acrc.priv at Sun Nov  7 05:06:24 2021
Module time:
	user time   =      41.31 seconds =       0.69 minutes
	system time =       2.19 seconds =       0.04 minutes
	total time  =          2 seconds =       0.03 minutes
Total time:
	user time   =      41.31 seconds =       0.69 minutes
	system time =       2.19 seconds =       0.04 minutes
	total time  =          2 seconds =       0.03 minutes

    Psi4 stopped on: Sunday, 07 November 2021 05:06AM
    Psi4 wall time for execution: 0:00:02.00

*** Psi4 exiting successfully. Buy a developer a beer!
