
    -----------------------------------------------------------------------
          Psi4: An Open-Source Ab Initio Electronic Structure Package
                               Psi4 1.4.1 release

                         Git: Rev {HEAD} cd00f19 


    D. G. A. Smith, L. A. Burns, A. C. Simmonett, R. M. Parrish,
    M. C. Schieber, R. Galvelis, P. Kraus, H. Kruse, R. Di Remigio,
    A. Alenaizan, A. M. James, S. Lehtola, J. P. Misiewicz, M. Scheurer,
    R. A. Shaw, J. B. Schriber, Y. Xie, Z. L. Glick, D. A. Sirianni,
    J. S. O'Brien, J. M. Waldrop, A. Kumar, E. G. Hohenstein,
    B. P. Pritchard, B. R. Brooks, H. F. Schaefer III, A. Yu. Sokolov,
    K. Patkowski, A. E. DePrince III, U. Bozkaya, R. A. King,
    F. A. Evangelista, J. M. Turney, T. D. Crawford, C. D. Sherrill,
    J. Chem. Phys. 152(18) 184108 (2020). https://doi.org/10.1063/5.0006002

                            Additional Code Authors
    E. T. Seidl, C. L. Janssen, E. F. Valeev, M. L. Leininger,
    J. F. Gonthier, R. M. Richard, H. R. McAlexander, M. Saitow, X. Wang,
    P. Verma, and M. H. Lechner

             Previous Authors, Complete List of Code Contributors,
                       and Citations for Specific Modules
    https://github.com/psi4/psi4/blob/master/codemeta.json
    https://github.com/psi4/psi4/graphs/contributors
    http://psicode.org/psi4manual/master/introduction.html#citing-psifour

    -----------------------------------------------------------------------


    Psi4 started on: Sunday, 07 November 2021 05:06AM

    Process ID: 11737
    Host:       compute311.bc4.acrc.priv
    PSIDATADIR: /mnt/storage/home/zw18965/.conda/envs/p4env/share/psi4
    Memory:     500.0 MiB
    Threads:    28
    
  ==> Input File <==

--------------------------------------------------------------------------
memory 120 GB

molecule {
0 4
Fe         0.00000        0.00000        0.00000
H          0.00000        0.00000        1.61000
 }

set reference uks
set dynamic_level 1
set basis Def2-TZVPPD

energy("GAM")
--------------------------------------------------------------------------

  Memory set to 111.759 GiB by Python driver.

Scratch directory: /tmp/

*** tstart() called on compute311.bc4.acrc.priv
*** at Sun Nov  7 05:06:26 2021

   => Loading Basis Set <=

    Name: DEF2-TZVPPD
    Role: ORBITAL
    Keyword: BASIS
    atoms 1 entry FE         line  1107 file /mnt/storage/home/zw18965/.conda/envs/p4env/share/psi4/basis/def2-tzvppd.gbs 
    atoms 2 entry H          line    14 file /mnt/storage/home/zw18965/.conda/envs/p4env/share/psi4/basis/def2-tzvppd.gbs 


         ---------------------------------------------------------
                                   SCF
               by Justin Turney, Rob Parrish, Andy Simmonett
                          and Daniel G. A. Smith
                              UKS Reference
                       28 Threads, 114440 MiB Core
         ---------------------------------------------------------

  ==> Geometry <==

    Molecular point group: c2v
    Full point group: C_inf_v

    Geometry (in Angstrom), charge = 0, multiplicity = 4:

       Center              X                  Y                   Z               Mass       
    ------------   -----------------  -----------------  -----------------  -----------------
         FE           0.000000000000     0.000000000000    -0.028495251426    55.934936330000
         H            0.000000000000     0.000000000000     1.581504748574     1.007825032230

  Running in c2v symmetry.

  Rotational constants: A = ************  B =      6.56924  C =      6.56924 [cm^-1]
  Rotational constants: A = ************  B = 196940.79283  C = 196940.79283 [MHz]
  Nuclear repulsion =    8.545718930074534

  Charge       = 0
  Multiplicity = 4
  Electrons    = 27
  Nalpha       = 15
  Nbeta        = 12

  ==> Algorithm <==

  SCF Algorithm Type is DF.
  DIIS enabled.
  MOM disabled.
  Fractional occupation disabled.
  Guess Type is SAD.
  Energy threshold   = 1.00e-06
  Density threshold  = 1.00e-06
  Integral threshold = 1.00e-12

  ==> Primary Basis <==

  Basis Set: DEF2-TZVPPD
    Blend: DEF2-TZVPPD
    Number of shells: 26
    Number of basis functions: 84
    Number of Cartesian functions: 101
    Spherical Harmonics?: true
    Max angular momentum: 4

  ==> DFT Potential <==

   => Composite Functional: GAM <= 

   GAM GGA Minessota Exchange-Correlation Functional

    H.S. Yu, et al., Phys. Chem. Chem. Phys. 17, 12146, 2015


    Deriv               =              1
    GGA                 =           TRUE
    Meta                =          FALSE

    Exchange Hybrid     =          FALSE
    MP2 Hybrid          =          FALSE

   => Exchange Functionals <=

    1.0000     XC_GGA_X_GAM

   => Correlation Functionals <=

    1.0000     XC_GGA_C_GAM

   => LibXC Density Thresholds  <==

    XC_GGA_C_GAM:  1.00E-14 
    XC_GGA_X_GAM:  1.00E-14 

   => Molecular Quadrature <=

    Radial Scheme          =       TREUTLER
    Pruning Scheme         =           NONE
    Nuclear Scheme         =       TREUTLER

    BS radius alpha        =              1
    Pruning alpha          =              1
    Radial Points          =             75
    Spherical Points       =            302
    Total Points           =          43824
    Total Blocks           =            402
    Max Points             =            253
    Max Functions          =             84
    Weights Tolerance      =       1.00E-15

   => Loading Basis Set <=

    Name: (DEF2-TZVPPD AUX)
    Role: JKFIT
    Keyword: DF_BASIS_SCF
    atoms 1 entry FE         line  1978 file /mnt/storage/home/zw18965/.conda/envs/p4env/share/psi4/basis/def2-universal-jkfit.gbs 
    atoms 2 entry H          line    18 file /mnt/storage/home/zw18965/.conda/envs/p4env/share/psi4/basis/def2-universal-jkfit.gbs 

  ==> Integral Setup <==

  DFHelper Memory: AOs need 0.019 GiB; user supplied 83.726 GiB. Using in-core AOs.

  ==> MemDFJK: Density-Fitted J/K Matrices <==

    J tasked:                   Yes
    K tasked:                    No
    wK tasked:                   No
    OpenMP threads:              28
    Memory [MiB]:             85735
    Algorithm:                 Core
    Schwarz Cutoff:           1E-12
    Mask sparsity (%):       0.0000
    Fitting Condition:        1E-10

   => Auxiliary Basis Set <=

  Basis Set: (DEF2-TZVPPD AUX)
    Blend: DEF2-UNIVERSAL-JKFIT
    Number of shells: 64
    Number of basis functions: 282
    Number of Cartesian functions: 397
    Spherical Harmonics?: true
    Max angular momentum: 6

  Cached 100.0% of DFT collocation blocks in 0.093 [GiB].

  Minimum eigenvalue in the overlap matrix is 3.0979901687E-03.
  Reciprocal condition number of the overlap matrix is 7.1898446623E-04.
    Using symmetric orthogonalization.

  ==> Pre-Iterations <==

  SCF Guess: Superposition of Atomic Densities via on-the-fly atomic UHF (no occupation information).

   -------------------------
    Irrep   Nso     Nmo    
   -------------------------
     A1        35      35 
     A2         9       9 
     B1        20      20 
     B2        20      20 
   -------------------------
    Total      84      84
   -------------------------

  ==> Iterations <==

                           Total Energy        Delta E     RMS |[F,P]|

   @DF-UKS iter SAD: -1263.62651214457992   -1.26363e+03   0.00000e+00 
    Occupation by irrep:
             A1    A2    B1    B2 
    DOCC [     7,    0,    3,    2 ]
    SOCC [     2,    0,    0,    1 ]

   @DF-UKS iter   1: -1261.73960402126340    1.88691e+00   7.67581e-02 DIIS
    Occupation by irrep:
             A1    A2    B1    B2 
    DOCC [     7,    1,    2,    2 ]
    SOCC [     1,    0,    1,    1 ]

   @DF-UKS iter   2: -1243.54659182289788    1.81930e+01   1.51784e-01 DIIS
    Occupation by irrep:
             A1    A2    B1    B2 
    DOCC [     8,    0,    2,    2 ]
    SOCC [     0,    0,    1,    2 ]

   @DF-UKS iter   3: -1264.38321046691772   -2.08366e+01   1.75285e-02 DIIS
    Occupation by irrep:
             A1    A2    B1    B2 
    DOCC [     7,    0,    3,    2 ]
    SOCC [     1,    1,    0,    1 ]

   @DF-UKS iter   4: -1260.53092713774117    3.85228e+00   6.74920e-02 DIIS
    Occupation by irrep:
             A1    A2    B1    B2 
    DOCC [     8,    0,    2,    2 ]
    SOCC [     0,    1,    1,    1 ]

   @DF-UKS iter   5: -1264.56542782666656   -4.03450e+00   1.70781e-02 DIIS
    Occupation by irrep:
             A1    A2    B1    B2 
    DOCC [     7,    0,    3,    2 ]
    SOCC [     1,    1,    0,    1 ]

   @DF-UKS iter   6: -1264.53769797286554    2.77299e-02   1.74983e-02 DIIS
   @DF-UKS iter   7: -1264.67217631374933   -1.34478e-01   1.08734e-02 DIIS
   @DF-UKS iter   8: -1264.73044900807417   -5.82727e-02   3.11486e-03 DIIS
   @DF-UKS iter   9: -1264.74193162853908   -1.14826e-02   2.46477e-03 DIIS
   @DF-UKS iter  10: -1264.74642391846510   -4.49229e-03   3.92214e-04 DIIS
   @DF-UKS iter  11: -1264.74598090127006    4.43017e-04   1.00483e-03 DIIS
   @DF-UKS iter  12: -1264.74664611024218   -6.65209e-04   1.68655e-04 DIIS
   @DF-UKS iter  13: -1264.74663644043812    9.66980e-06   2.35719e-04 DIIS
   @DF-UKS iter  14: -1264.74667513709778   -3.86967e-05   1.91300e-05 DIIS
   @DF-UKS iter  15: -1264.74667551513335   -3.78036e-07   4.97343e-06 DIIS
   @DF-UKS iter  16: -1264.74667554252255   -2.73892e-08   2.65443e-06 DIIS
   @DF-UKS iter  17: -1264.74667554928601   -6.76346e-09   6.78675e-07 DIIS
  Energy and wave function converged.


  ==> Post-Iterations <==

   Electrons on quadrature grid:
      Nalpha   =   14.9999998458 ; deviation = -1.542e-07
      Nbeta    =   11.9999997147 ; deviation = -2.853e-07
      Ntotal   =   26.9999995605 ; deviation = -4.395e-07 

   @Spin Contamination Metric:   1.650458333E-01
   @S^2 Expected:                3.750000000E+00
   @S^2 Observed:                3.915045833E+00
   @S   Expected:                1.500000000E+00
   @S   Observed:                1.500000000E+00

    Orbital Energies [Eh]
    ---------------------

    Alpha Occupied:                                                       

       1A1  -254.212175     2A1   -29.650582     1B2   -25.685945  
       1B1   -25.676837     3A1   -25.664055     4A1    -3.361476  
       2B2    -2.194126     2B1    -2.177733     5A1    -2.152675  
       6A1    -0.286745     1A2    -0.269447     7A1    -0.260341  
       3B2    -0.259625     3B1    -0.225125     8A1    -0.207347  

    Alpha Virtual:                                                        

       9A1    -0.121291     4B2    -0.050382     4B1    -0.050243  
      10A1     0.032532    11A1     0.054782     5B1     0.095675  
       5B2     0.099945    12A1     0.110912     6B2     0.133908  
       6B1     0.135506     2A2     0.146865    13A1     0.148100  
      14A1     0.250934     7B2     0.254323     7B1     0.255792  
      15A1     0.302545    16A1     0.445685     8B1     0.500894  
       8B2     0.503917    17A1     0.528388     9B2     0.744853  
       9B1     0.750515     3A2     0.816543    18A1     0.819597  
      19A1     0.936270    10B2     1.014526    10B1     1.015363  
      20A1     1.176703    21A1     2.161578    11B2     2.224491  
      11B1     2.237251     4A2     2.243577    12B2     2.247913  
      22A1     2.248265    12B1     2.250431    13B1     2.289900  
      13B2     2.295874    23A1     2.403451    24A1     2.670780  
      25A1     2.751877     5A2     3.190518    26A1     3.191165  
      27A1     3.251450     6A2     3.321657    28A1     3.329206  
      14B2     3.347282    14B1     3.370327    15B2     3.504880  
      15B1     3.509522    16B2     3.859332    16B1     3.860577  
      29A1     3.935058    30A1     4.662718     7A2     8.294578  
      31A1     8.294830    17B2     8.313809    17B1     8.314372  
       8A2     8.325150    32A1     8.329673    18B2     8.344135  
      18B1     8.365929    33A1     8.399028    19B2     8.905040  
      19B1     8.906133     9A2     8.931008    34A1     8.938716  
      20B2     9.020861    20B1     9.055042    35A1     9.338356  

    Beta Occupied:                                                        

       1A1  -254.210894     2A1   -29.583060     1B2   -25.631281  
       1B1   -25.625513     3A1   -25.619592     4A1    -3.204522  
       2B2    -2.023172     2B1    -2.020187     5A1    -2.015058  
       6A1    -0.260797     7A1    -0.137955     3B1    -0.129840  

    Beta Virtual:                                                         

       8A1    -0.117973     1A2    -0.109569     3B2    -0.103251  
       9A1    -0.083956     4B2    -0.032175     4B1    -0.031388  
      10A1     0.058722    11A1     0.074898     5B2     0.107066  
       5B1     0.108511    12A1     0.118954     6B1     0.148410  
       6B2     0.151345    13A1     0.164839     2A2     0.167412  
      14A1     0.262973     7B1     0.265160     7B2     0.265763  
      15A1     0.317120    16A1     0.448863     8B1     0.529508  
       8B2     0.530759    17A1     0.564526     9B1     0.766514  
       9B2     0.773558    18A1     0.872726     3A2     0.890350  
      19A1     0.975949    10B1     1.040891    10B2     1.047399  
      20A1     1.189148    21A1     2.205706    11B1     2.285410  
      11B2     2.316044    22A1     2.339917     4A2     2.346333  
      12B1     2.355695    12B2     2.369809    13B2     2.404117  
      13B1     2.418376    23A1     2.441743    24A1     2.711093  
      25A1     2.850335    26A1     3.177904     5A2     3.178677  
      27A1     3.354646    14B1     3.446136    28A1     3.458319  
       6A2     3.465811    14B2     3.469770    15B1     3.515686  
      15B2     3.532040    16B1     3.837012    16B2     3.838740  
      29A1     3.926096    30A1     4.686115     7A2     8.434190  
      31A1     8.437119    17B2     8.445272    17B1     8.448512  
      18B1     8.466947    32A1     8.473435     8A2     8.476887  
      18B2     8.494422    33A1     8.526251    19B1     9.083396  
      19B2     9.086286    34A1     9.096024     9A2     9.096943  
      20B1     9.188969    20B2     9.196974    35A1     9.485321  

    Final Occupation by Irrep:
             A1    A2    B1    B2 
    DOCC [     7,    0,    3,    2 ]
    SOCC [     1,    1,    0,    1 ]

  @DF-UKS Final Energy: -1264.74667554928601

   => Energetics <=

    Nuclear Repulsion Energy =              8.5457189300745338
    One-Electron Energy =               -1766.6923611349402563
    Two-Electron Energy =                 550.0731172484809122
    DFT Exchange-Correlation Energy =     -56.6731505929011732
    Empirical Dispersion Energy =           0.0000000000000000
    VV10 Nonlocal Energy =                  0.0000000000000000
    Total Energy =                      -1264.7466755492860102

  UHF NO Occupations:
  HONO-2 :    8 A1 1.0000000
  HONO-1 :    3 B2 1.0000000
  HONO-0 :    1 A2 1.0000000
  LUNO+0 :    9 A1 0.0796142
  LUNO+1 :    4 B1 0.0039780
  LUNO+2 :   10 A1 0.0019055
  LUNO+3 :    4 B2 0.0000744


Computation Completed


Properties will be evaluated at   0.000000,   0.000000,   0.000000 [a0]

Properties computed using the SCF density matrix

  Nuclear Dipole Moment: [e a0]
     X:     0.0000      Y:     0.0000      Z:     1.5886

  Electronic Dipole Moment: [e a0]
     X:     0.0000      Y:     0.0000      Z:    -2.3963

  Dipole Moment: [e a0]
     X:     0.0000      Y:     0.0000      Z:    -0.8077     Total:     0.8077

  Dipole Moment: [D]
     X:     0.0000      Y:     0.0000      Z:    -2.0531     Total:     2.0531


*** tstop() called on compute311.bc4.acrc.priv at Sun Nov  7 05:06:32 2021
Module time:
	user time   =     147.00 seconds =       2.45 minutes
	system time =       6.61 seconds =       0.11 minutes
	total time  =          6 seconds =       0.10 minutes
Total time:
	user time   =     147.00 seconds =       2.45 minutes
	system time =       6.61 seconds =       0.11 minutes
	total time  =          6 seconds =       0.10 minutes

    Psi4 stopped on: Sunday, 07 November 2021 05:06AM
    Psi4 wall time for execution: 0:00:05.87

*** Psi4 exiting successfully. Buy a developer a beer!
