
    -----------------------------------------------------------------------
          Psi4: An Open-Source Ab Initio Electronic Structure Package
                               Psi4 1.4.1 release

                         Git: Rev {HEAD} cd00f19 


    D. G. A. Smith, L. A. Burns, A. C. Simmonett, R. M. Parrish,
    M. C. Schieber, R. Galvelis, P. Kraus, H. Kruse, R. Di Remigio,
    A. Alenaizan, A. M. James, S. Lehtola, J. P. Misiewicz, M. Scheurer,
    R. A. Shaw, J. B. Schriber, Y. Xie, Z. L. Glick, D. A. Sirianni,
    J. S. O'Brien, J. M. Waldrop, A. Kumar, E. G. Hohenstein,
    B. P. Pritchard, B. R. Brooks, H. F. Schaefer III, A. Yu. Sokolov,
    K. Patkowski, A. E. DePrince III, U. Bozkaya, R. A. King,
    F. A. Evangelista, J. M. Turney, T. D. Crawford, C. D. Sherrill,
    J. Chem. Phys. 152(18) 184108 (2020). https://doi.org/10.1063/5.0006002

                            Additional Code Authors
    E. T. Seidl, C. L. Janssen, E. F. Valeev, M. L. Leininger,
    J. F. Gonthier, R. M. Richard, H. R. McAlexander, M. Saitow, X. Wang,
    P. Verma, and M. H. Lechner

             Previous Authors, Complete List of Code Contributors,
                       and Citations for Specific Modules
    https://github.com/psi4/psi4/blob/master/codemeta.json
    https://github.com/psi4/psi4/graphs/contributors
    http://psicode.org/psi4manual/master/introduction.html#citing-psifour

    -----------------------------------------------------------------------


    Psi4 started on: Sunday, 07 November 2021 05:07AM

    Process ID: 23687
    Host:       compute500.bc4.acrc.priv
    PSIDATADIR: /mnt/storage/home/zw18965/.conda/envs/p4env/share/psi4
    Memory:     500.0 MiB
    Threads:    28
    
  ==> Input File <==

--------------------------------------------------------------------------
memory 120 GB

molecule {
0 1
O          0.00000        0.00000        0.00000
H          0.00000        0.00000        0.95691
H          0.92636        0.00000       -0.23987
 }

set dynamic_level 1
set basis Def2-TZVPPD

energy("GAM")
--------------------------------------------------------------------------

  Memory set to 111.759 GiB by Python driver.

Scratch directory: /tmp/

*** tstart() called on compute500.bc4.acrc.priv
*** at Sun Nov  7 05:07:21 2021

   => Loading Basis Set <=

    Name: DEF2-TZVPPD
    Role: ORBITAL
    Keyword: BASIS
    atoms 1   entry O          line   218 file /mnt/storage/home/zw18965/.conda/envs/p4env/share/psi4/basis/def2-tzvppd.gbs 
    atoms 2-3 entry H          line    14 file /mnt/storage/home/zw18965/.conda/envs/p4env/share/psi4/basis/def2-tzvppd.gbs 


         ---------------------------------------------------------
                                   SCF
               by Justin Turney, Rob Parrish, Andy Simmonett
                          and Daniel G. A. Smith
                              RKS Reference
                       28 Threads, 114440 MiB Core
         ---------------------------------------------------------

  ==> Geometry <==

    Molecular point group: cs
    Full point group: Cs

    Geometry (in Angstrom), charge = 0, multiplicity = 1:

       Center              X                  Y                   Z               Mass       
    ------------   -----------------  -----------------  -----------------  -----------------
         O            0.051836731010    -0.040123720371     0.000000000000    15.994914619570
         H            0.051836731010     0.916786279629     0.000000000000     1.007825032230
         H           -0.874523268990    -0.279993720371     0.000000000000     1.007825032230

  Running in cs symmetry.

  Rotational constants: A =     27.44992  B =     14.60580  C =      9.53326 [cm^-1]
  Rotational constants: A = 822927.94090  B = 437870.75215  C = 285799.84928 [MHz]
  Nuclear repulsion =    9.197748699306425

  Charge       = 0
  Multiplicity = 1
  Electrons    = 10
  Nalpha       = 5
  Nbeta        = 5

  ==> Algorithm <==

  SCF Algorithm Type is DF.
  DIIS enabled.
  MOM disabled.
  Fractional occupation disabled.
  Guess Type is SAD.
  Energy threshold   = 1.00e-06
  Density threshold  = 1.00e-06
  Integral threshold = 1.00e-12

  ==> Primary Basis <==

  Basis Set: DEF2-TZVPPD
    Blend: DEF2-TZVPPD
    Number of shells: 28
    Number of basis functions: 74
    Number of Cartesian functions: 82
    Spherical Harmonics?: true
    Max angular momentum: 3

  ==> DFT Potential <==

   => Composite Functional: GAM <= 

   GAM GGA Minessota Exchange-Correlation Functional

    H.S. Yu, et al., Phys. Chem. Chem. Phys. 17, 12146, 2015


    Deriv               =              1
    GGA                 =           TRUE
    Meta                =          FALSE

    Exchange Hybrid     =          FALSE
    MP2 Hybrid          =          FALSE

   => Exchange Functionals <=

    1.0000     XC_GGA_X_GAM

   => Correlation Functionals <=

    1.0000     XC_GGA_C_GAM

   => LibXC Density Thresholds  <==

    XC_GGA_C_GAM:  1.00E-14 
    XC_GGA_X_GAM:  1.00E-14 

   => Molecular Quadrature <=

    Radial Scheme          =       TREUTLER
    Pruning Scheme         =           NONE
    Nuclear Scheme         =       TREUTLER

    BS radius alpha        =              1
    Pruning alpha          =              1
    Radial Points          =             75
    Spherical Points       =            302
    Total Points           =          66708
    Total Blocks           =            563
    Max Points             =            255
    Max Functions          =             74
    Weights Tolerance      =       1.00E-15

   => Loading Basis Set <=

    Name: (DEF2-TZVPPD AUX)
    Role: JKFIT
    Keyword: DF_BASIS_SCF
    atoms 1   entry O          line   318 file /mnt/storage/home/zw18965/.conda/envs/p4env/share/psi4/basis/def2-universal-jkfit.gbs 
    atoms 2-3 entry H          line    18 file /mnt/storage/home/zw18965/.conda/envs/p4env/share/psi4/basis/def2-universal-jkfit.gbs 

  ==> Integral Setup <==

  DFHelper Memory: AOs need 0.007 GiB; user supplied 83.680 GiB. Using in-core AOs.

  ==> MemDFJK: Density-Fitted J/K Matrices <==

    J tasked:                   Yes
    K tasked:                    No
    wK tasked:                   No
    OpenMP threads:              28
    Memory [MiB]:             85688
    Algorithm:                 Core
    Schwarz Cutoff:           1E-12
    Mask sparsity (%):       0.0000
    Fitting Condition:        1E-10

   => Auxiliary Basis Set <=

  Basis Set: (DEF2-TZVPPD AUX)
    Blend: DEF2-UNIVERSAL-JKFIT
    Number of shells: 37
    Number of basis functions: 113
    Number of Cartesian functions: 133
    Spherical Harmonics?: true
    Max angular momentum: 4

  Cached 100.0% of DFT collocation blocks in 0.139 [GiB].

  Minimum eigenvalue in the overlap matrix is 6.6004688097E-04.
  Reciprocal condition number of the overlap matrix is 1.0131033719E-04.
    Using symmetric orthogonalization.

  ==> Pre-Iterations <==

  SCF Guess: Superposition of Atomic Densities via on-the-fly atomic UHF (no occupation information).

   -------------------------
    Irrep   Nso     Nmo    
   -------------------------
     A'        51      51 
     A"        23      23 
   -------------------------
    Total      74      74
   -------------------------

  ==> Iterations <==

                           Total Energy        Delta E     RMS |[F,P]|

   @DF-RKS iter SAD:   -76.09221511736364   -7.60922e+01   0.00000e+00 
   @DF-RKS iter   1:   -76.19714130119252   -1.04926e-01   1.47735e-02 DIIS
   @DF-RKS iter   2:   -75.14117092147832    1.05597e+00   3.05808e-02 DIIS
   @DF-RKS iter   3:   -76.42669624065559   -1.28553e+00   2.05687e-03 DIIS
   @DF-RKS iter   4:   -76.43346231166929   -6.76607e-03   3.03014e-04 DIIS
   @DF-RKS iter   5:   -76.43355907163131   -9.67600e-05   7.98158e-05 DIIS
   @DF-RKS iter   6:   -76.43356540494013   -6.33331e-06   9.85700e-06 DIIS
   @DF-RKS iter   7:   -76.43356549691148   -9.19714e-08   1.10074e-06 DIIS
   @DF-RKS iter   8:   -76.43356549840568   -1.49420e-09   6.97017e-08 DIIS
  Energy and wave function converged.


  ==> Post-Iterations <==

   Electrons on quadrature grid:
      Ntotal   =   10.0000000475 ; deviation = 4.751e-08 

    Orbital Energies [Eh]
    ---------------------

    Doubly Occupied:                                                      

       1Ap   -18.754354     2Ap    -0.938752     3Ap    -0.485984  
       4Ap    -0.342214     1App   -0.263073  

    Virtual:                                                              

       5Ap    -0.011936     6Ap     0.051847     2App    0.083276  
       7Ap     0.086784     8Ap     0.137191     9Ap     0.163843  
      10Ap     0.195482     3App    0.195635     4App    0.220475  
      11Ap     0.257996    12Ap     0.269855    13Ap     0.320264  
      14Ap     0.394110    15Ap     0.404432     5App    0.433896  
      16Ap     0.481732     6App    0.498722    17Ap     0.610489  
      18Ap     0.652506     7App    0.664080    19Ap     0.666142  
      20Ap     0.837649    21Ap     0.929540     8App    0.932065  
       9App    0.994984    22Ap     1.056191    23Ap     1.132797  
      24Ap     1.235863    25Ap     1.293522    10App    1.767419  
      11App    1.828309    26Ap     1.898866    27Ap     1.996402  
      28Ap     2.117556    29Ap     2.371977    30Ap     2.588065  
      12App    2.688478    31Ap     2.940209    13App    3.036486  
      32Ap     3.135714    33Ap     3.243898    34Ap     3.315217  
      14App    3.320829    35Ap     3.322470    36Ap     3.526950  
      15App    3.709516    16App    3.746933    37Ap     3.855331  
      17App    3.955966    18App    4.032273    38Ap     4.076213  
      39Ap     4.151380    40Ap     4.564039    41Ap     4.630498  
      42Ap     4.822449    43Ap     5.050683    19App    5.492113  
      44Ap     6.065741    20App    6.297900    21App    6.335232  
      22App    6.422226    45Ap     6.473868    46Ap     6.475852  
      23App    6.670992    47Ap     6.800528    48Ap     7.296119  
      49Ap     7.428128    50Ap     7.620248    51Ap    43.714408  

    Final Occupation by Irrep:
             Ap   App 
    DOCC [     4,    1 ]

  @DF-RKS Final Energy:   -76.43356549840568

   => Energetics <=

    Nuclear Repulsion Energy =              9.1977486993064250
    One-Electron Energy =                -123.1554559958726713
    Two-Electron Energy =                  46.8389215787144408
    DFT Exchange-Correlation Energy =      -9.3147797805538861
    Empirical Dispersion Energy =           0.0000000000000000
    VV10 Nonlocal Energy =                  0.0000000000000000
    Total Energy =                        -76.4335654984056987

Computation Completed


Properties will be evaluated at   0.000000,   0.000000,   0.000000 [a0]

Properties computed using the SCF density matrix

  Nuclear Dipole Moment: [e a0]
     X:    -0.7710      Y:     0.5968      Z:     0.0000

  Electronic Dipole Moment: [e a0]
     X:     0.2167      Y:    -0.1677      Z:     0.0000

  Dipole Moment: [e a0]
     X:    -0.5543      Y:     0.4290      Z:     0.0000     Total:     0.7009

  Dipole Moment: [D]
     X:    -1.4088      Y:     1.0905      Z:     0.0000     Total:     1.7816


*** tstop() called on compute500.bc4.acrc.priv at Sun Nov  7 05:07:22 2021
Module time:
	user time   =      17.82 seconds =       0.30 minutes
	system time =       0.97 seconds =       0.02 minutes
	total time  =          1 seconds =       0.02 minutes
Total time:
	user time   =      17.82 seconds =       0.30 minutes
	system time =       0.97 seconds =       0.02 minutes
	total time  =          1 seconds =       0.02 minutes

    Psi4 stopped on: Sunday, 07 November 2021 05:07AM
    Psi4 wall time for execution: 0:00:00.90

*** Psi4 exiting successfully. Buy a developer a beer!
