
    -----------------------------------------------------------------------
          Psi4: An Open-Source Ab Initio Electronic Structure Package
                               Psi4 1.4.1 release

                         Git: Rev {HEAD} cd00f19 


    D. G. A. Smith, L. A. Burns, A. C. Simmonett, R. M. Parrish,
    M. C. Schieber, R. Galvelis, P. Kraus, H. Kruse, R. Di Remigio,
    A. Alenaizan, A. M. James, S. Lehtola, J. P. Misiewicz, M. Scheurer,
    R. A. Shaw, J. B. Schriber, Y. Xie, Z. L. Glick, D. A. Sirianni,
    J. S. O'Brien, J. M. Waldrop, A. Kumar, E. G. Hohenstein,
    B. P. Pritchard, B. R. Brooks, H. F. Schaefer III, A. Yu. Sokolov,
    K. Patkowski, A. E. DePrince III, U. Bozkaya, R. A. King,
    F. A. Evangelista, J. M. Turney, T. D. Crawford, C. D. Sherrill,
    J. Chem. Phys. 152(18) 184108 (2020). https://doi.org/10.1063/5.0006002

                            Additional Code Authors
    E. T. Seidl, C. L. Janssen, E. F. Valeev, M. L. Leininger,
    J. F. Gonthier, R. M. Richard, H. R. McAlexander, M. Saitow, X. Wang,
    P. Verma, and M. H. Lechner

             Previous Authors, Complete List of Code Contributors,
                       and Citations for Specific Modules
    https://github.com/psi4/psi4/blob/master/codemeta.json
    https://github.com/psi4/psi4/graphs/contributors
    http://psicode.org/psi4manual/master/introduction.html#citing-psifour

    -----------------------------------------------------------------------


    Psi4 started on: Sunday, 07 November 2021 05:06AM

    Process ID: 27130
    Host:       compute303.bc4.acrc.priv
    PSIDATADIR: /mnt/storage/home/zw18965/.conda/envs/p4env/share/psi4
    Memory:     500.0 MiB
    Threads:    28
    
  ==> Input File <==

--------------------------------------------------------------------------
memory 120 GB

molecule {
0 1
Li         0.00000        0.00000        0.00000
Cl         0.00000        0.00000        2.02067
 }

set dynamic_level 1
set basis Def2-TZVPPD

energy("GAM")
--------------------------------------------------------------------------

  Memory set to 111.759 GiB by Python driver.

Scratch directory: /tmp/

*** tstart() called on compute303.bc4.acrc.priv
*** at Sun Nov  7 05:06:23 2021

   => Loading Basis Set <=

    Name: DEF2-TZVPPD
    Role: ORBITAL
    Keyword: BASIS
    atoms 1 entry LI         line    50 file /mnt/storage/home/zw18965/.conda/envs/p4env/share/psi4/basis/def2-tzvppd.gbs 
    atoms 2 entry CL         line   607 file /mnt/storage/home/zw18965/.conda/envs/p4env/share/psi4/basis/def2-tzvppd.gbs 


         ---------------------------------------------------------
                                   SCF
               by Justin Turney, Rob Parrish, Andy Simmonett
                          and Daniel G. A. Smith
                              RKS Reference
                       28 Threads, 114440 MiB Core
         ---------------------------------------------------------

  ==> Geometry <==

    Molecular point group: c2v
    Full point group: C_inf_v

    Geometry (in Angstrom), charge = 0, multiplicity = 1:

       Center              X                  Y                   Z               Mass       
    ------------   -----------------  -----------------  -----------------  -----------------
         LI           0.000000000000     0.000000000000    -1.682999969068     7.016003436600
         CL           0.000000000000     0.000000000000     0.337670030932    34.968852682000

  Running in c2v symmetry.

  Rotational constants: A = ************  B =      0.70652  C =      0.70652 [cm^-1]
  Rotational constants: A = ************  B =  21181.07044  C =  21181.07044 [MHz]
  Nuclear repulsion =   13.355984769492297

  Charge       = 0
  Multiplicity = 1
  Electrons    = 20
  Nalpha       = 10
  Nbeta        = 10

  ==> Algorithm <==

  SCF Algorithm Type is DF.
  DIIS enabled.
  MOM disabled.
  Fractional occupation disabled.
  Guess Type is SAD.
  Energy threshold   = 1.00e-06
  Density threshold  = 1.00e-06
  Integral threshold = 1.00e-12

  ==> Primary Basis <==

  Basis Set: DEF2-TZVPPD
    Blend: DEF2-TZVPPD
    Number of shells: 27
    Number of basis functions: 73
    Number of Cartesian functions: 81
    Spherical Harmonics?: true
    Max angular momentum: 3

  ==> DFT Potential <==

   => Composite Functional: GAM <= 

   GAM GGA Minessota Exchange-Correlation Functional

    H.S. Yu, et al., Phys. Chem. Chem. Phys. 17, 12146, 2015


    Deriv               =              1
    GGA                 =           TRUE
    Meta                =          FALSE

    Exchange Hybrid     =          FALSE
    MP2 Hybrid          =          FALSE

   => Exchange Functionals <=

    1.0000     XC_GGA_X_GAM

   => Correlation Functionals <=

    1.0000     XC_GGA_C_GAM

   => LibXC Density Thresholds  <==

    XC_GGA_C_GAM:  1.00E-14 
    XC_GGA_X_GAM:  1.00E-14 

   => Molecular Quadrature <=

    Radial Scheme          =       TREUTLER
    Pruning Scheme         =           NONE
    Nuclear Scheme         =       TREUTLER

    BS radius alpha        =              1
    Pruning alpha          =              1
    Radial Points          =             75
    Spherical Points       =            302
    Total Points           =          44401
    Total Blocks           =            440
    Max Points             =            256
    Max Functions          =             72
    Weights Tolerance      =       1.00E-15

   => Loading Basis Set <=

    Name: (DEF2-TZVPPD AUX)
    Role: JKFIT
    Keyword: DF_BASIS_SCF
    atoms 1 entry LI         line    54 file /mnt/storage/home/zw18965/.conda/envs/p4env/share/psi4/basis/def2-universal-jkfit.gbs 
    atoms 2 entry CL         line   986 file /mnt/storage/home/zw18965/.conda/envs/p4env/share/psi4/basis/def2-universal-jkfit.gbs 

  ==> Integral Setup <==

  DFHelper Memory: AOs need 0.009 GiB; user supplied 83.745 GiB. Using in-core AOs.

  ==> MemDFJK: Density-Fitted J/K Matrices <==

    J tasked:                   Yes
    K tasked:                    No
    wK tasked:                   No
    OpenMP threads:              28
    Memory [MiB]:             85755
    Algorithm:                 Core
    Schwarz Cutoff:           1E-12
    Mask sparsity (%):       1.0133
    Fitting Condition:        1E-10

   => Auxiliary Basis Set <=

  Basis Set: (DEF2-TZVPPD AUX)
    Blend: DEF2-UNIVERSAL-JKFIT
    Number of shells: 55
    Number of basis functions: 179
    Number of Cartesian functions: 215
    Spherical Harmonics?: true
    Max angular momentum: 4

  Cached 100.0% of DFT collocation blocks in 0.074 [GiB].

  Minimum eigenvalue in the overlap matrix is 3.9842851479E-03.
  Reciprocal condition number of the overlap matrix is 9.3918265097E-04.
    Using symmetric orthogonalization.

  ==> Pre-Iterations <==

  SCF Guess: Superposition of Atomic Densities via on-the-fly atomic UHF (no occupation information).

   -------------------------
    Irrep   Nso     Nmo    
   -------------------------
     A1        33      33 
     A2         6       6 
     B1        17      17 
     B2        17      17 
   -------------------------
    Total      73      73
   -------------------------

  ==> Iterations <==

                           Total Energy        Delta E     RMS |[F,P]|

   @DF-RKS iter SAD:  -467.51098569084184   -4.67511e+02   0.00000e+00 
   @DF-RKS iter   1:  -467.70594272806750   -1.94957e-01   1.38540e-02 DIIS
   @DF-RKS iter   2:  -467.43766366602540    2.68279e-01   2.03818e-02 DIIS
   @DF-RKS iter   3:  -467.82024459792069   -3.82581e-01   3.19529e-03 DIIS
   @DF-RKS iter   4:  -467.83136329642423   -1.11187e-02   1.30652e-03 DIIS
   @DF-RKS iter   5:  -467.83259404809019   -1.23075e-03   2.74245e-04 DIIS
   @DF-RKS iter   6:  -467.83265650981934   -6.24617e-05   3.86419e-05 DIIS
   @DF-RKS iter   7:  -467.83265791619164   -1.40637e-06   1.55179e-06 DIIS
   @DF-RKS iter   8:  -467.83265791967278   -3.48115e-09   5.57893e-07 DIIS
  Energy and wave function converged.


  ==> Post-Iterations <==

   Electrons on quadrature grid:
      Ntotal   =   20.0000005329 ; deviation = 5.329e-07 

    Orbital Energies [Eh]
    ---------------------

    Doubly Occupied:                                                      

       1A1  -100.303311     2A1    -9.163992     3A1    -7.005022  
       1B1    -7.004628     1B2    -7.004628     4A1    -1.925158  
       5A1    -0.642514     6A1    -0.235061     2B1    -0.212908  
       2B2    -0.212908  

    Virtual:                                                              

       7A1    -0.055232     3B1     0.001953     3B2     0.001953  
       8A1     0.023858     9A1     0.058125     4B1     0.066734  
       4B2     0.066734    10A1     0.095727     5B1     0.097620  
       5B2     0.097620    11A1     0.156450     1A2     0.184682  
      12A1     0.184684    13A1     0.208601     6B1     0.238017  
       6B2     0.238017    14A1     0.250704     2A2     0.329596  
      15A1     0.329597    16A1     0.392808     7B1     0.406444  
       7B2     0.406444     8B1     0.490586     8B2     0.490586  
      17A1     0.522767     9B1     0.594030     9B2     0.594030  
       3A2     0.605292    18A1     0.605305    10B1     0.640500  
      10B2     0.640500    19A1     0.665549    20A1     0.843733  
      21A1     1.075249    22A1     1.394027    23A1     1.910469  
       4A2     1.910532    11B1     1.937146    11B2     1.937146  
      24A1     1.996425    12B1     2.078346    12B2     2.078346  
       5A2     2.079818    25A1     2.079858    13B1     2.107516  
      13B2     2.107516    26A1     2.337274    14B1     2.358465  
      14B2     2.358465    27A1     2.470556    15B2     5.673296  
      15B1     5.673296    28A1     5.955624     6A2     7.997651  
      29A1     7.997805    16B1     8.015869    16B2     8.015869  
      30A1     8.078935    17B1    10.630338    17B2    10.630338  
      31A1    10.725750    32A1    14.038102    33A1    24.616459  

    Final Occupation by Irrep:
             A1    A2    B1    B2 
    DOCC [     6,    0,    2,    2 ]

  @DF-RKS Final Energy:  -467.83265791967278

   => Energetics <=

    Nuclear Repulsion Energy =             13.3559847694922968
    One-Electron Energy =                -674.5045262485532476
    Two-Electron Energy =                 223.6424101253111587
    DFT Exchange-Correlation Energy =     -30.3265265659230394
    Empirical Dispersion Energy =           0.0000000000000000
    VV10 Nonlocal Energy =                  0.0000000000000000
    Total Energy =                       -467.8326579196727835

Computation Completed


Properties will be evaluated at   0.000000,   0.000000,   0.000000 [a0]

Properties computed using the SCF density matrix

  Nuclear Dipole Moment: [e a0]
     X:     0.0000      Y:     0.0000      Z:     1.3065

  Electronic Dipole Moment: [e a0]
     X:     0.0000      Y:     0.0000      Z:    -4.0517

  Dipole Moment: [e a0]
     X:     0.0000      Y:     0.0000      Z:    -2.7451     Total:     2.7451

  Dipole Moment: [D]
     X:     0.0000      Y:     0.0000      Z:    -6.9774     Total:     6.9774


*** tstop() called on compute303.bc4.acrc.priv at Sun Nov  7 05:06:24 2021
Module time:
	user time   =      17.13 seconds =       0.29 minutes
	system time =       0.91 seconds =       0.02 minutes
	total time  =          1 seconds =       0.02 minutes
Total time:
	user time   =      17.13 seconds =       0.29 minutes
	system time =       0.91 seconds =       0.02 minutes
	total time  =          1 seconds =       0.02 minutes

    Psi4 stopped on: Sunday, 07 November 2021 05:06AM
    Psi4 wall time for execution: 0:00:00.81

*** Psi4 exiting successfully. Buy a developer a beer!
