
    -----------------------------------------------------------------------
          Psi4: An Open-Source Ab Initio Electronic Structure Package
                               Psi4 1.4.1 release

                         Git: Rev {HEAD} cd00f19 


    D. G. A. Smith, L. A. Burns, A. C. Simmonett, R. M. Parrish,
    M. C. Schieber, R. Galvelis, P. Kraus, H. Kruse, R. Di Remigio,
    A. Alenaizan, A. M. James, S. Lehtola, J. P. Misiewicz, M. Scheurer,
    R. A. Shaw, J. B. Schriber, Y. Xie, Z. L. Glick, D. A. Sirianni,
    J. S. O'Brien, J. M. Waldrop, A. Kumar, E. G. Hohenstein,
    B. P. Pritchard, B. R. Brooks, H. F. Schaefer III, A. Yu. Sokolov,
    K. Patkowski, A. E. DePrince III, U. Bozkaya, R. A. King,
    F. A. Evangelista, J. M. Turney, T. D. Crawford, C. D. Sherrill,
    J. Chem. Phys. 152(18) 184108 (2020). https://doi.org/10.1063/5.0006002

                            Additional Code Authors
    E. T. Seidl, C. L. Janssen, E. F. Valeev, M. L. Leininger,
    J. F. Gonthier, R. M. Richard, H. R. McAlexander, M. Saitow, X. Wang,
    P. Verma, and M. H. Lechner

             Previous Authors, Complete List of Code Contributors,
                       and Citations for Specific Modules
    https://github.com/psi4/psi4/blob/master/codemeta.json
    https://github.com/psi4/psi4/graphs/contributors
    http://psicode.org/psi4manual/master/introduction.html#citing-psifour

    -----------------------------------------------------------------------


    Psi4 started on: Sunday, 07 November 2021 05:07AM

    Process ID: 15867
    Host:       compute387.bc4.acrc.priv
    PSIDATADIR: /mnt/storage/home/zw18965/.conda/envs/p4env/share/psi4
    Memory:     500.0 MiB
    Threads:    28
    
  ==> Input File <==

--------------------------------------------------------------------------
memory 120 GB

molecule {
0 3
O          0.00000        0.00000        0.00000
 }

set reference uks
set dynamic_level 1
set basis Def2-TZVPPD

energy("GAM")
--------------------------------------------------------------------------

  Memory set to 111.759 GiB by Python driver.

Scratch directory: /tmp/

*** tstart() called on compute387.bc4.acrc.priv
*** at Sun Nov  7 05:07:20 2021

   => Loading Basis Set <=

    Name: DEF2-TZVPPD
    Role: ORBITAL
    Keyword: BASIS
    atoms 1 entry O          line   218 file /mnt/storage/home/zw18965/.conda/envs/p4env/share/psi4/basis/def2-tzvppd.gbs 


         ---------------------------------------------------------
                                   SCF
               by Justin Turney, Rob Parrish, Andy Simmonett
                          and Daniel G. A. Smith
                              UKS Reference
                       28 Threads, 114440 MiB Core
         ---------------------------------------------------------

  ==> Geometry <==

    Molecular point group: d2h
    Geometry (in Angstrom), charge = 0, multiplicity = 3:

       Center              X                  Y                   Z               Mass       
    ------------   -----------------  -----------------  -----------------  -----------------
         O            0.000000000000     0.000000000000     0.000000000000    15.994914619570

  Running in d2h symmetry.

  Rotational constants: A = ************  B = ************  C = ************ [cm^-1]
  Rotational constants: A = ************  B = ************  C = ************ [MHz]
  Nuclear repulsion =    0.000000000000000

  Charge       = 0
  Multiplicity = 3
  Electrons    = 8
  Nalpha       = 5
  Nbeta        = 3

  ==> Algorithm <==

  SCF Algorithm Type is DF.
  DIIS enabled.
  MOM disabled.
  Fractional occupation disabled.
  Guess Type is CORE.
  Energy threshold   = 1.00e-06
  Density threshold  = 1.00e-06
  Integral threshold = 1.00e-12

  ==> Primary Basis <==

  Basis Set: DEF2-TZVPPD
    Blend: DEF2-TZVPPD
    Number of shells: 14
    Number of basis functions: 40
    Number of Cartesian functions: 46
    Spherical Harmonics?: true
    Max angular momentum: 3

  ==> DFT Potential <==

   => Composite Functional: GAM <= 

   GAM GGA Minessota Exchange-Correlation Functional

    H.S. Yu, et al., Phys. Chem. Chem. Phys. 17, 12146, 2015


    Deriv               =              1
    GGA                 =           TRUE
    Meta                =          FALSE

    Exchange Hybrid     =          FALSE
    MP2 Hybrid          =          FALSE

   => Exchange Functionals <=

    1.0000     XC_GGA_X_GAM

   => Correlation Functionals <=

    1.0000     XC_GGA_C_GAM

   => LibXC Density Thresholds  <==

    XC_GGA_C_GAM:  1.00E-14 
    XC_GGA_X_GAM:  1.00E-14 

   => Molecular Quadrature <=

    Radial Scheme          =       TREUTLER
    Pruning Scheme         =           NONE
    Nuclear Scheme         =       TREUTLER

    BS radius alpha        =              1
    Pruning alpha          =              1
    Radial Points          =             75
    Spherical Points       =            302
    Total Points           =          22348
    Total Blocks           =            224
    Max Points             =            252
    Max Functions          =             40
    Weights Tolerance      =       1.00E-15

   => Loading Basis Set <=

    Name: (DEF2-TZVPPD AUX)
    Role: JKFIT
    Keyword: DF_BASIS_SCF
    atoms 1 entry O          line   318 file /mnt/storage/home/zw18965/.conda/envs/p4env/share/psi4/basis/def2-universal-jkfit.gbs 

  ==> Integral Setup <==

  DFHelper Memory: AOs need 0.002 GiB; user supplied 83.794 GiB. Using in-core AOs.

  ==> MemDFJK: Density-Fitted J/K Matrices <==

    J tasked:                   Yes
    K tasked:                    No
    wK tasked:                   No
    OpenMP threads:              28
    Memory [MiB]:             85805
    Algorithm:                 Core
    Schwarz Cutoff:           1E-12
    Mask sparsity (%):       0.0000
    Fitting Condition:        1E-10

   => Auxiliary Basis Set <=

  Basis Set: (DEF2-TZVPPD AUX)
    Blend: DEF2-UNIVERSAL-JKFIT
    Number of shells: 25
    Number of basis functions: 77
    Number of Cartesian functions: 93
    Spherical Harmonics?: true
    Max angular momentum: 4

  Cached 100.0% of DFT collocation blocks in 0.025 [GiB].

  Minimum eigenvalue in the overlap matrix is 1.4986248253E-02.
  Reciprocal condition number of the overlap matrix is 4.6483012928E-03.
    Using symmetric orthogonalization.

  ==> Pre-Iterations <==

  SCF Guess: Core (One-Electron) Hamiltonian.

   -------------------------------------------------------
    Irrep   Nso     Nmo     Nalpha   Nbeta   Ndocc  Nsocc
   -------------------------------------------------------
     Ag        12      12       2       2       2       0
     B1g        3       3       0       0       0       0
     B2g        3       3       0       0       0       0
     B3g        3       3       0       0       0       0
     Au         1       1       0       0       0       0
     B1u        6       6       1       0       0       1
     B2u        6       6       1       0       0       1
     B3u        6       6       1       1       1       0
   -------------------------------------------------------
    Total      40      40       5       3       3       2
   -------------------------------------------------------

  ==> Iterations <==

                           Total Energy        Delta E     RMS |[F,P]|

   @DF-UKS iter   1:   -69.48810562597225   -6.94881e+01   3.07431e-01 DIIS
   @DF-UKS iter   2:   -67.93790658965841    1.55020e+00   1.46961e-01 DIIS
   @DF-UKS iter   3:   -74.13341967073370   -6.19551e+00   9.88102e-02 DIIS
   @DF-UKS iter   4:   -75.00986501042476   -8.76445e-01   2.09150e-02 DIIS
   @DF-UKS iter   5:   -75.06975119970645   -5.98862e-02   1.25976e-03 DIIS
   @DF-UKS iter   6:   -75.07007300628430   -3.21807e-04   8.04357e-05 DIIS
   @DF-UKS iter   7:   -75.07007408902976   -1.08275e-06   9.33416e-06 DIIS
   @DF-UKS iter   8:   -75.07007410209522   -1.30655e-08   4.65688e-07 DIIS
  Energy and wave function converged.


  ==> Post-Iterations <==

   Electrons on quadrature grid:
      Nalpha   =    5.0000000000 ; deviation = 4.330e-11
      Nbeta    =    3.0000000000 ; deviation = 4.328e-11
      Ntotal   =    8.0000000001 ; deviation = 8.658e-11 

   @Spin Contamination Metric:   8.754578203E-03
   @S^2 Expected:                2.000000000E+00
   @S^2 Observed:                2.008754578E+00
   @S   Expected:                1.000000000E+00
   @S   Observed:                1.000000000E+00

    Orbital Energies [Eh]
    ---------------------

    Alpha Occupied:                                                       

       1Ag   -18.886127     2Ag    -0.940184     1B1u   -0.406975  
       1B2u   -0.406975     1B3u   -0.333534  

    Alpha Virtual:                                                        

       3Ag     0.063623     2B2u    0.088466     2B1u    0.088466  
       2B3u    0.100125     4Ag     0.361378     1B1g    0.361464  
       1B2g    0.361464     1B3g    0.375501     5Ag     0.375501  
       3B2u    0.523637     3B1u    0.523637     3B3u    0.538362  
       6Ag     0.587904     2B3g    1.531603     7Ag     1.531603  
       2B2g    1.571017     2B1g    1.571017     8Ag     1.584429  
       4B1u    2.455084     4B2u    2.455084     4B3u    2.506858  
       9Ag     2.743568     5B2u    4.845901     5B1u    4.845901  
       1Au     4.889670     5B3u    4.889670     6B1u    4.916382  
       6B2u    4.916382     6B3u    4.925509    10Ag     5.976550  
       3B3g    5.976550     3B1g    6.038187     3B2g    6.038187  
      11Ag     6.059343    12Ag    42.812170  

    Beta Occupied:                                                        

       1Ag   -18.844888     2Ag    -0.768784     1B3u   -0.262697  

    Beta Virtual:                                                         

       1B1u   -0.214079     1B2u   -0.214079     3Ag     0.058211  
       2B3u    0.087687     2B2u    0.119124     2B1u    0.119124  
       4Ag     0.316892     1B3g    0.316893     5Ag     0.336077  
       1B1g    0.347742     1B2g    0.347742     3B1u    0.525451  
       3B2u    0.525451     3B3u    0.539278     6Ag     0.623536  
       2B2g    1.641803     2B1g    1.641803     7Ag     1.656190  
       2B3g    1.679551     8Ag     1.679551     4B3u    2.559184  
       4B1u    2.619697     4B2u    2.619697     9Ag     2.862320  
       5B3u    5.016392     1Au     5.020628     6B3u    5.020629  
       5B1u    5.023150     5B2u    5.023150     6B2u    5.063326  
       6B1u    5.063326     3B1g    6.209049     3B2g    6.209049  
      10Ag     6.232595    11Ag     6.295644     3B3g    6.295648  
      12Ag    42.886816  

    Final Occupation by Irrep:
             Ag   B1g   B2g   B3g    Au   B1u   B2u   B3u 
    DOCC [     2,    0,    0,    0,    0,    0,    0,    1 ]
    SOCC [     0,    0,    0,    0,    0,    1,    1,    0 ]

  @DF-UKS Final Energy:   -75.07007410209522

   => Energetics <=

    Nuclear Repulsion Energy =              0.0000000000000000
    One-Electron Energy =                -103.3235115719054136
    Two-Electron Energy =                  36.7180589102586694
    DFT Exchange-Correlation Energy =      -8.4646214404484752
    Empirical Dispersion Energy =           0.0000000000000000
    VV10 Nonlocal Energy =                  0.0000000000000000
    Total Energy =                        -75.0700741020952194

  UHF NO Occupations:
  HONO-2 :    2 Ag 1.9976374
  HONO-1 :    1B1u 1.0000000
  HONO-0 :    1B2u 1.0000000
  LUNO+0 :    3 Ag 0.0023626
  LUNO+1 :    2B3u 0.0020173
  LUNO+2 :    4 Ag 0.0000022
  LUNO+3 :    2B2u 0.0000000


Computation Completed


Properties will be evaluated at   0.000000,   0.000000,   0.000000 [a0]

Properties computed using the SCF density matrix

  Nuclear Dipole Moment: [e a0]
     X:     0.0000      Y:     0.0000      Z:     0.0000

  Electronic Dipole Moment: [e a0]
     X:     0.0000      Y:     0.0000      Z:     0.0000

  Dipole Moment: [e a0]
     X:     0.0000      Y:     0.0000      Z:     0.0000     Total:     0.0000

  Dipole Moment: [D]
     X:     0.0000      Y:     0.0000      Z:     0.0000     Total:     0.0000


*** tstop() called on compute387.bc4.acrc.priv at Sun Nov  7 05:07:21 2021
Module time:
	user time   =      23.67 seconds =       0.39 minutes
	system time =       1.03 seconds =       0.02 minutes
	total time  =          1 seconds =       0.02 minutes
Total time:
	user time   =      23.67 seconds =       0.39 minutes
	system time =       1.03 seconds =       0.02 minutes
	total time  =          1 seconds =       0.02 minutes

    Psi4 stopped on: Sunday, 07 November 2021 05:07AM
    Psi4 wall time for execution: 0:00:00.98

*** Psi4 exiting successfully. Buy a developer a beer!
