
    -----------------------------------------------------------------------
          Psi4: An Open-Source Ab Initio Electronic Structure Package
                               Psi4 1.4.1 release

                         Git: Rev {HEAD} cd00f19 


    D. G. A. Smith, L. A. Burns, A. C. Simmonett, R. M. Parrish,
    M. C. Schieber, R. Galvelis, P. Kraus, H. Kruse, R. Di Remigio,
    A. Alenaizan, A. M. James, S. Lehtola, J. P. Misiewicz, M. Scheurer,
    R. A. Shaw, J. B. Schriber, Y. Xie, Z. L. Glick, D. A. Sirianni,
    J. S. O'Brien, J. M. Waldrop, A. Kumar, E. G. Hohenstein,
    B. P. Pritchard, B. R. Brooks, H. F. Schaefer III, A. Yu. Sokolov,
    K. Patkowski, A. E. DePrince III, U. Bozkaya, R. A. King,
    F. A. Evangelista, J. M. Turney, T. D. Crawford, C. D. Sherrill,
    J. Chem. Phys. 152(18) 184108 (2020). https://doi.org/10.1063/5.0006002

                            Additional Code Authors
    E. T. Seidl, C. L. Janssen, E. F. Valeev, M. L. Leininger,
    J. F. Gonthier, R. M. Richard, H. R. McAlexander, M. Saitow, X. Wang,
    P. Verma, and M. H. Lechner

             Previous Authors, Complete List of Code Contributors,
                       and Citations for Specific Modules
    https://github.com/psi4/psi4/blob/master/codemeta.json
    https://github.com/psi4/psi4/graphs/contributors
    http://psicode.org/psi4manual/master/introduction.html#citing-psifour

    -----------------------------------------------------------------------


    Psi4 started on: Sunday, 07 November 2021 05:06AM

    Process ID: 14738
    Host:       compute416.bc4.acrc.priv
    PSIDATADIR: /mnt/storage/home/zw18965/.conda/envs/p4env/share/psi4
    Memory:     500.0 MiB
    Threads:    28
    
  ==> Input File <==

--------------------------------------------------------------------------
memory 120 GB

molecule {
1 5
V          0.00000        0.00000        0.00000
 }

set reference uks
set dynamic_level 1
set basis Def2-TZVPPD

energy("GAM")
--------------------------------------------------------------------------

  Memory set to 111.759 GiB by Python driver.

Scratch directory: /tmp/

*** tstart() called on compute416.bc4.acrc.priv
*** at Sun Nov  7 05:06:22 2021

   => Loading Basis Set <=

    Name: DEF2-TZVPPD
    Role: ORBITAL
    Keyword: BASIS
    atoms 1 entry V          line   924 file /mnt/storage/home/zw18965/.conda/envs/p4env/share/psi4/basis/def2-tzvppd.gbs 


         ---------------------------------------------------------
                                   SCF
               by Justin Turney, Rob Parrish, Andy Simmonett
                          and Daniel G. A. Smith
                              UKS Reference
                       28 Threads, 114440 MiB Core
         ---------------------------------------------------------

  ==> Geometry <==

    Molecular point group: d2h
    Geometry (in Angstrom), charge = 1, multiplicity = 5:

       Center              X                  Y                   Z               Mass       
    ------------   -----------------  -----------------  -----------------  -----------------
         V            0.000000000000     0.000000000000     0.000000000000    50.943957040000

  Running in d2h symmetry.

  Rotational constants: A = ************  B = ************  C = ************ [cm^-1]
  Rotational constants: A = ************  B = ************  C = ************ [MHz]
  Nuclear repulsion =    0.000000000000000

  Charge       = 1
  Multiplicity = 5
  Electrons    = 22
  Nalpha       = 13
  Nbeta        = 9

  ==> Algorithm <==

  SCF Algorithm Type is DF.
  DIIS enabled.
  MOM disabled.
  Fractional occupation disabled.
  Guess Type is CORE.
  Energy threshold   = 1.00e-06
  Density threshold  = 1.00e-06
  Integral threshold = 1.00e-12

  ==> Primary Basis <==

  Basis Set: DEF2-TZVPPD
    Blend: DEF2-TZVPPD
    Number of shells: 19
    Number of basis functions: 67
    Number of Cartesian functions: 83
    Spherical Harmonics?: true
    Max angular momentum: 4

  ==> DFT Potential <==

   => Composite Functional: GAM <= 

   GAM GGA Minessota Exchange-Correlation Functional

    H.S. Yu, et al., Phys. Chem. Chem. Phys. 17, 12146, 2015


    Deriv               =              1
    GGA                 =           TRUE
    Meta                =          FALSE

    Exchange Hybrid     =          FALSE
    MP2 Hybrid          =          FALSE

   => Exchange Functionals <=

    1.0000     XC_GGA_X_GAM

   => Correlation Functionals <=

    1.0000     XC_GGA_C_GAM

   => LibXC Density Thresholds  <==

    XC_GGA_C_GAM:  1.00E-14 
    XC_GGA_X_GAM:  1.00E-14 

   => Molecular Quadrature <=

    Radial Scheme          =       TREUTLER
    Pruning Scheme         =           NONE
    Nuclear Scheme         =       TREUTLER

    BS radius alpha        =              1
    Pruning alpha          =              1
    Radial Points          =             75
    Spherical Points       =            302
    Total Points           =          22040
    Total Blocks           =            248
    Max Points             =            245
    Max Functions          =             67
    Weights Tolerance      =       1.00E-15

   => Loading Basis Set <=

    Name: (DEF2-TZVPPD AUX)
    Role: JKFIT
    Keyword: DF_BASIS_SCF
    atoms 1 entry V          line  1600 file /mnt/storage/home/zw18965/.conda/envs/p4env/share/psi4/basis/def2-universal-jkfit.gbs 

  ==> Integral Setup <==

  DFHelper Memory: AOs need 0.012 GiB; user supplied 83.782 GiB. Using in-core AOs.

  ==> MemDFJK: Density-Fitted J/K Matrices <==

    J tasked:                   Yes
    K tasked:                    No
    wK tasked:                   No
    OpenMP threads:              28
    Memory [MiB]:             85792
    Algorithm:                 Core
    Schwarz Cutoff:           1E-12
    Mask sparsity (%):       0.0000
    Fitting Condition:        1E-10

   => Auxiliary Basis Set <=

  Basis Set: (DEF2-TZVPPD AUX)
    Blend: DEF2-UNIVERSAL-JKFIT
    Number of shells: 58
    Number of basis functions: 264
    Number of Cartesian functions: 377
    Spherical Harmonics?: true
    Max angular momentum: 6

  Cached 100.0% of DFT collocation blocks in 0.037 [GiB].

  Minimum eigenvalue in the overlap matrix is 3.6743538076E-02.
  Reciprocal condition number of the overlap matrix is 1.2975168697E-02.
    Using symmetric orthogonalization.

  ==> Pre-Iterations <==

  SCF Guess: Core (One-Electron) Hamiltonian.

   -------------------------------------------------------
    Irrep   Nso     Nmo     Nalpha   Nbeta   Ndocc  Nsocc
   -------------------------------------------------------
     Ag        17      17       5       3       3       2
     B1g        6       6       1       0       0       1
     B2g        6       6       0       0       0       0
     B3g        6       6       1       0       0       1
     Au         2       2       0       0       0       0
     B1u       10      10       2       2       2       0
     B2u       10      10       2       2       2       0
     B3u       10      10       2       2       2       0
   -------------------------------------------------------
    Total      67      67      13       9       9       4
   -------------------------------------------------------

  ==> Iterations <==

                           Total Energy        Delta E     RMS |[F,P]|

    Occupation by irrep:
             Ag   B1g   B2g   B3g    Au   B1u   B2u   B3u 
    DOCC [     3,    0,    0,    0,    0,    2,    2,    2 ]
    SOCC [     1,    0,    0,    0,    0,    1,    1,    1 ]

   @DF-UKS iter   1:  -930.28836422979566   -9.30288e+02   1.92597e-01 DIIS
    Occupation by irrep:
             Ag   B1g   B2g   B3g    Au   B1u   B2u   B3u 
    DOCC [     3,    0,    0,    0,    0,    2,    2,    2 ]
    SOCC [     1,    1,    1,    1,    0,    0,    0,    0 ]

   @DF-UKS iter   2:  -927.57648457211917    2.71188e+00   2.55500e-01 DIIS
    Occupation by irrep:
             Ag   B1g   B2g   B3g    Au   B1u   B2u   B3u 
    DOCC [     3,    0,    0,    0,    0,    2,    2,    2 ]
    SOCC [     2,    1,    0,    1,    0,    0,    0,    0 ]

   @DF-UKS iter   3:  -943.79607608110121   -1.62196e+01   1.59879e-02 DIIS
    Occupation by irrep:
             Ag   B1g   B2g   B3g    Au   B1u   B2u   B3u 
    DOCC [     3,    0,    0,    0,    0,    2,    2,    2 ]
    SOCC [     1,    1,    1,    1,    0,    0,    0,    0 ]

   @DF-UKS iter   4:  -943.55671573612631    2.39360e-01   3.24472e-02 DIIS
   @DF-UKS iter   5:  -943.85355399544983   -2.96838e-01   7.15874e-03 DIIS
   @DF-UKS iter   6:  -943.86124163920829   -7.68764e-03   1.56489e-03 DIIS
   @DF-UKS iter   7:  -943.86162347560708   -3.81836e-04   1.18850e-04 DIIS
   @DF-UKS iter   8:  -943.86162608909865   -2.61349e-06   9.39376e-05 DIIS
   @DF-UKS iter   9:  -943.86162807167113   -1.98257e-06   6.74788e-06 DIIS
   @DF-UKS iter  10:  -943.86162808459517   -1.29240e-08   4.51692e-07 DIIS
  Energy and wave function converged.


  ==> Post-Iterations <==

   Electrons on quadrature grid:
      Nalpha   =   12.9999998309 ; deviation = -1.691e-07
      Nbeta    =    8.9999998309 ; deviation = -1.691e-07
      Ntotal   =   21.9999996618 ; deviation = -3.382e-07 

   @Spin Contamination Metric:   1.490632476E-03
   @S^2 Expected:                6.000000000E+00
   @S^2 Observed:                6.001490632E+00
   @S   Expected:                2.000000000E+00
   @S   Observed:                2.000000000E+00

    Orbital Energies [Eh]
    ---------------------

    Alpha Occupied:                                                       

       1Ag  -195.435232     2Ag   -22.065328     1B2u  -18.721682  
       1B3u  -18.706731     1B1u  -18.706731     3Ag    -2.708918  
       2B2u   -1.794560     2B3u   -1.778669     2B1u   -1.778669  
       1B1g   -0.372869     1B3g   -0.372869     4Ag    -0.355575  
       1B2g   -0.355574  

    Alpha Virtual:                                                        

       5Ag    -0.353824     6Ag    -0.335789     3B1u   -0.208897  
       3B3u   -0.208897     3B2u   -0.202875     7Ag    -0.099764  
       4B1u   -0.073432     4B3u   -0.073432     4B2u   -0.066104  
       2B1g   -0.050316     2B3g   -0.050316     8Ag    -0.047101  
       9Ag    -0.044271     2B2g   -0.044271     5B2u    0.188599  
       5B3u    0.188668     5B1u    0.188668     3B1g    0.369674  
       3B3g    0.369674    10Ag     0.375542     3B2g    0.375542  
      11Ag     0.410991     6B2u    0.832900     1Au     0.832905  
       6B3u    0.848425     6B1u    0.848425     7B1u    0.848979  
       7B3u    0.848979     7B2u    0.889343     8B2u    1.437789  
       8B3u    1.438652     8B1u    1.438652    12Ag     1.599759  
       4B1g    2.110856     4B3g    2.110856    13Ag     2.126556  
       4B2g    2.126556    14Ag     2.130368    15Ag     3.789762  
       5B2g    3.789765     5B3g    3.790544     5B1g    3.790544  
       6B1g    3.798046     6B3g    3.798046     6B2g    3.812712  
      16Ag     3.812712    17Ag     3.816739     9B2u    4.215092  
       2Au     4.215092     9B3u    4.219544     9B1u    4.219544  
      10B3u    4.235265    10B1u    4.235265    10B2u    4.235538  

    Beta Occupied:                                                        

       1Ag  -195.434709     2Ag   -22.011651     1B2u  -18.685698  
       1B3u  -18.663836     1B1u  -18.663836     3Ag    -2.558404  
       2B2u   -1.669529     2B3u   -1.618889     2B1u   -1.618889  

    Beta Virtual:                                                         

       4Ag    -0.270078     1B1g   -0.248806     1B3g   -0.248806  
       5Ag    -0.240893     1B2g   -0.232333     6Ag    -0.232333  
       3B3u   -0.079275     3B1u   -0.079275     3B2u   -0.065312  
       4B2u    0.046216     4B3u    0.058945     4B1u    0.058945  
       7Ag     0.287368     8Ag     0.368100     2B1g    0.384456  
       2B3g    0.384456     2B2g    0.386224     9Ag     0.386224  
      10Ag     0.512417     3B1g    0.555944     3B3g    0.555944  
       3B2g    0.566147    11Ag     0.566147     5B2u    0.595877  
       5B3u    0.661889     5B1u    0.661889     1Au     0.781512  
       6B2u    0.781513     6B1u    0.792049     6B3u    0.792049  
       7B3u    0.794644     7B1u    0.794644     7B2u    0.823094  
       8B2u    1.619624     8B3u    1.653598     8B1u    1.653598  
      12Ag     1.776455    13Ag     2.281648     4B1g    2.319416  
       4B3g    2.319416     4B2g    2.334275    14Ag     2.334276  
      15Ag     3.920499     5B1g    3.926536     5B3g    3.926536  
       5B2g    3.944507    16Ag     3.944507     6B3g    3.963672  
       6B1g    3.963672     6B2g    3.967273    17Ag     3.967273  
       9B2u    4.317752     9B3u    4.326677     9B1u    4.326677  
       2Au     4.353700    10B2u    4.353700    10B3u    4.365541  
      10B1u    4.365541  

    Final Occupation by Irrep:
             Ag   B1g   B2g   B3g    Au   B1u   B2u   B3u 
    DOCC [     3,    0,    0,    0,    0,    2,    2,    2 ]
    SOCC [     1,    1,    1,    1,    0,    0,    0,    0 ]

  @DF-UKS Final Energy:  -943.86162808459517

   => Energetics <=

    Nuclear Repulsion Energy =              0.0000000000000000
    One-Electron Energy =               -1293.5954735559366782
    Two-Electron Energy =                 395.3470025960533007
    DFT Exchange-Correlation Energy =     -45.6131571247117336
    Empirical Dispersion Energy =           0.0000000000000000
    VV10 Nonlocal Energy =                  0.0000000000000000
    Total Energy =                       -943.8616280845951678

  UHF NO Occupations:
  HONO-2 :    1B1g 1.0000000
  HONO-1 :    1B3g 1.0000000
  HONO-0 :    1B2g 1.0000000
  LUNO+0 :    3B1u 0.0002244
  LUNO+1 :    3B3u 0.0002244
  LUNO+2 :    3B2u 0.0002057
  LUNO+3 :    5 Ag 0.0000867


Computation Completed


Properties will be evaluated at   0.000000,   0.000000,   0.000000 [a0]

Properties computed using the SCF density matrix

  Nuclear Dipole Moment: [e a0]
     X:     0.0000      Y:     0.0000      Z:     0.0000

  Electronic Dipole Moment: [e a0]
     X:     0.0000      Y:     0.0000      Z:     0.0000

  Dipole Moment: [e a0]
     X:     0.0000      Y:     0.0000      Z:     0.0000     Total:     0.0000

  Dipole Moment: [D]
     X:     0.0000      Y:     0.0000      Z:     0.0000     Total:     0.0000


*** tstop() called on compute416.bc4.acrc.priv at Sun Nov  7 05:06:24 2021
Module time:
	user time   =      48.10 seconds =       0.80 minutes
	system time =       2.14 seconds =       0.04 minutes
	total time  =          2 seconds =       0.03 minutes
Total time:
	user time   =      48.10 seconds =       0.80 minutes
	system time =       2.14 seconds =       0.04 minutes
	total time  =          2 seconds =       0.03 minutes

    Psi4 stopped on: Sunday, 07 November 2021 05:06AM
    Psi4 wall time for execution: 0:00:02.00

*** Psi4 exiting successfully. Buy a developer a beer!
