
    -----------------------------------------------------------------------
          Psi4: An Open-Source Ab Initio Electronic Structure Package
                               Psi4 1.4.1 release

                         Git: Rev {HEAD} cd00f19 


    D. G. A. Smith, L. A. Burns, A. C. Simmonett, R. M. Parrish,
    M. C. Schieber, R. Galvelis, P. Kraus, H. Kruse, R. Di Remigio,
    A. Alenaizan, A. M. James, S. Lehtola, J. P. Misiewicz, M. Scheurer,
    R. A. Shaw, J. B. Schriber, Y. Xie, Z. L. Glick, D. A. Sirianni,
    J. S. O'Brien, J. M. Waldrop, A. Kumar, E. G. Hohenstein,
    B. P. Pritchard, B. R. Brooks, H. F. Schaefer III, A. Yu. Sokolov,
    K. Patkowski, A. E. DePrince III, U. Bozkaya, R. A. King,
    F. A. Evangelista, J. M. Turney, T. D. Crawford, C. D. Sherrill,
    J. Chem. Phys. 152(18) 184108 (2020). https://doi.org/10.1063/5.0006002

                            Additional Code Authors
    E. T. Seidl, C. L. Janssen, E. F. Valeev, M. L. Leininger,
    J. F. Gonthier, R. M. Richard, H. R. McAlexander, M. Saitow, X. Wang,
    P. Verma, and M. H. Lechner

             Previous Authors, Complete List of Code Contributors,
                       and Citations for Specific Modules
    https://github.com/psi4/psi4/blob/master/codemeta.json
    https://github.com/psi4/psi4/graphs/contributors
    http://psicode.org/psi4manual/master/introduction.html#citing-psifour

    -----------------------------------------------------------------------


    Psi4 started on: Sunday, 07 November 2021 05:07AM

    Process ID: 6630
    Host:       compute379.bc4.acrc.priv
    PSIDATADIR: /mnt/storage/home/zw18965/.conda/envs/p4env/share/psi4
    Memory:     500.0 MiB
    Threads:    28
    
  ==> Input File <==

--------------------------------------------------------------------------
memory 120 GB

molecule {
1 5
V          0.00000        0.00000        0.00000
C          0.00000        0.00000        2.11314
O          0.00000        0.00000        3.23351
 }

set reference uks
set dynamic_level 1
set basis Def2-TZVPPD

energy("GAM")
--------------------------------------------------------------------------

  Memory set to 111.759 GiB by Python driver.

Scratch directory: /tmp/

*** tstart() called on compute379.bc4.acrc.priv
*** at Sun Nov  7 05:07:21 2021

   => Loading Basis Set <=

    Name: DEF2-TZVPPD
    Role: ORBITAL
    Keyword: BASIS
    atoms 1 entry V          line   924 file /mnt/storage/home/zw18965/.conda/envs/p4env/share/psi4/basis/def2-tzvppd.gbs 
    atoms 2 entry C          line   144 file /mnt/storage/home/zw18965/.conda/envs/p4env/share/psi4/basis/def2-tzvppd.gbs 
    atoms 3 entry O          line   218 file /mnt/storage/home/zw18965/.conda/envs/p4env/share/psi4/basis/def2-tzvppd.gbs 


         ---------------------------------------------------------
                                   SCF
               by Justin Turney, Rob Parrish, Andy Simmonett
                          and Daniel G. A. Smith
                              UKS Reference
                       28 Threads, 114440 MiB Core
         ---------------------------------------------------------

  ==> Geometry <==

    Molecular point group: c2v
    Full point group: C_inf_v

    Geometry (in Angstrom), charge = 1, multiplicity = 5:

       Center              X                  Y                   Z               Mass       
    ------------   -----------------  -----------------  -----------------  -----------------
         V            0.000000000000     0.000000000000    -0.976418775074    50.943957040000
         C            0.000000000000     0.000000000000     1.136721224926    12.000000000000
         O            0.000000000000     0.000000000000     2.257091224926    15.994914619570

  Running in c2v symmetry.

  Rotational constants: A = ************  B =      0.11581  C =      0.11581 [cm^-1]
  Rotational constants: A = ************  B =   3471.94608  C =   3471.94608 [MHz]
  Nuclear repulsion =   87.342156794418941

  Charge       = 1
  Multiplicity = 5
  Electrons    = 36
  Nalpha       = 20
  Nbeta        = 16

  ==> Algorithm <==

  SCF Algorithm Type is DF.
  DIIS enabled.
  MOM disabled.
  Fractional occupation disabled.
  Guess Type is SAD.
  Energy threshold   = 1.00e-06
  Density threshold  = 1.00e-06
  Integral threshold = 1.00e-12

  ==> Primary Basis <==

  Basis Set: DEF2-TZVPPD
    Blend: DEF2-TZVPPD
    Number of shells: 46
    Number of basis functions: 144
    Number of Cartesian functions: 172
    Spherical Harmonics?: true
    Max angular momentum: 4

  ==> DFT Potential <==

   => Composite Functional: GAM <= 

   GAM GGA Minessota Exchange-Correlation Functional

    H.S. Yu, et al., Phys. Chem. Chem. Phys. 17, 12146, 2015


    Deriv               =              1
    GGA                 =           TRUE
    Meta                =          FALSE

    Exchange Hybrid     =          FALSE
    MP2 Hybrid          =          FALSE

   => Exchange Functionals <=

    1.0000     XC_GGA_X_GAM

   => Correlation Functionals <=

    1.0000     XC_GGA_C_GAM

   => LibXC Density Thresholds  <==

    XC_GGA_C_GAM:  1.00E-14 
    XC_GGA_X_GAM:  1.00E-14 

   => Molecular Quadrature <=

    Radial Scheme          =       TREUTLER
    Pruning Scheme         =           NONE
    Nuclear Scheme         =       TREUTLER

    BS radius alpha        =              1
    Pruning alpha          =              1
    Radial Points          =             75
    Spherical Points       =            302
    Total Points           =          66346
    Total Blocks           =            580
    Max Points             =            255
    Max Functions          =            142
    Weights Tolerance      =       1.00E-15

   => Loading Basis Set <=

    Name: (DEF2-TZVPPD AUX)
    Role: JKFIT
    Keyword: DF_BASIS_SCF
    atoms 1 entry V          line  1600 file /mnt/storage/home/zw18965/.conda/envs/p4env/share/psi4/basis/def2-universal-jkfit.gbs 
    atoms 2 entry C          line   198 file /mnt/storage/home/zw18965/.conda/envs/p4env/share/psi4/basis/def2-universal-jkfit.gbs 
    atoms 3 entry O          line   318 file /mnt/storage/home/zw18965/.conda/envs/p4env/share/psi4/basis/def2-universal-jkfit.gbs 

  ==> Integral Setup <==

  DFHelper Memory: AOs need 0.074 GiB; user supplied 83.595 GiB. Using in-core AOs.

  ==> MemDFJK: Density-Fitted J/K Matrices <==

    J tasked:                   Yes
    K tasked:                    No
    wK tasked:                   No
    OpenMP threads:              28
    Memory [MiB]:             85601
    Algorithm:                 Core
    Schwarz Cutoff:           1E-12
    Mask sparsity (%):       2.3341
    Fitting Condition:        1E-10

   => Auxiliary Basis Set <=

  Basis Set: (DEF2-TZVPPD AUX)
    Blend: DEF2-UNIVERSAL-JKFIT
    Number of shells: 108
    Number of basis functions: 416
    Number of Cartesian functions: 559
    Spherical Harmonics?: true
    Max angular momentum: 6

  Cached 100.0% of DFT collocation blocks in 0.224 [GiB].

  Minimum eigenvalue in the overlap matrix is 1.0074175382E-04.
  Reciprocal condition number of the overlap matrix is 1.4209822468E-05.
    Using symmetric orthogonalization.

  ==> Pre-Iterations <==

  SCF Guess: Superposition of Atomic Densities via on-the-fly atomic UHF (no occupation information).

   -------------------------
    Irrep   Nso     Nmo    
   -------------------------
     A1        62      62 
     A2        16      16 
     B1        33      33 
     B2        33      33 
   -------------------------
    Total     144     144
   -------------------------

  ==> Iterations <==

                           Total Energy        Delta E     RMS |[F,P]|

   @DF-UKS iter SAD: -1056.83718652415268   -1.05684e+03   0.00000e+00 
    Occupation by irrep:
             A1    A2    B1    B2 
    DOCC [    10,    0,    3,    3 ]
    SOCC [     2,    0,    1,    1 ]

   @DF-UKS iter   1: -1056.72433195058557    1.12855e-01   1.66221e-02 DIIS
    Occupation by irrep:
             A1    A2    B1    B2 
    DOCC [    10,    0,    3,    3 ]
    SOCC [     1,    1,    1,    1 ]

   @DF-UKS iter   2: -1052.89168169088043    3.83265e+00   3.28951e-02 DIIS
   @DF-UKS iter   3: -1055.19272903598721   -2.30105e+00   2.91186e-02 DIIS
   @DF-UKS iter   4: -1056.73467694441524   -1.54195e+00   1.33668e-02 DIIS
   @DF-UKS iter   5: -1057.23391968207238   -4.99243e-01   3.53718e-03 DIIS
    Occupation by irrep:
             A1    A2    B1    B2 
    DOCC [    10,    0,    3,    3 ]
    SOCC [     2,    0,    1,    1 ]

   @DF-UKS iter   6: -1057.20930060305545    2.46191e-02   5.31465e-03 DIIS
    Occupation by irrep:
             A1    A2    B1    B2 
    DOCC [    10,    0,    3,    3 ]
    SOCC [     1,    1,    1,    1 ]

   @DF-UKS iter   7: -1057.22679022600596   -1.74896e-02   4.17638e-03 DIIS
   @DF-UKS iter   8: -1057.27258843405980   -4.57982e-02   1.23939e-03 DIIS
   @DF-UKS iter   9: -1057.27770048026719   -5.11205e-03   2.42165e-04 DIIS
   @DF-UKS iter  10: -1057.27787491943650   -1.74439e-04   8.06920e-05 DIIS
   @DF-UKS iter  11: -1057.27790813404090   -3.32146e-05   5.76640e-05 DIIS
   @DF-UKS iter  12: -1057.27792279643177   -1.46624e-05   2.24098e-05 DIIS
   @DF-UKS iter  13: -1057.27792805829290   -5.26186e-06   6.73604e-06 DIIS
   @DF-UKS iter  14: -1057.27792830838712   -2.50094e-07   1.25813e-06 DIIS
   @DF-UKS iter  15: -1057.27792830361705    4.77007e-09   2.25477e-06 DIIS
   @DF-UKS iter  16: -1057.27792831260672   -8.98967e-09   8.08332e-07 DIIS
  Energy and wave function converged.


  ==> Post-Iterations <==

   Electrons on quadrature grid:
      Nalpha   =   19.9999994004 ; deviation = -5.996e-07
      Nbeta    =   15.9999996613 ; deviation = -3.387e-07
      Ntotal   =   35.9999990617 ; deviation = -9.383e-07 

   @Spin Contamination Metric:   1.339808553E-02
   @S^2 Expected:                6.000000000E+00
   @S^2 Observed:                6.013398086E+00
   @S   Expected:                2.000000000E+00
   @S   Observed:                2.000000000E+00

    Orbital Energies [Eh]
    ---------------------

    Alpha Occupied:                                                       

       1A1  -195.442684     2A1   -22.081270     3A1   -19.044880  
       4A1   -18.737904     1B1   -18.721706     1B2   -18.721706  
       5A1   -10.235543     6A1    -2.717493     7A1    -1.802217  
       2B1    -1.786239     2B2    -1.786239     8A1    -1.275998  
       9A1    -0.706937     3B1    -0.622752     3B2    -0.622752  
      10A1    -0.595552     4B1    -0.387055     4B2    -0.387055  
      11A1    -0.360451     1A2    -0.360449  

    Alpha Virtual:                                                        

      12A1    -0.359158    13A1    -0.288528     5B1    -0.273672  
       5B2    -0.273672     6B1    -0.173838     6B2    -0.173838  
      14A1    -0.121771    15A1    -0.106205    16A1    -0.069627  
       7B2    -0.067304     7B1    -0.067304     8B1    -0.049383  
       8B2    -0.049383     2A2    -0.038542    17A1    -0.038542  
      18A1    -0.016534    19A1    -0.005123     9B1     0.012861  
       9B2     0.012861    20A1     0.051847     3A2     0.057662  
      21A1     0.057663    22A1     0.129566    10B1     0.156454  
      10B2     0.156454    23A1     0.164873    11B1     0.194047  
      11B2     0.194047    24A1     0.195867    12B1     0.254236  
      12B2     0.254236    25A1     0.281216    26A1     0.310607  
       4A2     0.310609    13B1     0.326328    13B2     0.326328  
      27A1     0.356836     5A2     0.379528    28A1     0.379529  
      29A1     0.470970    14B1     0.508749    14B2     0.508749  
      30A1     0.552944    31A1     0.605513     6A2     0.605516  
      32A1     0.657866    15B1     0.685834    15B2     0.685834  
      33A1     0.690204    16B1     0.750114    16B2     0.750114  
      17B1     0.850414    17B2     0.850414    34A1     0.900873  
       7A2     0.900884    35A1     0.902989    36A1     1.104790  
      18B1     1.175407    18B2     1.175407    19B1     1.399092  
      19B2     1.399092    37A1     1.426279    20B1     1.466557  
      20B2     1.466557    38A1     1.473541     8A2     1.473541  
      39A1     1.587975    40A1     1.640679    41A1     1.896130  
      21B1     1.932799    21B2     1.932799    42A1     2.026509  
      43A1     2.124955     9A2     2.124962    44A1     2.138765  
      22B1     2.162753    22B2     2.162753    23B2     2.367075  
      23B1     2.367075    45A1     2.470361    10A2     2.568638  
      46A1     2.568640    24B1     2.630133    24B2     2.630133  
      47A1     2.750357    11A2     2.750358    25B1     2.870181  
      25B2     2.870181    48A1     2.980112    49A1     3.098265  
      26B1     3.302841    26B2     3.302841    50A1     3.753869  
      27B2     3.795223    27B1     3.795223    12A2     3.811838  
      51A1     3.811871    52A1     3.813095    13A2     3.813191  
      28B1     3.978053    28B2     3.978053    53A1     4.094722  
      29B1     4.228435    29B2     4.228435    14A2     4.237368  
      54A1     4.237369    55A1     4.311179    30B1     4.397843  
      30B2     4.397843    31B2     4.777454    31B1     4.777454  
      56A1     4.819872    15A2     5.201104    57A1     5.201115  
      32B1     5.999689    32B2     5.999689    16A2     6.021431  
      58A1     6.021436    59A1     6.327769    33B1     6.439814  
      33B2     6.439814    60A1     6.857918    61A1    22.314880  
      62A1    43.649712  

    Beta Occupied:                                                        

       1A1  -195.442542     2A1   -22.030724     3A1   -19.042318  
       4A1   -18.705306     1B1   -18.680969     1B2   -18.680969  
       5A1   -10.235536     6A1    -2.575514     7A1    -1.685539  
       2B1    -1.632413     2B2    -1.632413     8A1    -1.270478  
       9A1    -0.698218     3B2    -0.614837     3B1    -0.614837  
      10A1    -0.579508  

    Beta Virtual:                                                         

      11A1    -0.438164     4B2    -0.339984     4B1    -0.339984  
       5B1    -0.308196     5B2    -0.308196    12A1    -0.292833  
       1A2    -0.292829    13A1    -0.292392     6B2    -0.187993  
       6B1    -0.187993    14A1    -0.113514    15A1    -0.079509  
       7B1    -0.055019     7B2    -0.055019     2A2    -0.031532  
      16A1    -0.031528    17A1    -0.009143    18A1     0.008177  
       8B1     0.022547     8B2     0.022547     9B1     0.033439  
       9B2     0.033439    19A1     0.055008     3A2     0.060858  
      20A1     0.060861    21A1     0.093670    22A1     0.134045  
      10B1     0.172802    10B2     0.172802    23A1     0.175806  
      11B1     0.225320    11B2     0.225320    24A1     0.265490  
      12B1     0.273635    12B2     0.273635    25A1     0.297184  
       4A2     0.310558    26A1     0.310565    13B1     0.328625  
      13B2     0.328625    27A1     0.357125    28A1     0.373848  
       5A2     0.373867    29A1     0.458348    14B1     0.488088  
      14B2     0.488088    30A1     0.559457     6A2     0.612293  
      31A1     0.612298    32A1     0.664695    15B2     0.691792  
      15B1     0.691792    33A1     0.695464    16B1     0.761164  
      16B2     0.761164    17B1     0.831791    17B2     0.831791  
      34A1     0.905704    35A1     0.942135     7A2     0.942141  
      36A1     1.113267    18B1     1.209417    18B2     1.209417  
      19B2     1.401960    19B1     1.401960    37A1     1.427359  
       8A2     1.479309    38A1     1.479312    20B1     1.547992  
      20B2     1.547992    39A1     1.633551    40A1     1.668851  
      41A1     1.914110    21B1     1.944136    21B2     1.944136  
      42A1     2.092520    43A1     2.170957     9A2     2.246830  
      44A1     2.246885    22B1     2.277036    22B2     2.277037  
      23B1     2.373530    23B2     2.373530    45A1     2.531087  
      46A1     2.577823    10A2     2.577851    24B1     2.641043  
      24B2     2.641043    11A2     2.762363    47A1     2.762406  
      25B2     2.877198    25B1     2.877198    48A1     2.990140  
      49A1     3.106659    26B1     3.326102    26B2     3.326102  
      50A1     3.819807    51A1     3.962005    12A2     3.962011  
      27B2     3.962807    27B1     3.962807    52A1     3.965929  
      13A2     3.965940    28B1     4.085506    28B2     4.085506  
      53A1     4.099843    29B2     4.359479    29B1     4.359479  
      54A1     4.361927    55A1     4.375974    14A2     4.375978  
      30B1     4.501940    30B2     4.501940    31B2     4.786798  
      31B1     4.786798    56A1     4.886834    15A2     5.207844  
      57A1     5.207849    32B2     6.010122    32B1     6.010122  
      16A2     6.035336    58A1     6.035341    59A1     6.333322  
      33B2     6.447224    33B1     6.447224    60A1     6.863608  
      61A1    22.315849    62A1    43.654213  

    Final Occupation by Irrep:
             A1    A2    B1    B2 
    DOCC [    10,    0,    3,    3 ]
    SOCC [     1,    1,    1,    1 ]

  @DF-UKS Final Energy: -1057.27792831260672

   => Energetics <=

    Nuclear Repulsion Energy =             87.3421567944189405
    One-Electron Energy =               -1618.8346668038761891
    Two-Electron Energy =                 533.7240698348000478
    DFT Exchange-Correlation Energy =     -59.5094881379496883
    Empirical Dispersion Energy =           0.0000000000000000
    VV10 Nonlocal Energy =                  0.0000000000000000
    Total Energy =                      -1057.2779283126069458

  UHF NO Occupations:
  HONO-2 :    1 A2 1.0000000
  HONO-1 :    4 B2 1.0000000
  HONO-0 :    4 B1 1.0000000
  LUNO+0 :   12 A1 0.0060076
  LUNO+1 :    5 B2 0.0001894
  LUNO+2 :    5 B1 0.0001894
  LUNO+3 :   13 A1 0.0001233


Computation Completed


Properties will be evaluated at   0.000000,   0.000000,   0.000000 [a0]

Properties computed using the SCF density matrix

  Nuclear Dipole Moment: [e a0]
     X:     0.0000      Y:     0.0000      Z:     4.5721

  Electronic Dipole Moment: [e a0]
     X:     0.0000      Y:     0.0000      Z:    -6.3155

  Dipole Moment: [e a0]
     X:     0.0000      Y:     0.0000      Z:    -1.7434     Total:     1.7434

  Dipole Moment: [D]
     X:     0.0000      Y:     0.0000      Z:    -4.4313     Total:     4.4313


*** tstop() called on compute379.bc4.acrc.priv at Sun Nov  7 05:07:36 2021
Module time:
	user time   =     404.49 seconds =       6.74 minutes
	system time =      19.87 seconds =       0.33 minutes
	total time  =         15 seconds =       0.25 minutes
Total time:
	user time   =     404.49 seconds =       6.74 minutes
	system time =      19.87 seconds =       0.33 minutes
	total time  =         15 seconds =       0.25 minutes

    Psi4 stopped on: Sunday, 07 November 2021 05:07AM
    Psi4 wall time for execution: 0:00:15.70

*** Psi4 exiting successfully. Buy a developer a beer!
