
    -----------------------------------------------------------------------
          Psi4: An Open-Source Ab Initio Electronic Structure Package
                               Psi4 1.4.1 release

                         Git: Rev {HEAD} cd00f19 


    D. G. A. Smith, L. A. Burns, A. C. Simmonett, R. M. Parrish,
    M. C. Schieber, R. Galvelis, P. Kraus, H. Kruse, R. Di Remigio,
    A. Alenaizan, A. M. James, S. Lehtola, J. P. Misiewicz, M. Scheurer,
    R. A. Shaw, J. B. Schriber, Y. Xie, Z. L. Glick, D. A. Sirianni,
    J. S. O'Brien, J. M. Waldrop, A. Kumar, E. G. Hohenstein,
    B. P. Pritchard, B. R. Brooks, H. F. Schaefer III, A. Yu. Sokolov,
    K. Patkowski, A. E. DePrince III, U. Bozkaya, R. A. King,
    F. A. Evangelista, J. M. Turney, T. D. Crawford, C. D. Sherrill,
    J. Chem. Phys. 152(18) 184108 (2020). https://doi.org/10.1063/5.0006002

                            Additional Code Authors
    E. T. Seidl, C. L. Janssen, E. F. Valeev, M. L. Leininger,
    J. F. Gonthier, R. M. Richard, H. R. McAlexander, M. Saitow, X. Wang,
    P. Verma, and M. H. Lechner

             Previous Authors, Complete List of Code Contributors,
                       and Citations for Specific Modules
    https://github.com/psi4/psi4/blob/master/codemeta.json
    https://github.com/psi4/psi4/graphs/contributors
    http://psicode.org/psi4manual/master/introduction.html#citing-psifour

    -----------------------------------------------------------------------


    Psi4 started on: Sunday, 07 November 2021 05:04AM

    Process ID: 16972
    Host:       compute196.bc4.acrc.priv
    PSIDATADIR: /mnt/storage/home/zw18965/.conda/envs/p4env/share/psi4
    Memory:     500.0 MiB
    Threads:    28
    
  ==> Input File <==

--------------------------------------------------------------------------
memory 120 GB

molecule {
0 1
C          0.00000        0.00000       -0.62000
C          0.00000        0.00000        0.62000
 }

set dynamic_level 1
set basis Def2-TZVPPD

energy("M11-D3BJ")
--------------------------------------------------------------------------

  Memory set to 111.759 GiB by Python driver.

Scratch directory: /tmp/

*** tstart() called on compute196.bc4.acrc.priv
*** at Sun Nov  7 05:04:26 2021

   => Loading Basis Set <=

    Name: DEF2-TZVPPD
    Role: ORBITAL
    Keyword: BASIS
    atoms 1-2 entry C          line   144 file /mnt/storage/home/zw18965/.conda/envs/p4env/share/psi4/basis/def2-tzvppd.gbs 

   => M11-D3(BJ): Empirical Dispersion <=

    Grimme's -D3 (BJ-damping) Dispersion Correction
    Grimme S.; Ehrlich S.; Goerigk L. (2011), J. Comput. Chem., 32: 1456
    Parametrisation from:    L. Goerigk, J. Phys. Chem. Lett. 6, 3891-3896, 2015

        s6 =       1.000000
        s8 =       2.811200
        a1 =       0.000000
        a2 =      10.138900


         ---------------------------------------------------------
                                   SCF
               by Justin Turney, Rob Parrish, Andy Simmonett
                          and Daniel G. A. Smith
                              RKS Reference
                       28 Threads, 114440 MiB Core
         ---------------------------------------------------------

  ==> Geometry <==

    Molecular point group: d2h
    Full point group: D_inf_h

    Geometry (in Angstrom), charge = 0, multiplicity = 1:

       Center              X                  Y                   Z               Mass       
    ------------   -----------------  -----------------  -----------------  -----------------
         C            0.000000000000     0.000000000000    -0.620000000000    12.000000000000
         C            0.000000000000     0.000000000000     0.620000000000    12.000000000000

  Running in d2h symmetry.

  Rotational constants: A = ************  B =      1.82727  C =      1.82727 [cm^-1]
  Rotational constants: A = ************  B =  54780.06946  C =  54780.06946 [MHz]
  Nuclear repulsion =   15.363209342032256

  Charge       = 0
  Multiplicity = 1
  Electrons    = 12
  Nalpha       = 6
  Nbeta        = 6

  ==> Algorithm <==

  SCF Algorithm Type is DF.
  DIIS enabled.
  MOM disabled.
  Fractional occupation disabled.
  Guess Type is SAD.
  Energy threshold   = 1.00e-06
  Density threshold  = 1.00e-06
  Integral threshold = 1.00e-12

  ==> Primary Basis <==

  Basis Set: DEF2-TZVPPD
    Blend: DEF2-TZVPPD
    Number of shells: 26
    Number of basis functions: 74
    Number of Cartesian functions: 86
    Spherical Harmonics?: true
    Max angular momentum: 3

  ==> DFT Potential <==

   => Composite Functional: M11-D3BJ <= 

    M11 Meta-GGA XC Functional
(10.1021/jz201170d)
    R. Peverati and D. G. Truhlar, J. Phys. Chem. Lett., 2, 2810, 2011


    Deriv               =              1
    GGA                 =           TRUE
    Meta                =           TRUE

    Exchange Hybrid     =           TRUE
    MP2 Hybrid          =          FALSE

   => Exchange Functionals <=

    1.0000   XC_HYB_MGGA_X_M11 [omega = 0.2500]

   => Exact (HF) Exchange <=

    0.5720            HF,LR [omega = 0.2500]
    0.4280               HF 

   => Correlation Functionals <=

    1.0000    XC_MGGA_C_M11

   => LibXC Density Thresholds  <==

    XC_MGGA_C_M11:  1.00E-15 
    XC_HYB_MGGA_X_M11:  1.00E-11 

   => Molecular Quadrature <=

    Radial Scheme          =       TREUTLER
    Pruning Scheme         =           NONE
    Nuclear Scheme         =       TREUTLER

    BS radius alpha        =              1
    Pruning alpha          =              1
    Radial Points          =             75
    Spherical Points       =            302
    Total Points           =          44636
    Total Blocks           =            420
    Max Points             =            256
    Max Functions          =             74
    Weights Tolerance      =       1.00E-15

   => Loading Basis Set <=

    Name: (DEF2-TZVPPD AUX)
    Role: JKFIT
    Keyword: DF_BASIS_SCF
    atoms 1-2 entry C          line   198 file /mnt/storage/home/zw18965/.conda/envs/p4env/share/psi4/basis/def2-universal-jkfit.gbs 

  ==> Integral Setup <==

  DFHelper Memory: AOs need 0.015 GiB; user supplied 83.594 GiB. Using in-core AOs.

  ==> MemDFJK: Density-Fitted J/K Matrices <==

    J tasked:                   Yes
    K tasked:                   Yes
    wK tasked:                  Yes
    Omega:                2.500E-01
    OpenMP threads:              28
    Memory [MiB]:             85599
    Algorithm:                 Core
    Schwarz Cutoff:           1E-12
    Mask sparsity (%):       0.0365
    Fitting Condition:        1E-10

   => Auxiliary Basis Set <=

  Basis Set: (DEF2-TZVPPD AUX)
    Blend: DEF2-UNIVERSAL-JKFIT
    Number of shells: 50
    Number of basis functions: 150
    Number of Cartesian functions: 178
    Spherical Harmonics?: true
    Max angular momentum: 4

  Cached 100.0% of DFT collocation blocks in 0.225 [GiB].

  Minimum eigenvalue in the overlap matrix is 4.1490784434E-05.
  Reciprocal condition number of the overlap matrix is 7.6448122492E-06.
    Using symmetric orthogonalization.

  ==> Pre-Iterations <==

  SCF Guess: Superposition of Atomic Densities via on-the-fly atomic UHF (no occupation information).

   -------------------------
    Irrep   Nso     Nmo    
   -------------------------
     Ag        17      17 
     B1g        4       4 
     B2g        8       8 
     B3g        8       8 
     Au         4       4 
     B1u       17      17 
     B2u        8       8 
     B3u        8       8 
   -------------------------
    Total      74      74
   -------------------------

  ==> Iterations <==

                           Total Energy        Delta E     RMS |[F,P]|

   @DF-RKS iter SAD:   -75.06580973054228   -7.50658e+01   0.00000e+00 
   @DF-RKS iter   1:   -75.80738979851097   -7.41580e-01   9.68237e-03 DIIS
   @DF-RKS iter   2:   -75.84236763353927   -3.49778e-02   4.68404e-03 DIIS
   @DF-RKS iter   3:   -75.85035011547443   -7.98248e-03   4.14910e-04 DIIS
   @DF-RKS iter   4:   -75.85054502209942   -1.94907e-04   1.08024e-04 DIIS
   @DF-RKS iter   5:   -75.85055470432961   -9.68223e-06   9.73583e-06 DIIS
   @DF-RKS iter   6:   -75.85055477325714   -6.89275e-08   1.17874e-06 DIIS
   @DF-RKS iter   7:   -75.85055477433600   -1.07886e-09   2.20287e-07 DIIS
  Energy and wave function converged.


  ==> Post-Iterations <==

   Electrons on quadrature grid:
      Ntotal   =   12.0000001730 ; deviation = 1.730e-07 

    Orbital Energies [Eh]
    ---------------------

    Doubly Occupied:                                                      

       1Ag   -10.544101     1B1u  -10.542314     2Ag    -0.921284  
       2B1u   -0.499924     1B2u   -0.438366     1B3u   -0.438366  

    Virtual:                                                              

       3Ag    -0.176851     4Ag     0.042671     3B1u    0.051967  
       1B3g    0.081442     1B2g    0.081442     5Ag     0.181504  
       2B3g    0.220704     2B2g    0.220704     4B1u    0.223565  
       2B2u    0.237902     2B3u    0.237902     1B1g    0.239164  
       6Ag     0.239165     5B1u    0.321133     1Au     0.321133  
       3B2u    0.370531     3B3u    0.370531     6B1u    0.399721  
       7Ag     0.406279     8Ag     0.512626     7B1u    0.577844  
       3B3g    0.588330     3B2g    0.588330     9Ag     0.806298  
       2B1g    0.806299     8B1u    0.844905     4B2u    0.927490  
       4B3u    0.927490    10Ag     1.072786     9B1u    1.075201  
       2Au     1.075204     4B3g    1.200035     4B2g    1.200035  
      10B1u    1.313428     5B2u    1.427541     5B3u    1.427541  
      11Ag     1.471203    11B1u    1.680360     5B3g    1.802733  
       5B2g    1.802733    12Ag     1.952159    12B1u    2.044312  
       3B1g    2.505808    13Ag     2.505869     6B2u    2.545526  
       6B3u    2.545526     7B2u    2.613006     7B3u    2.613006  
      14Ag     2.897695     6B3g    2.924076     6B2g    2.924076  
       4B1g    3.065214    15Ag     3.065359     7B2g    3.085995  
       7B3g    3.085995     3Au     3.155335    13B1u    3.155482  
       8B2u    3.514040     8B3u    3.514040    14B1u    3.531996  
       4Au     3.532022    15B1u    3.559627    16Ag     4.421352  
       8B3g    4.457985     8B2g    4.457985    16B1u    4.531327  
      17Ag    21.477848    17B1u   22.263113  

    Final Occupation by Irrep:
             Ag   B1g   B2g   B3g    Au   B1u   B2u   B3u 
    DOCC [     2,    0,    0,    0,    0,    2,    1,    1 ]

  @DF-RKS Final Energy:   -75.85055477433600

   => Energetics <=

    Nuclear Repulsion Energy =             15.3632093420322562
    One-Electron Energy =                -131.4244119048654227
    Two-Electron Energy =                  45.5183387534373622
    DFT Exchange-Correlation Energy =      -5.3076199649401943
    Empirical Dispersion Energy =          -0.0000710000000000
    VV10 Nonlocal Energy =                  0.0000000000000000
    Total Energy =                        -75.8505547743360040

Computation Completed


Properties will be evaluated at   0.000000,   0.000000,   0.000000 [a0]

Properties computed using the SCF density matrix

  Nuclear Dipole Moment: [e a0]
     X:     0.0000      Y:     0.0000      Z:     0.0000

  Electronic Dipole Moment: [e a0]
     X:     0.0000      Y:     0.0000      Z:     0.0000

  Dipole Moment: [e a0]
     X:     0.0000      Y:     0.0000      Z:     0.0000     Total:     0.0000

  Dipole Moment: [D]
     X:     0.0000      Y:     0.0000      Z:     0.0000     Total:     0.0000


*** tstop() called on compute196.bc4.acrc.priv at Sun Nov  7 05:04:29 2021
Module time:
	user time   =      18.86 seconds =       0.31 minutes
	system time =       1.27 seconds =       0.02 minutes
	total time  =          3 seconds =       0.05 minutes
Total time:
	user time   =      18.86 seconds =       0.31 minutes
	system time =       1.27 seconds =       0.02 minutes
	total time  =          3 seconds =       0.05 minutes

    Psi4 stopped on: Sunday, 07 November 2021 05:04AM
    Psi4 wall time for execution: 0:00:02.79

*** Psi4 exiting successfully. Buy a developer a beer!
