
    -----------------------------------------------------------------------
          Psi4: An Open-Source Ab Initio Electronic Structure Package
                               Psi4 1.4.1 release

                         Git: Rev {HEAD} cd00f19 


    D. G. A. Smith, L. A. Burns, A. C. Simmonett, R. M. Parrish,
    M. C. Schieber, R. Galvelis, P. Kraus, H. Kruse, R. Di Remigio,
    A. Alenaizan, A. M. James, S. Lehtola, J. P. Misiewicz, M. Scheurer,
    R. A. Shaw, J. B. Schriber, Y. Xie, Z. L. Glick, D. A. Sirianni,
    J. S. O'Brien, J. M. Waldrop, A. Kumar, E. G. Hohenstein,
    B. P. Pritchard, B. R. Brooks, H. F. Schaefer III, A. Yu. Sokolov,
    K. Patkowski, A. E. DePrince III, U. Bozkaya, R. A. King,
    F. A. Evangelista, J. M. Turney, T. D. Crawford, C. D. Sherrill,
    J. Chem. Phys. 152(18) 184108 (2020). https://doi.org/10.1063/5.0006002

                            Additional Code Authors
    E. T. Seidl, C. L. Janssen, E. F. Valeev, M. L. Leininger,
    J. F. Gonthier, R. M. Richard, H. R. McAlexander, M. Saitow, X. Wang,
    P. Verma, and M. H. Lechner

             Previous Authors, Complete List of Code Contributors,
                       and Citations for Specific Modules
    https://github.com/psi4/psi4/blob/master/codemeta.json
    https://github.com/psi4/psi4/graphs/contributors
    http://psicode.org/psi4manual/master/introduction.html#citing-psifour

    -----------------------------------------------------------------------


    Psi4 started on: Sunday, 07 November 2021 05:04AM

    Process ID: 9909
    Host:       compute133.bc4.acrc.priv
    PSIDATADIR: /mnt/storage/home/zw18965/.conda/envs/p4env/share/psi4
    Memory:     500.0 MiB
    Threads:    28
    
  ==> Input File <==

--------------------------------------------------------------------------
memory 120 GB

molecule {
0 3
C          0.00000        0.00000        0.00000
H          0.00000        0.00000        1.07672
H          0.77665        0.00000       -0.74575
 }

set reference uks
set dynamic_level 1
set basis Def2-TZVPPD

energy("M11-D3BJ")
--------------------------------------------------------------------------

  Memory set to 111.759 GiB by Python driver.

Scratch directory: /tmp/

*** tstart() called on compute133.bc4.acrc.priv
*** at Sun Nov  7 05:04:24 2021

   => Loading Basis Set <=

    Name: DEF2-TZVPPD
    Role: ORBITAL
    Keyword: BASIS
    atoms 1   entry C          line   144 file /mnt/storage/home/zw18965/.conda/envs/p4env/share/psi4/basis/def2-tzvppd.gbs 
    atoms 2-3 entry H          line    14 file /mnt/storage/home/zw18965/.conda/envs/p4env/share/psi4/basis/def2-tzvppd.gbs 

   => M11-D3(BJ): Empirical Dispersion <=

    Grimme's -D3 (BJ-damping) Dispersion Correction
    Grimme S.; Ehrlich S.; Goerigk L. (2011), J. Comput. Chem., 32: 1456
    Parametrisation from:    L. Goerigk, J. Phys. Chem. Lett. 6, 3891-3896, 2015

        s6 =       1.000000
        s8 =       2.811200
        a1 =       0.000000
        a2 =      10.138900


         ---------------------------------------------------------
                                   SCF
               by Justin Turney, Rob Parrish, Andy Simmonett
                          and Daniel G. A. Smith
                              UKS Reference
                       28 Threads, 114440 MiB Core
         ---------------------------------------------------------

  ==> Geometry <==

    Molecular point group: cs
    Full point group: Cs

    Geometry (in Angstrom), charge = 0, multiplicity = 3:

       Center              X                  Y                   Z               Mass       
    ------------   -----------------  -----------------  -----------------  -----------------
         C            0.055846664813    -0.023799099534     0.000000000000    12.000000000000
         H            0.055846664813     1.052920900466     0.000000000000     1.007825032230
         H           -0.720803335187    -0.769549099534     0.000000000000     1.007825032230

  Running in cs symmetry.

  Rotational constants: A =     54.82145  B =      8.52409  C =      7.37704 [cm^-1]
  Rotational constants: A = 1643505.75863  B = 255545.73237  C = 221158.23859 [MHz]
  Nuclear repulsion =    6.164774012406175

  Charge       = 0
  Multiplicity = 3
  Electrons    = 8
  Nalpha       = 5
  Nbeta        = 3

  ==> Algorithm <==

  SCF Algorithm Type is DF.
  DIIS enabled.
  MOM disabled.
  Fractional occupation disabled.
  Guess Type is SAD.
  Energy threshold   = 1.00e-06
  Density threshold  = 1.00e-06
  Integral threshold = 1.00e-12

  ==> Primary Basis <==

  Basis Set: DEF2-TZVPPD
    Blend: DEF2-TZVPPD
    Number of shells: 27
    Number of basis functions: 71
    Number of Cartesian functions: 79
    Spherical Harmonics?: true
    Max angular momentum: 3

  ==> DFT Potential <==

   => Composite Functional: M11-D3BJ <= 

    M11 Meta-GGA XC Functional
(10.1021/jz201170d)
    R. Peverati and D. G. Truhlar, J. Phys. Chem. Lett., 2, 2810, 2011


    Deriv               =              1
    GGA                 =           TRUE
    Meta                =           TRUE

    Exchange Hybrid     =           TRUE
    MP2 Hybrid          =          FALSE

   => Exchange Functionals <=

    1.0000   XC_HYB_MGGA_X_M11 [omega = 0.2500]

   => Exact (HF) Exchange <=

    0.5720            HF,LR [omega = 0.2500]
    0.4280               HF 

   => Correlation Functionals <=

    1.0000    XC_MGGA_C_M11

   => LibXC Density Thresholds  <==

    XC_MGGA_C_M11:  1.00E-15 
    XC_HYB_MGGA_X_M11:  1.00E-11 

   => Molecular Quadrature <=

    Radial Scheme          =       TREUTLER
    Pruning Scheme         =           NONE
    Nuclear Scheme         =       TREUTLER

    BS radius alpha        =              1
    Pruning alpha          =              1
    Radial Points          =             75
    Spherical Points       =            302
    Total Points           =          66756
    Total Blocks           =            559
    Max Points             =            251
    Max Functions          =             71
    Weights Tolerance      =       1.00E-15

   => Loading Basis Set <=

    Name: (DEF2-TZVPPD AUX)
    Role: JKFIT
    Keyword: DF_BASIS_SCF
    atoms 1   entry C          line   198 file /mnt/storage/home/zw18965/.conda/envs/p4env/share/psi4/basis/def2-universal-jkfit.gbs 
    atoms 2-3 entry H          line    18 file /mnt/storage/home/zw18965/.conda/envs/p4env/share/psi4/basis/def2-universal-jkfit.gbs 

  ==> Integral Setup <==

  DFHelper Memory: AOs need 0.010 GiB; user supplied 83.484 GiB. Using in-core AOs.

  ==> MemDFJK: Density-Fitted J/K Matrices <==

    J tasked:                   Yes
    K tasked:                   Yes
    wK tasked:                  Yes
    Omega:                2.500E-01
    OpenMP threads:              28
    Memory [MiB]:             85487
    Algorithm:                 Core
    Schwarz Cutoff:           1E-12
    Mask sparsity (%):       0.0000
    Fitting Condition:        1E-10

   => Auxiliary Basis Set <=

  Basis Set: (DEF2-TZVPPD AUX)
    Blend: DEF2-UNIVERSAL-JKFIT
    Number of shells: 37
    Number of basis functions: 111
    Number of Cartesian functions: 129
    Spherical Harmonics?: true
    Max angular momentum: 4

  Cached 100.0% of DFT collocation blocks in 0.335 [GiB].

  Minimum eigenvalue in the overlap matrix is 1.0167975771E-04.
  Reciprocal condition number of the overlap matrix is 1.5978122319E-05.
    Using symmetric orthogonalization.

  ==> Pre-Iterations <==

  SCF Guess: Superposition of Atomic Densities via on-the-fly atomic UHF (no occupation information).

   -------------------------
    Irrep   Nso     Nmo    
   -------------------------
     A'        49      49 
     A"        22      22 
   -------------------------
    Total      71      71
   -------------------------

  ==> Iterations <==

                           Total Energy        Delta E     RMS |[F,P]|

   @DF-UKS iter SAD:   -38.50602346958571   -3.85060e+01   0.00000e+00 
   @DF-UKS iter   1:   -39.10151986858786   -5.95496e-01   4.71833e-03 DIIS
   @DF-UKS iter   2:   -39.12583694391670   -2.43171e-02   2.18098e-03 DIIS
   @DF-UKS iter   3:   -39.13228324787062   -6.44630e-03   3.11502e-04 DIIS
   @DF-UKS iter   4:   -39.13252942742106   -2.46180e-04   6.43601e-05 DIIS
   @DF-UKS iter   5:   -39.13254742838849   -1.80010e-05   1.70368e-05 DIIS
   @DF-UKS iter   6:   -39.13254918533375   -1.75695e-06   5.10071e-06 DIIS
   @DF-UKS iter   7:   -39.13254933316049   -1.47827e-07   1.13798e-06 DIIS
   @DF-UKS iter   8:   -39.13254934027485   -7.11436e-09   2.29477e-07 DIIS
  Energy and wave function converged.


  ==> Post-Iterations <==

   Electrons on quadrature grid:
      Nalpha   =    5.0000001833 ; deviation = 1.833e-07
      Nbeta    =    3.0000001478 ; deviation = 1.478e-07
      Ntotal   =    8.0000003311 ; deviation = 3.311e-07 

   @Spin Contamination Metric:   4.551876239E-03
   @S^2 Expected:                2.000000000E+00
   @S^2 Observed:                2.004551876E+00
   @S   Expected:                1.000000000E+00
   @S   Observed:                1.000000000E+00

    Orbital Energies [Eh]
    ---------------------

    Alpha Occupied:                                                       

       1Ap   -10.480992     2Ap    -0.817731     3Ap    -0.580427  
       4Ap    -0.390749     1App   -0.349373  

    Alpha Virtual:                                                        

       5Ap     0.039972     6Ap     0.102868     7Ap     0.137264  
       8Ap     0.178106     9Ap     0.203667     2App    0.214699  
       3App    0.227684    10Ap     0.256631     4App    0.258738  
      11Ap     0.286857    12Ap     0.322510    13Ap     0.346822  
       5App    0.361004    14Ap     0.365244     6App    0.436241  
      15Ap     0.443029    16Ap     0.497774    17Ap     0.533474  
      18Ap     0.741685     7App    0.792289    19Ap     0.792975  
      20Ap     0.859166     8App    0.860454    21Ap     0.896628  
      22Ap     0.998275     9App    1.066383    23Ap     1.203807  
      10App    1.319161    24Ap     1.323970    25Ap     1.500537  
      26Ap     1.516937    11App    1.594284    27Ap     1.687770  
      28Ap     1.732674    29Ap     1.819317    12App    2.624941  
      30Ap     2.638487    31Ap     2.646375    32Ap     2.706239  
      13App    2.782587    33Ap     2.919177    14App    2.969119  
      34Ap     3.031576    15App    3.047886    35Ap     3.064008  
      16App    3.087686    36Ap     3.171118    37Ap     3.455543  
      38Ap     3.568339    17App    3.617470    18App    3.698203  
      39Ap     3.788852    40Ap     3.788924    41Ap     4.011351  
      19App    4.071202    20App    4.091572    42Ap     4.149319  
      43Ap     4.631512    21App    4.915960    44Ap     4.936808  
      22App    4.940831    45Ap     5.159646    46Ap     5.324862  
      47Ap     5.707861    48Ap     5.764013    49Ap    22.610693  

    Beta Occupied:                                                        

       1Ap   -10.446146     2Ap    -0.723813     3Ap    -0.537662  

    Beta Virtual:                                                         

       4Ap    -0.024160     5Ap    -0.001169     1App    0.014004  
       6Ap     0.092433     7Ap     0.105028     8Ap     0.165035  
       9Ap     0.170040    10Ap     0.205753     2App    0.205980  
       3App    0.207034     4App    0.212344    11Ap     0.274340  
      12Ap     0.276264     5App    0.312564    13Ap     0.334223  
      14Ap     0.369864    15Ap     0.432916     6App    0.440574  
      16Ap     0.485781    17Ap     0.544897    18Ap     0.726223  
      19Ap     0.762291     7App    0.796105    20Ap     0.887446  
      21Ap     0.904807     8App    0.919580    22Ap     1.035144  
       9App    1.092762    23Ap     1.235499    24Ap     1.346456  
      10App    1.353769    25Ap     1.485568    26Ap     1.552536  
      11App    1.696814    27Ap     1.714481    28Ap     1.773829  
      29Ap     1.778616    30Ap     2.544913    31Ap     2.605701  
      12App    2.722030    13App    2.733509    32Ap     2.791173  
      33Ap     2.798566    14App    2.958879    34Ap     2.974951  
      15App    3.014940    35Ap     3.185238    36Ap     3.201627  
      16App    3.227242    37Ap     3.359999    38Ap     3.501525  
      17App    3.588912    18App    3.686389    39Ap     3.762001  
      40Ap     3.795790    41Ap     3.936555    19App    4.007928  
      20App    4.023822    42Ap     4.025339    43Ap     4.562134  
      44Ap     4.760772    21App    4.833489    22App    4.847543  
      45Ap     4.919268    46Ap     5.170868    47Ap     5.340235  
      48Ap     5.480259    49Ap    22.605419  

    Final Occupation by Irrep:
             Ap   App 
    DOCC [     3,    0 ]
    SOCC [     1,    1 ]

  @DF-UKS Final Energy:   -39.13254934027485

   => Energetics <=

    Nuclear Repulsion Energy =              6.1647740124061752
    One-Electron Energy =                 -63.9580692184044324
    Two-Electron Energy =                  21.6029613976987420
    DFT Exchange-Correlation Energy =      -2.9421851819753280
    Empirical Dispersion Energy =          -0.0000303500000000
    VV10 Nonlocal Energy =                  0.0000000000000000
    Total Energy =                        -39.1325493402748421

  UHF NO Occupations:
  HONO-2 :    3 Ap 1.9988339
  HONO-1 :    1App 1.0000000
  HONO-0 :    4 Ap 1.0000000
  LUNO+0 :    5 Ap 0.0011661
  LUNO+1 :    6 Ap 0.0011076
  LUNO+2 :    7 Ap 0.0000036
  LUNO+3 :    8 Ap 0.0000000


Computation Completed


Properties will be evaluated at   0.000000,   0.000000,   0.000000 [a0]

Properties computed using the SCF density matrix

  Nuclear Dipole Moment: [e a0]
     X:    -0.6234      Y:     0.2657      Z:     0.0000

  Electronic Dipole Moment: [e a0]
     X:     0.3812      Y:    -0.1624      Z:     0.0000

  Dipole Moment: [e a0]
     X:    -0.2422      Y:     0.1032      Z:     0.0000     Total:     0.2633

  Dipole Moment: [D]
     X:    -0.6156      Y:     0.2623      Z:     0.0000     Total:     0.6692


*** tstop() called on compute133.bc4.acrc.priv at Sun Nov  7 05:04:32 2021
Module time:
	user time   =     163.53 seconds =       2.73 minutes
	system time =       7.22 seconds =       0.12 minutes
	total time  =          8 seconds =       0.13 minutes
Total time:
	user time   =     163.53 seconds =       2.73 minutes
	system time =       7.22 seconds =       0.12 minutes
	total time  =          8 seconds =       0.13 minutes

    Psi4 stopped on: Sunday, 07 November 2021 05:04AM
    Psi4 wall time for execution: 0:00:07.94

*** Psi4 exiting successfully. Buy a developer a beer!
