
    -----------------------------------------------------------------------
          Psi4: An Open-Source Ab Initio Electronic Structure Package
                               Psi4 1.4.1 release

                         Git: Rev {HEAD} cd00f19 


    D. G. A. Smith, L. A. Burns, A. C. Simmonett, R. M. Parrish,
    M. C. Schieber, R. Galvelis, P. Kraus, H. Kruse, R. Di Remigio,
    A. Alenaizan, A. M. James, S. Lehtola, J. P. Misiewicz, M. Scheurer,
    R. A. Shaw, J. B. Schriber, Y. Xie, Z. L. Glick, D. A. Sirianni,
    J. S. O'Brien, J. M. Waldrop, A. Kumar, E. G. Hohenstein,
    B. P. Pritchard, B. R. Brooks, H. F. Schaefer III, A. Yu. Sokolov,
    K. Patkowski, A. E. DePrince III, U. Bozkaya, R. A. King,
    F. A. Evangelista, J. M. Turney, T. D. Crawford, C. D. Sherrill,
    J. Chem. Phys. 152(18) 184108 (2020). https://doi.org/10.1063/5.0006002

                            Additional Code Authors
    E. T. Seidl, C. L. Janssen, E. F. Valeev, M. L. Leininger,
    J. F. Gonthier, R. M. Richard, H. R. McAlexander, M. Saitow, X. Wang,
    P. Verma, and M. H. Lechner

             Previous Authors, Complete List of Code Contributors,
                       and Citations for Specific Modules
    https://github.com/psi4/psi4/blob/master/codemeta.json
    https://github.com/psi4/psi4/graphs/contributors
    http://psicode.org/psi4manual/master/introduction.html#citing-psifour

    -----------------------------------------------------------------------


    Psi4 started on: Sunday, 07 November 2021 05:04AM

    Process ID: 6253
    Host:       compute379.bc4.acrc.priv
    PSIDATADIR: /mnt/storage/home/zw18965/.conda/envs/p4env/share/psi4
    Memory:     500.0 MiB
    Threads:    28
    
  ==> Input File <==

--------------------------------------------------------------------------
memory 120 GB

molecule {
0 1
O          0.00000        0.00000        0.64242
Cl         1.40117        0.00000       -0.32121
Cl        -1.40117        0.00000       -0.32121
 }

set dynamic_level 1
set basis Def2-TZVPPD

energy("M11-D3BJ")
--------------------------------------------------------------------------

  Memory set to 111.759 GiB by Python driver.

Scratch directory: /tmp/

*** tstart() called on compute379.bc4.acrc.priv
*** at Sun Nov  7 05:04:24 2021

   => Loading Basis Set <=

    Name: DEF2-TZVPPD
    Role: ORBITAL
    Keyword: BASIS
    atoms 1   entry O          line   218 file /mnt/storage/home/zw18965/.conda/envs/p4env/share/psi4/basis/def2-tzvppd.gbs 
    atoms 2-3 entry CL         line   607 file /mnt/storage/home/zw18965/.conda/envs/p4env/share/psi4/basis/def2-tzvppd.gbs 

   => M11-D3(BJ): Empirical Dispersion <=

    Grimme's -D3 (BJ-damping) Dispersion Correction
    Grimme S.; Ehrlich S.; Goerigk L. (2011), J. Comput. Chem., 32: 1456
    Parametrisation from:    L. Goerigk, J. Phys. Chem. Lett. 6, 3891-3896, 2015

        s6 =       1.000000
        s8 =       2.811200
        a1 =       0.000000
        a2 =      10.138900


         ---------------------------------------------------------
                                   SCF
               by Justin Turney, Rob Parrish, Andy Simmonett
                          and Daniel G. A. Smith
                              RKS Reference
                       28 Threads, 114440 MiB Core
         ---------------------------------------------------------

  ==> Geometry <==

    Molecular point group: c2v
    Full point group: C2v

    Geometry (in Angstrom), charge = 0, multiplicity = 1:

       Center              X                  Y                   Z               Mass       
    ------------   -----------------  -----------------  -----------------  -----------------
         O            0.000000000000    -0.000000000000     0.784266452400    15.994914619570
         CL           1.401170000000     0.000000000000    -0.179363547600    34.968852682000
         CL          -1.401170000000    -0.000000000000    -0.179363547600    34.968852682000

  Running in c2v symmetry.

  Rotational constants: A =      1.39457  B =      0.12277  C =      0.11284 [cm^-1]
  Rotational constants: A =  41808.18585  B =   3680.64693  C =   3382.83402 [MHz]
  Nuclear repulsion =  139.214158846700684

  Charge       = 0
  Multiplicity = 1
  Electrons    = 42
  Nalpha       = 21
  Nbeta        = 21

  ==> Algorithm <==

  SCF Algorithm Type is DF.
  DIIS enabled.
  MOM disabled.
  Fractional occupation disabled.
  Guess Type is SAD.
  Energy threshold   = 1.00e-06
  Density threshold  = 1.00e-06
  Integral threshold = 1.00e-12

  ==> Primary Basis <==

  Basis Set: DEF2-TZVPPD
    Blend: DEF2-TZVPPD
    Number of shells: 48
    Number of basis functions: 142
    Number of Cartesian functions: 162
    Spherical Harmonics?: true
    Max angular momentum: 3

  ==> DFT Potential <==

   => Composite Functional: M11-D3BJ <= 

    M11 Meta-GGA XC Functional
(10.1021/jz201170d)
    R. Peverati and D. G. Truhlar, J. Phys. Chem. Lett., 2, 2810, 2011


    Deriv               =              1
    GGA                 =           TRUE
    Meta                =           TRUE

    Exchange Hybrid     =           TRUE
    MP2 Hybrid          =          FALSE

   => Exchange Functionals <=

    1.0000   XC_HYB_MGGA_X_M11 [omega = 0.2500]

   => Exact (HF) Exchange <=

    0.5720            HF,LR [omega = 0.2500]
    0.4280               HF 

   => Correlation Functionals <=

    1.0000    XC_MGGA_C_M11

   => LibXC Density Thresholds  <==

    XC_MGGA_C_M11:  1.00E-15 
    XC_HYB_MGGA_X_M11:  1.00E-11 

   => Molecular Quadrature <=

    Radial Scheme          =       TREUTLER
    Pruning Scheme         =           NONE
    Nuclear Scheme         =       TREUTLER

    BS radius alpha        =              1
    Pruning alpha          =              1
    Radial Points          =             75
    Spherical Points       =            302
    Total Points           =          66136
    Total Blocks           =            580
    Max Points             =            256
    Max Functions          =            136
    Weights Tolerance      =       1.00E-15

   => Loading Basis Set <=

    Name: (DEF2-TZVPPD AUX)
    Role: JKFIT
    Keyword: DF_BASIS_SCF
    atoms 1   entry O          line   318 file /mnt/storage/home/zw18965/.conda/envs/p4env/share/psi4/basis/def2-universal-jkfit.gbs 
    atoms 2-3 entry CL         line   986 file /mnt/storage/home/zw18965/.conda/envs/p4env/share/psi4/basis/def2-universal-jkfit.gbs 

  ==> Integral Setup <==

  DFHelper Memory: AOs need 0.107 GiB; user supplied 83.287 GiB. Using in-core AOs.

  ==> MemDFJK: Density-Fitted J/K Matrices <==

    J tasked:                   Yes
    K tasked:                   Yes
    wK tasked:                  Yes
    Omega:                2.500E-01
    OpenMP threads:              28
    Memory [MiB]:             85285
    Algorithm:                 Core
    Schwarz Cutoff:           1E-12
    Mask sparsity (%):       2.3507
    Fitting Condition:        1E-10

   => Auxiliary Basis Set <=

  Basis Set: (DEF2-TZVPPD AUX)
    Blend: DEF2-UNIVERSAL-JKFIT
    Number of shells: 101
    Number of basis functions: 333
    Number of Cartesian functions: 403
    Spherical Harmonics?: true
    Max angular momentum: 4

  Cached 100.0% of DFT collocation blocks in 0.532 [GiB].

  Minimum eigenvalue in the overlap matrix is 8.0363001160E-04.
  Reciprocal condition number of the overlap matrix is 1.3966442850E-04.
    Using symmetric orthogonalization.

  ==> Pre-Iterations <==

  SCF Guess: Superposition of Atomic Densities via on-the-fly atomic UHF (no occupation information).

   -------------------------
    Irrep   Nso     Nmo    
   -------------------------
     A1        52      52 
     A2        21      21 
     B1        43      43 
     B2        26      26 
   -------------------------
    Total     142     142
   -------------------------

  ==> Iterations <==

                           Total Energy        Delta E     RMS |[F,P]|

   @DF-RKS iter SAD:  -995.20059999454190   -9.95201e+02   0.00000e+00 
   @DF-RKS iter   1:  -995.46824190111090   -2.67642e-01   4.99980e-03 DIIS
   @DF-RKS iter   2:  -995.50111461295239   -3.28727e-02   2.16270e-03 DIIS
   @DF-RKS iter   3:  -995.50650347893406   -5.38887e-03   4.65413e-04 DIIS
   @DF-RKS iter   4:  -995.50677315541543   -2.69676e-04   3.12322e-04 DIIS
   @DF-RKS iter   5:  -995.50696304359394   -1.89888e-04   9.11961e-05 DIIS
   @DF-RKS iter   6:  -995.50698250565893   -1.94621e-05   1.19374e-05 DIIS
   @DF-RKS iter   7:  -995.50698327346777   -7.67809e-07   3.56640e-06 DIIS
   @DF-RKS iter   8:  -995.50698339519329   -1.21726e-07   1.09677e-06 DIIS
   @DF-RKS iter   9:  -995.50698340890176   -1.37085e-08   2.70067e-07 DIIS
  Energy and wave function converged.


  ==> Post-Iterations <==

   Electrons on quadrature grid:
      Ntotal   =   42.0000207310 ; deviation = 2.073e-05 

    Orbital Energies [Eh]
    ---------------------

    Doubly Occupied:                                                      

       1B1  -102.177066     1A1  -102.177062     2A1   -19.579825  
       2B1    -9.689191     3A1    -9.689174     4A1    -7.485082  
       3B1    -7.485075     4B1    -7.473641     5A1    -7.473633  
       1A2    -7.473109     1B2    -7.473108     6A1    -1.252542  
       5B1    -1.007159     7A1    -0.897280     6B1    -0.639568  
       8A1    -0.607424     2B2    -0.599678     2A2    -0.467076  
       9A1    -0.456180     7B1    -0.444847     3B2    -0.404753  

    Virtual:                                                              

      10A1    -0.045397     8B1     0.004403    11A1     0.031129  
       4B2     0.033591     9B1     0.038159    12A1     0.046772  
      13A1     0.062403    10B1     0.062962     3A2     0.063742  
       5B2     0.117681    11B1     0.139905    14A1     0.145572  
      15A1     0.218656     6B2     0.219473    12B1     0.245551  
       4A2     0.257338    16A1     0.265525    13B1     0.276552  
      17A1     0.305002     7B2     0.312565    14B1     0.314019  
       5A2     0.328794    18A1     0.339756    15B1     0.349204  
      16B1     0.477601    19A1     0.480791     8B2     0.501631  
      20A1     0.522718     6A2     0.525722     9B2     0.532496  
      21A1     0.538372     7A2     0.582249    22A1     0.622677  
      10B2     0.651094    17B1     0.652639     8A2     0.667024  
      11B2     0.667075    18B1     0.679450    23A1     0.695838  
      24A1     0.724131    19B1     0.726359    20B1     0.746490  
       9A2     0.779526    25A1     0.790056    21B1     0.793992  
      12B2     0.883613    26A1     0.897460    27A1     1.004277  
      22B1     1.014576    23B1     1.225748    28A1     1.309498  
      29A1     1.636949    10A2     1.668199    13B2     1.691440  
      30A1     1.879681    14B2     1.895300    31A1     1.902295  
      24B1     1.916335    11A2     1.925554    25B1     1.937646  
      32A1     1.937648    15B2     1.948651    12A2     1.963289  
      26B1     1.964193    33A1     2.023564    27B1     2.039032  
      16B2     2.116763    17B2     2.140690    34A1     2.143446  
      13A2     2.145388    28B1     2.149369    14A2     2.166183  
      35A1     2.203757    29B1     2.287077    18B2     2.306744  
      36A1     2.313950    30B1     2.323435    15A2     2.337102  
      19B2     2.398780    37A1     2.413542    31B1     2.434682  
      32B1     2.482333    16A2     2.572991    38A1     2.692583  
      33B1     2.778528    39A1     2.845072    20B2     2.905633  
      40A1     3.121390    41A1     3.872762    34B1     4.007298  
      21B2     5.086899    42A1     5.146920    17A2     5.262442  
      22B2     5.275790    35B1     5.301331    36B1     5.377155  
      43A1     5.564665    23B2     6.361597    44A1     6.438777  
      18A2     6.469313    45A1     6.714228    37B1     6.873013  
      46A1     8.174087    24B2     8.179007    38B1     8.193441  
      19A2     8.195418    25B2     8.219476    20A2     8.220351  
      47A1     8.233537    39B1     8.272292    48A1     8.346690  
      40B1     8.405711    26B2    10.704653    21A2    10.716540  
      49A1    10.725426    41B1    10.794873    42B1    11.076647  
      50A1    11.163130    51A1    25.067558    43B1    25.239092  
      52A1    43.361622  

    Final Occupation by Irrep:
             A1    A2    B1    B2 
    DOCC [     9,    2,    7,    3 ]

  @DF-RKS Final Energy:  -995.50698340890176

   => Energetics <=

    Nuclear Repulsion Energy =            139.2141588467006841
    One-Electron Energy =               -1650.5459368511599223
    Two-Electron Energy =                 550.4633749085402314
    DFT Exchange-Correlation Energy =     -34.6383061029827317
    Empirical Dispersion Energy =          -0.0002742100000000
    VV10 Nonlocal Energy =                  0.0000000000000000
    Total Energy =                       -995.5069834089017604

Computation Completed


Properties will be evaluated at   0.000000,   0.000000,   0.000000 [a0]

Properties computed using the SCF density matrix

  Nuclear Dipole Moment: [e a0]
     X:    -0.0000      Y:    -0.0000      Z:     0.3322

  Electronic Dipole Moment: [e a0]
     X:     0.0000      Y:     0.0000      Z:    -0.5890

  Dipole Moment: [e a0]
     X:    -0.0000      Y:    -0.0000      Z:    -0.2569     Total:     0.2569

  Dipole Moment: [D]
     X:    -0.0000      Y:    -0.0000      Z:    -0.6529     Total:     0.6529


*** tstop() called on compute379.bc4.acrc.priv at Sun Nov  7 05:04:28 2021
Module time:
	user time   =      61.10 seconds =       1.02 minutes
	system time =       3.60 seconds =       0.06 minutes
	total time  =          4 seconds =       0.07 minutes
Total time:
	user time   =      61.10 seconds =       1.02 minutes
	system time =       3.60 seconds =       0.06 minutes
	total time  =          4 seconds =       0.07 minutes

    Psi4 stopped on: Sunday, 07 November 2021 05:04AM
    Psi4 wall time for execution: 0:00:04.24

*** Psi4 exiting successfully. Buy a developer a beer!
