
    -----------------------------------------------------------------------
          Psi4: An Open-Source Ab Initio Electronic Structure Package
                               Psi4 1.4.1 release

                         Git: Rev {HEAD} cd00f19 


    D. G. A. Smith, L. A. Burns, A. C. Simmonett, R. M. Parrish,
    M. C. Schieber, R. Galvelis, P. Kraus, H. Kruse, R. Di Remigio,
    A. Alenaizan, A. M. James, S. Lehtola, J. P. Misiewicz, M. Scheurer,
    R. A. Shaw, J. B. Schriber, Y. Xie, Z. L. Glick, D. A. Sirianni,
    J. S. O'Brien, J. M. Waldrop, A. Kumar, E. G. Hohenstein,
    B. P. Pritchard, B. R. Brooks, H. F. Schaefer III, A. Yu. Sokolov,
    K. Patkowski, A. E. DePrince III, U. Bozkaya, R. A. King,
    F. A. Evangelista, J. M. Turney, T. D. Crawford, C. D. Sherrill,
    J. Chem. Phys. 152(18) 184108 (2020). https://doi.org/10.1063/5.0006002

                            Additional Code Authors
    E. T. Seidl, C. L. Janssen, E. F. Valeev, M. L. Leininger,
    J. F. Gonthier, R. M. Richard, H. R. McAlexander, M. Saitow, X. Wang,
    P. Verma, and M. H. Lechner

             Previous Authors, Complete List of Code Contributors,
                       and Citations for Specific Modules
    https://github.com/psi4/psi4/blob/master/codemeta.json
    https://github.com/psi4/psi4/graphs/contributors
    http://psicode.org/psi4manual/master/introduction.html#citing-psifour

    -----------------------------------------------------------------------


    Psi4 started on: Sunday, 07 November 2021 05:04AM

    Process ID: 16716
    Host:       compute423.bc4.acrc.priv
    PSIDATADIR: /mnt/storage/home/zw18965/.conda/envs/p4env/share/psi4
    Memory:     500.0 MiB
    Threads:    28
    
  ==> Input File <==

--------------------------------------------------------------------------
memory 120 GB

molecule {
0 1
O          0.00000        0.00000        0.00000
C          0.00000        0.00000        1.12961
 }

set dynamic_level 1
set basis Def2-TZVPPD

energy("M11-D3BJ")
--------------------------------------------------------------------------

  Memory set to 111.759 GiB by Python driver.

Scratch directory: /tmp/

*** tstart() called on compute423.bc4.acrc.priv
*** at Sun Nov  7 05:04:21 2021

   => Loading Basis Set <=

    Name: DEF2-TZVPPD
    Role: ORBITAL
    Keyword: BASIS
    atoms 1 entry O          line   218 file /mnt/storage/home/zw18965/.conda/envs/p4env/share/psi4/basis/def2-tzvppd.gbs 
    atoms 2 entry C          line   144 file /mnt/storage/home/zw18965/.conda/envs/p4env/share/psi4/basis/def2-tzvppd.gbs 

   => M11-D3(BJ): Empirical Dispersion <=

    Grimme's -D3 (BJ-damping) Dispersion Correction
    Grimme S.; Ehrlich S.; Goerigk L. (2011), J. Comput. Chem., 32: 1456
    Parametrisation from:    L. Goerigk, J. Phys. Chem. Lett. 6, 3891-3896, 2015

        s6 =       1.000000
        s8 =       2.811200
        a1 =       0.000000
        a2 =      10.138900


         ---------------------------------------------------------
                                   SCF
               by Justin Turney, Rob Parrish, Andy Simmonett
                          and Daniel G. A. Smith
                              RKS Reference
                       28 Threads, 114440 MiB Core
         ---------------------------------------------------------

  ==> Geometry <==

    Molecular point group: c2v
    Full point group: C_inf_v

    Geometry (in Angstrom), charge = 0, multiplicity = 1:

       Center              X                  Y                   Z               Mass       
    ------------   -----------------  -----------------  -----------------  -----------------
         O            0.000000000000     0.000000000000    -0.484206513369    15.994914619570
         C            0.000000000000     0.000000000000     0.645403486631    12.000000000000

  Running in c2v symmetry.

  Rotational constants: A = ************  B =      1.92688  C =      1.92688 [cm^-1]
  Rotational constants: A = ************  B =  57766.50834  C =  57766.50834 [MHz]
  Nuclear repulsion =   22.486084677154064

  Charge       = 0
  Multiplicity = 1
  Electrons    = 14
  Nalpha       = 7
  Nbeta        = 7

  ==> Algorithm <==

  SCF Algorithm Type is DF.
  DIIS enabled.
  MOM disabled.
  Fractional occupation disabled.
  Guess Type is SAD.
  Energy threshold   = 1.00e-06
  Density threshold  = 1.00e-06
  Integral threshold = 1.00e-12

  ==> Primary Basis <==

  Basis Set: DEF2-TZVPPD
    Blend: DEF2-TZVPPD
    Number of shells: 27
    Number of basis functions: 77
    Number of Cartesian functions: 89
    Spherical Harmonics?: true
    Max angular momentum: 3

  ==> DFT Potential <==

   => Composite Functional: M11-D3BJ <= 

    M11 Meta-GGA XC Functional
(10.1021/jz201170d)
    R. Peverati and D. G. Truhlar, J. Phys. Chem. Lett., 2, 2810, 2011


    Deriv               =              1
    GGA                 =           TRUE
    Meta                =           TRUE

    Exchange Hybrid     =           TRUE
    MP2 Hybrid          =          FALSE

   => Exchange Functionals <=

    1.0000   XC_HYB_MGGA_X_M11 [omega = 0.2500]

   => Exact (HF) Exchange <=

    0.5720            HF,LR [omega = 0.2500]
    0.4280               HF 

   => Correlation Functionals <=

    1.0000    XC_MGGA_C_M11

   => LibXC Density Thresholds  <==

    XC_MGGA_C_M11:  1.00E-15 
    XC_HYB_MGGA_X_M11:  1.00E-11 

   => Molecular Quadrature <=

    Radial Scheme          =       TREUTLER
    Pruning Scheme         =           NONE
    Nuclear Scheme         =       TREUTLER

    BS radius alpha        =              1
    Pruning alpha          =              1
    Radial Points          =             75
    Spherical Points       =            302
    Total Points           =          44635
    Total Blocks           =            414
    Max Points             =            256
    Max Functions          =             77
    Weights Tolerance      =       1.00E-15

   => Loading Basis Set <=

    Name: (DEF2-TZVPPD AUX)
    Role: JKFIT
    Keyword: DF_BASIS_SCF
    atoms 1 entry O          line   318 file /mnt/storage/home/zw18965/.conda/envs/p4env/share/psi4/basis/def2-universal-jkfit.gbs 
    atoms 2 entry C          line   198 file /mnt/storage/home/zw18965/.conda/envs/p4env/share/psi4/basis/def2-universal-jkfit.gbs 

  ==> Integral Setup <==

  DFHelper Memory: AOs need 0.016 GiB; user supplied 83.588 GiB. Using in-core AOs.

  ==> MemDFJK: Density-Fitted J/K Matrices <==

    J tasked:                   Yes
    K tasked:                   Yes
    wK tasked:                  Yes
    Omega:                2.500E-01
    OpenMP threads:              28
    Memory [MiB]:             85593
    Algorithm:                 Core
    Schwarz Cutoff:           1E-12
    Mask sparsity (%):       0.0337
    Fitting Condition:        1E-10

   => Auxiliary Basis Set <=

  Basis Set: (DEF2-TZVPPD AUX)
    Blend: DEF2-UNIVERSAL-JKFIT
    Number of shells: 50
    Number of basis functions: 152
    Number of Cartesian functions: 182
    Spherical Harmonics?: true
    Max angular momentum: 4

  Cached 100.0% of DFT collocation blocks in 0.232 [GiB].

  Minimum eigenvalue in the overlap matrix is 2.1708435403E-04.
  Reciprocal condition number of the overlap matrix is 3.7690338944E-05.
    Using symmetric orthogonalization.

  ==> Pre-Iterations <==

  SCF Guess: Superposition of Atomic Densities via on-the-fly atomic UHF (no occupation information).

   -------------------------
    Irrep   Nso     Nmo    
   -------------------------
     A1        35      35 
     A2         8       8 
     B1        17      17 
     B2        17      17 
   -------------------------
    Total      77      77
   -------------------------

  ==> Iterations <==

                           Total Energy        Delta E     RMS |[F,P]|

   @DF-RKS iter SAD:  -112.59061332894784   -1.12591e+02   0.00000e+00 
   @DF-RKS iter   1:  -113.28621986604794   -6.95607e-01   8.30715e-03 DIIS
   @DF-RKS iter   2:  -113.26355744324613    2.26624e-02   1.02824e-02 DIIS
   @DF-RKS iter   3:  -113.32273765106201   -5.91802e-02   1.16108e-03 DIIS
   @DF-RKS iter   4:  -113.32372329279673   -9.85642e-04   1.54262e-04 DIIS
   @DF-RKS iter   5:  -113.32374331654991   -2.00238e-05   2.53171e-05 DIIS
   @DF-RKS iter   6:  -113.32374404342740   -7.26877e-07   5.12976e-06 DIIS
   @DF-RKS iter   7:  -113.32374409348570   -5.00583e-08   7.63978e-07 DIIS
  Energy and wave function converged.


  ==> Post-Iterations <==

   Electrons on quadrature grid:
      Ntotal   =   13.9999997705 ; deviation = -2.295e-07 

    Orbital Energies [Eh]
    ---------------------

    Doubly Occupied:                                                      

       1A1   -19.552029     2A1   -10.553001     3A1    -1.304908  
       4A1    -0.707801     1B1    -0.602751     1B2    -0.602751  
       5A1    -0.502921  

    Virtual:                                                              

       6A1     0.023330     2B2     0.047544     2B1     0.047544  
       7A1     0.062174     3B2     0.070796     3B1     0.070796  
       8A1     0.140533     1A2     0.227496     9A1     0.227496  
       4B1     0.279202     4B2     0.279202    10A1     0.300609  
       5B2     0.377657     5B1     0.377657    11A1     0.397226  
      12A1     0.424695    13A1     0.494515     2A2     0.499117  
      14A1     0.499117     6B2     0.536569     6B1     0.536569  
      15A1     0.790687    16A1     0.834301     7B2     0.870557  
       7B1     0.870557     3A2     0.891395    17A1     0.891395  
      18A1     1.026962     8B2     1.072627     8B1     1.072627  
      19A1     1.338385    20A1     1.532946     9B1     1.636290  
       9B2     1.636290     4A2     1.772199    21A1     1.772213  
      22A1     1.892930    10B1     2.010047    10B2     2.010047  
      23A1     2.366492    11B2     2.728357    11B1     2.728357  
      12B2     2.807880    12B1     2.807881    24A1     2.920841  
       5A2     2.920865    25A1     3.099205    26A1     3.137513  
       6A2     3.137547    13B1     3.231724    13B2     3.231724  
      27A1     3.233588    14B2     3.730020    14B1     3.730020  
      28A1     4.187522    29A1     4.326858    15B1     5.090058  
      15B2     5.090058    30A1     5.492849     7A2     5.492853  
      16B2     6.182828    16B1     6.182828     8A2     6.303009  
      31A1     6.303178    32A1     6.484112    17B1     6.644804  
      17B2     6.644804    33A1     7.076616    34A1    21.968691  
      35A1    43.503904  

    Final Occupation by Irrep:
             A1    A2    B1    B2 
    DOCC [     5,    0,    1,    1 ]

  @DF-RKS Final Energy:  -113.32374409348570

   => Energetics <=

    Nuclear Repulsion Energy =             22.4860846771540643
    One-Electron Energy =                -198.2870610751033951
    Two-Electron Energy =                  69.5641578337082649
    DFT Exchange-Correlation Energy =      -7.0868911792446294
    Empirical Dispersion Energy =          -0.0000343500000000
    VV10 Nonlocal Energy =                  0.0000000000000000
    Total Energy =                       -113.3237440934857148

Computation Completed


Properties will be evaluated at   0.000000,   0.000000,   0.000000 [a0]

Properties computed using the SCF density matrix

  Nuclear Dipole Moment: [e a0]
     X:     0.0000      Y:     0.0000      Z:    -0.0023

  Electronic Dipole Moment: [e a0]
     X:     0.0000      Y:     0.0000      Z:     0.0010

  Dipole Moment: [e a0]
     X:     0.0000      Y:     0.0000      Z:    -0.0013     Total:     0.0013

  Dipole Moment: [D]
     X:     0.0000      Y:     0.0000      Z:    -0.0033     Total:     0.0033


*** tstop() called on compute423.bc4.acrc.priv at Sun Nov  7 05:04:23 2021
Module time:
	user time   =      20.99 seconds =       0.35 minutes
	system time =       1.38 seconds =       0.02 minutes
	total time  =          2 seconds =       0.03 minutes
Total time:
	user time   =      20.99 seconds =       0.35 minutes
	system time =       1.38 seconds =       0.02 minutes
	total time  =          2 seconds =       0.03 minutes

    Psi4 stopped on: Sunday, 07 November 2021 05:04AM
    Psi4 wall time for execution: 0:00:02.69

*** Psi4 exiting successfully. Buy a developer a beer!
