
    -----------------------------------------------------------------------
          Psi4: An Open-Source Ab Initio Electronic Structure Package
                               Psi4 1.4.1 release

                         Git: Rev {HEAD} cd00f19 


    D. G. A. Smith, L. A. Burns, A. C. Simmonett, R. M. Parrish,
    M. C. Schieber, R. Galvelis, P. Kraus, H. Kruse, R. Di Remigio,
    A. Alenaizan, A. M. James, S. Lehtola, J. P. Misiewicz, M. Scheurer,
    R. A. Shaw, J. B. Schriber, Y. Xie, Z. L. Glick, D. A. Sirianni,
    J. S. O'Brien, J. M. Waldrop, A. Kumar, E. G. Hohenstein,
    B. P. Pritchard, B. R. Brooks, H. F. Schaefer III, A. Yu. Sokolov,
    K. Patkowski, A. E. DePrince III, U. Bozkaya, R. A. King,
    F. A. Evangelista, J. M. Turney, T. D. Crawford, C. D. Sherrill,
    J. Chem. Phys. 152(18) 184108 (2020). https://doi.org/10.1063/5.0006002

                            Additional Code Authors
    E. T. Seidl, C. L. Janssen, E. F. Valeev, M. L. Leininger,
    J. F. Gonthier, R. M. Richard, H. R. McAlexander, M. Saitow, X. Wang,
    P. Verma, and M. H. Lechner

             Previous Authors, Complete List of Code Contributors,
                       and Citations for Specific Modules
    https://github.com/psi4/psi4/blob/master/codemeta.json
    https://github.com/psi4/psi4/graphs/contributors
    http://psicode.org/psi4manual/master/introduction.html#citing-psifour

    -----------------------------------------------------------------------


    Psi4 started on: Sunday, 07 November 2021 05:04AM

    Process ID: 18486
    Host:       compute428.bc4.acrc.priv
    PSIDATADIR: /mnt/storage/home/zw18965/.conda/envs/p4env/share/psi4
    Memory:     500.0 MiB
    Threads:    28
    
  ==> Input File <==

--------------------------------------------------------------------------
memory 120 GB

molecule {
0 1
Cr         0.00000        0.00000        0.00000
Cr         0.00000        0.00000        1.68000
 }

set dynamic_level 1
set basis Def2-TZVPPD

energy("M11-D3BJ")
--------------------------------------------------------------------------

  Memory set to 111.759 GiB by Python driver.

Scratch directory: /tmp/

*** tstart() called on compute428.bc4.acrc.priv
*** at Sun Nov  7 05:04:21 2021

   => Loading Basis Set <=

    Name: DEF2-TZVPPD
    Role: ORBITAL
    Keyword: BASIS
    atoms 1-2 entry CR         line   985 file /mnt/storage/home/zw18965/.conda/envs/p4env/share/psi4/basis/def2-tzvppd.gbs 

   => M11-D3(BJ): Empirical Dispersion <=

    Grimme's -D3 (BJ-damping) Dispersion Correction
    Grimme S.; Ehrlich S.; Goerigk L. (2011), J. Comput. Chem., 32: 1456
    Parametrisation from:    L. Goerigk, J. Phys. Chem. Lett. 6, 3891-3896, 2015

        s6 =       1.000000
        s8 =       2.811200
        a1 =       0.000000
        a2 =      10.138900


         ---------------------------------------------------------
                                   SCF
               by Justin Turney, Rob Parrish, Andy Simmonett
                          and Daniel G. A. Smith
                              RKS Reference
                       28 Threads, 114440 MiB Core
         ---------------------------------------------------------

  ==> Geometry <==

    Molecular point group: d2h
    Full point group: D_inf_h

    Geometry (in Angstrom), charge = 0, multiplicity = 1:

       Center              X                  Y                   Z               Mass       
    ------------   -----------------  -----------------  -----------------  -----------------
         CR           0.000000000000     0.000000000000    -0.840000000000    51.940506230000
         CR           0.000000000000     0.000000000000     0.840000000000    51.940506230000

  Running in d2h symmetry.

  Rotational constants: A = ************  B =      0.22999  C =      0.22999 [cm^-1]
  Rotational constants: A = ************  B =   6894.81239  C =   6894.81239 [MHz]
  Nuclear repulsion =  181.432186515428612

  Charge       = 0
  Multiplicity = 1
  Electrons    = 48
  Nalpha       = 24
  Nbeta        = 24

  ==> Algorithm <==

  SCF Algorithm Type is DF.
  DIIS enabled.
  MOM disabled.
  Fractional occupation disabled.
  Guess Type is SAD.
  Energy threshold   = 1.00e-06
  Density threshold  = 1.00e-06
  Integral threshold = 1.00e-12

  ==> Primary Basis <==

  Basis Set: DEF2-TZVPPD
    Blend: DEF2-TZVPPD
    Number of shells: 38
    Number of basis functions: 134
    Number of Cartesian functions: 166
    Spherical Harmonics?: true
    Max angular momentum: 4

  ==> DFT Potential <==

   => Composite Functional: M11-D3BJ <= 

    M11 Meta-GGA XC Functional
(10.1021/jz201170d)
    R. Peverati and D. G. Truhlar, J. Phys. Chem. Lett., 2, 2810, 2011


    Deriv               =              1
    GGA                 =           TRUE
    Meta                =           TRUE

    Exchange Hybrid     =           TRUE
    MP2 Hybrid          =          FALSE

   => Exchange Functionals <=

    1.0000   XC_HYB_MGGA_X_M11 [omega = 0.2500]

   => Exact (HF) Exchange <=

    0.5720            HF,LR [omega = 0.2500]
    0.4280               HF 

   => Correlation Functionals <=

    1.0000    XC_MGGA_C_M11

   => LibXC Density Thresholds  <==

    XC_MGGA_C_M11:  1.00E-15 
    XC_HYB_MGGA_X_M11:  1.00E-11 

   => Molecular Quadrature <=

    Radial Scheme          =       TREUTLER
    Pruning Scheme         =           NONE
    Nuclear Scheme         =       TREUTLER

    BS radius alpha        =              1
    Pruning alpha          =              1
    Radial Points          =             75
    Spherical Points       =            302
    Total Points           =          43692
    Total Blocks           =            436
    Max Points             =            255
    Max Functions          =            133
    Weights Tolerance      =       1.00E-15

   => Loading Basis Set <=

    Name: (DEF2-TZVPPD AUX)
    Role: JKFIT
    Keyword: DF_BASIS_SCF
    atoms 1-2 entry CR         line  1726 file /mnt/storage/home/zw18965/.conda/envs/p4env/share/psi4/basis/def2-universal-jkfit.gbs 

  ==> Integral Setup <==

  DFHelper Memory: AOs need 0.152 GiB; user supplied 83.479 GiB. Using in-core AOs.

  ==> MemDFJK: Density-Fitted J/K Matrices <==

    J tasked:                   Yes
    K tasked:                   Yes
    wK tasked:                  Yes
    Omega:                2.500E-01
    OpenMP threads:              28
    Memory [MiB]:             85482
    Algorithm:                 Core
    Schwarz Cutoff:           1E-12
    Mask sparsity (%):       0.2896
    Fitting Condition:        1E-10

   => Auxiliary Basis Set <=

  Basis Set: (DEF2-TZVPPD AUX)
    Blend: DEF2-UNIVERSAL-JKFIT
    Number of shells: 116
    Number of basis functions: 528
    Number of Cartesian functions: 754
    Spherical Harmonics?: true
    Max angular momentum: 6

  Cached 100.0% of DFT collocation blocks in 0.340 [GiB].

  Minimum eigenvalue in the overlap matrix is 1.6223487494E-04.
  Reciprocal condition number of the overlap matrix is 3.0882737450E-05.
    Using symmetric orthogonalization.

  ==> Pre-Iterations <==

  SCF Guess: Superposition of Atomic Densities via on-the-fly atomic UHF (no occupation information).

   -------------------------
    Irrep   Nso     Nmo    
   -------------------------
     Ag        27      27 
     B1g        8       8 
     B2g       16      16 
     B3g       16      16 
     Au         8       8 
     B1u       27      27 
     B2u       16      16 
     B3u       16      16 
   -------------------------
    Total     134     134
   -------------------------

  ==> Iterations <==

                           Total Energy        Delta E     RMS |[F,P]|

   @DF-RKS iter SAD: -2087.20636386253091   -2.08721e+03   0.00000e+00 
    Occupation by irrep:
             Ag   B1g   B2g   B3g    Au   B1u   B2u   B3u 
    DOCC [     6,    0,    3,    3,    0,    6,    3,    3 ]

   @DF-RKS iter   1: -2086.61062329466586    5.95741e-01   4.60360e-02 DIIS
    Occupation by irrep:
             Ag   B1g   B2g   B3g    Au   B1u   B2u   B3u 
    DOCC [     7,    1,    2,    2,    0,    6,    3,    3 ]

   @DF-RKS iter   2: -2066.03422792008132    2.05764e+01   9.59088e-02 DIIS
    Occupation by irrep:
             Ag   B1g   B2g   B3g    Au   B1u   B2u   B3u 
    DOCC [     8,    0,    2,    2,    0,    6,    3,    3 ]

   @DF-RKS iter   3: -2087.63653924042046   -2.16023e+01   2.45812e-02 DIIS
    Occupation by irrep:
             Ag   B1g   B2g   B3g    Au   B1u   B2u   B3u 
    DOCC [     8,    1,    2,    2,    0,    5,    3,    3 ]

   @DF-RKS iter   4: -2086.14374179501692    1.49280e+00   3.89954e-02 DIIS
   @DF-RKS iter   5: -2088.11234111275098   -1.96860e+00   1.66589e-02 DIIS
   @DF-RKS iter   6: -2088.29367864610686   -1.81338e-01   1.07587e-02 DIIS
   @DF-RKS iter   7: -2088.44337271789118   -1.49694e-01   2.04214e-03 DIIS
   @DF-RKS iter   8: -2088.45428570570903   -1.09130e-02   1.12179e-03 DIIS
   @DF-RKS iter   9: -2088.45587420296852   -1.58850e-03   2.78913e-04 DIIS
   @DF-RKS iter  10: -2088.45613494348754   -2.60741e-04   6.54226e-05 DIIS
   @DF-RKS iter  11: -2088.45615461723264   -1.96737e-05   4.02425e-05 DIIS
   @DF-RKS iter  12: -2088.45615685378880   -2.23656e-06   8.15142e-06 DIIS
   @DF-RKS iter  13: -2088.45615699592781   -1.42139e-07   2.42042e-06 DIIS
   @DF-RKS iter  14: -2088.45615700718417   -1.12564e-08   5.19915e-07 DIIS
  Energy and wave function converged.


  ==> Post-Iterations <==

   Electrons on quadrature grid:
      Ntotal   =   48.0000121350 ; deviation = 1.213e-05 

    Orbital Energies [Eh]
    ---------------------

    Doubly Occupied:                                                      

       1B1u -216.547488     1Ag  -216.547470     2B1u  -24.942081  
       2Ag   -24.941887     3Ag   -21.282095     3B1u  -21.281917  
       1B3u  -21.280477     1B2u  -21.280477     1B2g  -21.280312  
       1B3g  -21.280311     4Ag    -3.048733     4B1u   -2.976263  
       5Ag    -2.075959     2B3u   -1.974547     2B2u   -1.974546  
       2B2g   -1.929026     2B3g   -1.929026     5B1u   -1.862440  
       3B2u   -0.367542     3B3u   -0.367542     6Ag    -0.352824  
       7Ag    -0.270245     1B1g   -0.270216     8Ag    -0.236599  

    Virtual:                                                              

       6B1u   -0.014341     4B2u    0.009876     4B3u    0.009876  
       9Ag     0.017374     3B2g    0.027969     3B3g    0.027971  
       7B1u    0.035891     8B1u    0.045514     1Au     0.045548  
       4B2g    0.082857     4B3g    0.082857     5B2u    0.085257  
       5B3u    0.085257     9B1u    0.101059    10Ag     0.119219  
      11Ag     0.141988    12Ag     0.144155     2B1g    0.144159  
      10B1u    0.162202     6B3u    0.167775     6B2u    0.167775  
      11B1u    0.171628     2Au     0.171630     5B3g    0.176267  
       5B2g    0.176268    12B1u    0.185279     6B3g    0.267938  
       6B2g    0.267948    13Ag     0.281126    13B1u    0.405740  
       7B3u    0.451199     7B2u    0.451201    14Ag     0.517844  
      15Ag     0.559847     3B1g    0.559860     7B3g    0.565854  
       7B2g    0.565857     8B3u    0.628985     8B2u    0.628986  
      14B1u    0.639759    15B1u    0.645340     3Au     0.645349  
      16Ag     0.666605     8B3g    0.737111     8B2g    0.737112  
      16B1u    0.811616     4B1g    1.467413    17Ag     1.467520  
       9B2u    1.577398     9B3u    1.577398    10B3u    1.609513  
      10B2u    1.609513    18Ag     1.731740     9B3g    1.753639  
       9B2g    1.753639    17B1u    1.757225    19Ag     1.774607  
      11B3u    1.944303    11B2u    1.944304    10B3g    1.986593  
      10B2g    1.986596    18B1u    2.017536     4Au     2.017542  
      11B3g    2.046270    11B2g    2.046271    19B1u    2.073683  
      12B3u    2.150630    12B2u    2.150630     5B1g    2.164958  
      20Ag     2.165137    21Ag     2.250930     5Au     2.301164  
      20B1u    2.301385    21B1u    2.487669    22Ag     2.922679  
      12B2g    3.021941    12B3g    3.021942    22B1u    4.213118  
      13B3u    5.335112    13B2u    5.335113    23Ag     5.394001  
       6B1g    5.421912    24Ag     5.421972    14B3u    5.618295  
      14B2u    5.618295     7B1g    5.702615    25Ag     5.703334  
       6Au     5.719768    23B1u    5.720480    13B2g    5.797327  
      13B3g    5.797327     7Au     6.036252    24B1u    6.036639  
      15B2u    6.274747    15B3u    6.274748     8B1g    6.280320  
      26Ag     6.280840    25B1u    6.280983    14B2g    6.297518  
      14B3g    6.297518    15B3g    6.339750    15B2g    6.339750  
      16B3u    6.538589    16B2u    6.538589     8Au     6.574640  
      26B1u    6.574827    27B1u    6.905304    27Ag     6.920798  
      16B2g    7.131542    16B3g    7.131543  

    Final Occupation by Irrep:
             Ag   B1g   B2g   B3g    Au   B1u   B2u   B3u 
    DOCC [     8,    1,    2,    2,    0,    5,    3,    3 ]

  @DF-RKS Final Energy: -2088.45615700718417

   => Energetics <=

    Nuclear Repulsion Energy =            181.4321865154286115
    One-Electron Energy =               -3234.5653260844801480
    Two-Electron Energy =                1017.4066303203553616
    DFT Exchange-Correlation Energy =     -52.7284967184879108
    Empirical Dispersion Energy =          -0.0011510400000000
    VV10 Nonlocal Energy =                  0.0000000000000000
    Total Energy =                      -2088.4561570071837195

Computation Completed


Properties will be evaluated at   0.000000,   0.000000,   0.000000 [a0]

Properties computed using the SCF density matrix

  Nuclear Dipole Moment: [e a0]
     X:     0.0000      Y:     0.0000      Z:    -0.0000

  Electronic Dipole Moment: [e a0]
     X:     0.0000      Y:     0.0000      Z:     0.0000

  Dipole Moment: [e a0]
     X:     0.0000      Y:     0.0000      Z:    -0.0000     Total:     0.0000

  Dipole Moment: [D]
     X:     0.0000      Y:     0.0000      Z:    -0.0000     Total:     0.0000


*** tstop() called on compute428.bc4.acrc.priv at Sun Nov  7 05:04:25 2021
Module time:
	user time   =      60.41 seconds =       1.01 minutes
	system time =       3.30 seconds =       0.06 minutes
	total time  =          4 seconds =       0.07 minutes
Total time:
	user time   =      60.41 seconds =       1.01 minutes
	system time =       3.30 seconds =       0.06 minutes
	total time  =          4 seconds =       0.07 minutes

    Psi4 stopped on: Sunday, 07 November 2021 05:04AM
    Psi4 wall time for execution: 0:00:04.60

*** Psi4 exiting successfully. Buy a developer a beer!
