
    -----------------------------------------------------------------------
          Psi4: An Open-Source Ab Initio Electronic Structure Package
                               Psi4 1.4.1 release

                         Git: Rev {HEAD} cd00f19 


    D. G. A. Smith, L. A. Burns, A. C. Simmonett, R. M. Parrish,
    M. C. Schieber, R. Galvelis, P. Kraus, H. Kruse, R. Di Remigio,
    A. Alenaizan, A. M. James, S. Lehtola, J. P. Misiewicz, M. Scheurer,
    R. A. Shaw, J. B. Schriber, Y. Xie, Z. L. Glick, D. A. Sirianni,
    J. S. O'Brien, J. M. Waldrop, A. Kumar, E. G. Hohenstein,
    B. P. Pritchard, B. R. Brooks, H. F. Schaefer III, A. Yu. Sokolov,
    K. Patkowski, A. E. DePrince III, U. Bozkaya, R. A. King,
    F. A. Evangelista, J. M. Turney, T. D. Crawford, C. D. Sherrill,
    J. Chem. Phys. 152(18) 184108 (2020). https://doi.org/10.1063/5.0006002

                            Additional Code Authors
    E. T. Seidl, C. L. Janssen, E. F. Valeev, M. L. Leininger,
    J. F. Gonthier, R. M. Richard, H. R. McAlexander, M. Saitow, X. Wang,
    P. Verma, and M. H. Lechner

             Previous Authors, Complete List of Code Contributors,
                       and Citations for Specific Modules
    https://github.com/psi4/psi4/blob/master/codemeta.json
    https://github.com/psi4/psi4/graphs/contributors
    http://psicode.org/psi4manual/master/introduction.html#citing-psifour

    -----------------------------------------------------------------------


    Psi4 started on: Sunday, 07 November 2021 05:04AM

    Process ID: 17340
    Host:       compute139.bc4.acrc.priv
    PSIDATADIR: /mnt/storage/home/zw18965/.conda/envs/p4env/share/psi4
    Memory:     500.0 MiB
    Threads:    28
    
  ==> Input File <==

--------------------------------------------------------------------------
memory 120 GB

molecule {
0 5
Fe         0.00000        0.00000        0.00000
 }

set reference uks
set dynamic_level 1
set basis Def2-TZVPPD

energy("M11-D3BJ")
--------------------------------------------------------------------------

  Memory set to 111.759 GiB by Python driver.

Scratch directory: /tmp/

*** tstart() called on compute139.bc4.acrc.priv
*** at Sun Nov  7 05:04:26 2021

   => Loading Basis Set <=

    Name: DEF2-TZVPPD
    Role: ORBITAL
    Keyword: BASIS
    atoms 1 entry FE         line  1107 file /mnt/storage/home/zw18965/.conda/envs/p4env/share/psi4/basis/def2-tzvppd.gbs 

   => M11-D3(BJ): Empirical Dispersion <=

    Grimme's -D3 (BJ-damping) Dispersion Correction
    Grimme S.; Ehrlich S.; Goerigk L. (2011), J. Comput. Chem., 32: 1456
    Parametrisation from:    L. Goerigk, J. Phys. Chem. Lett. 6, 3891-3896, 2015

        s6 =       1.000000
        s8 =       2.811200
        a1 =       0.000000
        a2 =      10.138900


         ---------------------------------------------------------
                                   SCF
               by Justin Turney, Rob Parrish, Andy Simmonett
                          and Daniel G. A. Smith
                              UKS Reference
                       28 Threads, 114440 MiB Core
         ---------------------------------------------------------

  ==> Geometry <==

    Molecular point group: d2h
    Geometry (in Angstrom), charge = 0, multiplicity = 5:

       Center              X                  Y                   Z               Mass       
    ------------   -----------------  -----------------  -----------------  -----------------
         FE           0.000000000000     0.000000000000     0.000000000000    55.934936330000

  Running in d2h symmetry.

  Rotational constants: A = ************  B = ************  C = ************ [cm^-1]
  Rotational constants: A = ************  B = ************  C = ************ [MHz]
  Nuclear repulsion =    0.000000000000000

  Charge       = 0
  Multiplicity = 5
  Electrons    = 26
  Nalpha       = 15
  Nbeta        = 11

  ==> Algorithm <==

  SCF Algorithm Type is DF.
  DIIS enabled.
  MOM disabled.
  Fractional occupation disabled.
  Guess Type is CORE.
  Energy threshold   = 1.00e-06
  Density threshold  = 1.00e-06
  Integral threshold = 1.00e-12

  ==> Primary Basis <==

  Basis Set: DEF2-TZVPPD
    Blend: DEF2-TZVPPD
    Number of shells: 19
    Number of basis functions: 67
    Number of Cartesian functions: 83
    Spherical Harmonics?: true
    Max angular momentum: 4

  ==> DFT Potential <==

   => Composite Functional: M11-D3BJ <= 

    M11 Meta-GGA XC Functional
(10.1021/jz201170d)
    R. Peverati and D. G. Truhlar, J. Phys. Chem. Lett., 2, 2810, 2011


    Deriv               =              1
    GGA                 =           TRUE
    Meta                =           TRUE

    Exchange Hybrid     =           TRUE
    MP2 Hybrid          =          FALSE

   => Exchange Functionals <=

    1.0000   XC_HYB_MGGA_X_M11 [omega = 0.2500]

   => Exact (HF) Exchange <=

    0.5720            HF,LR [omega = 0.2500]
    0.4280               HF 

   => Correlation Functionals <=

    1.0000    XC_MGGA_C_M11

   => LibXC Density Thresholds  <==

    XC_MGGA_C_M11:  1.00E-15 
    XC_HYB_MGGA_X_M11:  1.00E-11 

   => Molecular Quadrature <=

    Radial Scheme          =       TREUTLER
    Pruning Scheme         =           NONE
    Nuclear Scheme         =       TREUTLER

    BS radius alpha        =              1
    Pruning alpha          =              1
    Radial Points          =             75
    Spherical Points       =            302
    Total Points           =          21436
    Total Blocks           =            240
    Max Points             =            251
    Max Functions          =             67
    Weights Tolerance      =       1.00E-15

   => Loading Basis Set <=

    Name: (DEF2-TZVPPD AUX)
    Role: JKFIT
    Keyword: DF_BASIS_SCF
    atoms 1 entry FE         line  1978 file /mnt/storage/home/zw18965/.conda/envs/p4env/share/psi4/basis/def2-universal-jkfit.gbs 

  ==> Integral Setup <==

  DFHelper Memory: AOs need 0.020 GiB; user supplied 83.733 GiB. Using in-core AOs.

  ==> MemDFJK: Density-Fitted J/K Matrices <==

    J tasked:                   Yes
    K tasked:                   Yes
    wK tasked:                  Yes
    Omega:                2.500E-01
    OpenMP threads:              28
    Memory [MiB]:             85742
    Algorithm:                 Core
    Schwarz Cutoff:           1E-12
    Mask sparsity (%):       0.0000
    Fitting Condition:        1E-10

   => Auxiliary Basis Set <=

  Basis Set: (DEF2-TZVPPD AUX)
    Blend: DEF2-UNIVERSAL-JKFIT
    Number of shells: 58
    Number of basis functions: 264
    Number of Cartesian functions: 377
    Spherical Harmonics?: true
    Max angular momentum: 6

  Cached 100.0% of DFT collocation blocks in 0.086 [GiB].

  Minimum eigenvalue in the overlap matrix is 4.1586385748E-02.
  Reciprocal condition number of the overlap matrix is 1.4907262299E-02.
    Using symmetric orthogonalization.

  ==> Pre-Iterations <==

  SCF Guess: Core (One-Electron) Hamiltonian.

   -------------------------------------------------------
    Irrep   Nso     Nmo     Nalpha   Nbeta   Ndocc  Nsocc
   -------------------------------------------------------
     Ag        17      17       5       4       4       1
     B1g        6       6       1       1       1       0
     B2g        6       6       1       0       0       1
     B3g        6       6       1       0       0       1
     Au         2       2       0       0       0       0
     B1u       10      10       2       2       2       0
     B2u       10      10       2       2       2       0
     B3u       10      10       3       2       2       1
   -------------------------------------------------------
    Total      67      67      15      11      11       4
   -------------------------------------------------------

  ==> Iterations <==

                           Total Energy        Delta E     RMS |[F,P]|

    Occupation by irrep:
             Ag   B1g   B2g   B3g    Au   B1u   B2u   B3u 
    DOCC [     4,    0,    0,    0,    0,    2,    3,    2 ]
    SOCC [     1,    0,    0,    1,    0,    1,    0,    1 ]

   @DF-UKS iter   1: -1225.61780927942732   -1.22562e+03   3.37104e-01 DIIS
    Occupation by irrep:
             Ag   B1g   B2g   B3g    Au   B1u   B2u   B3u 
    DOCC [     4,    1,    0,    0,    0,    2,    2,    2 ]
    SOCC [     2,    0,    1,    1,    0,    0,    0,    0 ]

   @DF-UKS iter   2: -1193.06874771659750    3.25491e+01   3.72015e-01 DIIS
   @DF-UKS iter   3: -1261.41642976848061   -6.83477e+01   1.09388e-01 DIIS
   @DF-UKS iter   4: -1263.49200743314259   -2.07558e+00   8.06315e-03 DIIS
   @DF-UKS iter   5: -1263.49601017548480   -4.00274e-03   1.34621e-02 DIIS
   @DF-UKS iter   6: -1263.51406015781004   -1.80500e-02   6.99298e-03 DIIS
   @DF-UKS iter   7: -1263.52175790798128   -7.69775e-03   5.22232e-04 DIIS
   @DF-UKS iter   8: -1263.52195663285283   -1.98725e-04   2.62762e-04 DIIS
   @DF-UKS iter   9: -1263.52214422821066   -1.87595e-04   1.56951e-04 DIIS
   @DF-UKS iter  10: -1263.52225806127467   -1.13833e-04   1.24850e-04 DIIS
   @DF-UKS iter  11: -1263.52242717825425   -1.69117e-04   3.91553e-05 DIIS
   @DF-UKS iter  12: -1263.52243726881443   -1.00906e-05   1.17646e-05 DIIS
   @DF-UKS iter  13: -1263.52243826852896   -9.99715e-07   3.96830e-06 DIIS
   @DF-UKS iter  14: -1263.52243830318548   -3.46565e-08   2.19387e-06 DIIS
   @DF-UKS iter  15: -1263.52243831870555   -1.55201e-08   1.89131e-06 DIIS
   @DF-UKS iter  16: -1263.52243833472176   -1.60162e-08   1.88317e-06 DIIS
   @DF-UKS iter  17: -1263.52243843361430   -9.88925e-08   1.80387e-06 DIIS
   @DF-UKS iter  18: -1263.52243915768190   -7.24068e-07   3.34344e-06 DIIS
   @DF-UKS iter  19: -1263.52243896505888    1.92623e-07   2.81393e-06 DIIS
   @DF-UKS iter  20: -1263.52243927980317   -3.14744e-07   4.41790e-06 DIIS
   @DF-UKS iter  21: -1263.52243929089809   -1.10949e-08   1.03192e-06 DIIS
   @DF-UKS iter  22: -1263.52243929107362   -1.75532e-10   4.77346e-07 DIIS
  Energy and wave function converged.


  ==> Post-Iterations <==

   Electrons on quadrature grid:
      Nalpha   =   15.0000001656 ; deviation = 1.656e-07
      Nbeta    =   11.0000001655 ; deviation = 1.655e-07
      Ntotal   =   26.0000003311 ; deviation = 3.311e-07 

   @Spin Contamination Metric:   3.836485579E-03
   @S^2 Expected:                6.000000000E+00
   @S^2 Observed:                6.003836486E+00
   @S   Expected:                2.000000000E+00
   @S   Observed:                2.000000000E+00

    Orbital Energies [Eh]
    ---------------------

    Alpha Occupied:                                                       

       1Ag  -256.823195     2Ag   -30.164132     1B1u  -26.074394  
       1B3u  -26.074314     1B2u  -26.074313     3Ag    -3.542036  
       2B1u   -2.337374     2B3u   -2.337315     2B2u   -2.337315  
       4Ag    -0.361899     1B2g   -0.361891     1B3g   -0.361891  
       5Ag    -0.341481     1B1g   -0.341441     6Ag    -0.233908  

    Alpha Virtual:                                                        

       3B3u    0.030639     3B2u    0.030639     3B1u    0.030863  
       4B3u    0.149460     4B2u    0.149460     4B1u    0.149521  
       7Ag     0.188034     8Ag     0.245733     2B2g    0.245892  
       2B3g    0.245892     2B1g    0.252168     9Ag     0.252335  
       5B1u    0.630559     5B3u    0.630572     5B2u    0.630572  
      10Ag     1.003194     3B2g    1.003393     3B3g    1.003393  
      11Ag     1.013087     3B1g    1.013205     6B1u    2.473668  
       1Au     2.484107     6B3u    2.484138     6B2u    2.484138  
       7B2u    2.485860     7B3u    2.485860     7B1u    2.486125  
       8B3u    2.510872     8B2u    2.510872     8B1u    2.511092  
      12Ag     2.651010    13Ag     3.605738     4B2g    3.605772  
       4B3g    3.605772     4B1g    3.624712    14Ag     3.625046  
       5B2g    8.580176     5B3g    8.580176    15Ag     8.580228  
      16Ag     8.613983     5B1g    8.614064     6B1g    8.626876  
       6B3g    8.627164     6B2g    8.627164    17Ag     8.644318  
       9B1u    9.289058     2Au     9.321057     9B3u    9.321059  
       9B2u    9.321059    10B1u    9.332688    10B2u    9.332830  
      10B3u    9.332830  

    Beta Occupied:                                                        

       1Ag  -256.823538     2Ag   -30.106051     1B1u  -26.027309  
       1B3u  -26.027254     1B2u  -26.027254     3Ag    -3.440549  
       2B3u   -2.203413     2B2u   -2.203413     2B1u   -2.203294  
       1B1g   -0.269876     4Ag    -0.269824  

    Beta Virtual:                                                         

       3B3u   -0.033072     3B2u   -0.033072     3B1u   -0.031845  
       5Ag    -0.016673     6Ag     0.154126     1B2g    0.154223  
       1B3g    0.154223     4B1u    0.163076     4B3u    0.163120  
       4B2u    0.163120     7Ag     0.197369     2B1g    0.246925  
       8Ag     0.247288     9Ag     0.284859     2B2g    0.284980  
       2B3g    0.284980     5B1u    0.652560     5B3u    0.652829  
       5B2u    0.652829    10Ag     1.035375     3B1g    1.035828  
      11Ag     1.078632     3B2g    1.078889     3B3g    1.078889  
       6B3u    2.540771     6B2u    2.540771     6B1u    2.541416  
       1Au     2.564820     7B2u    2.564841     7B3u    2.564841  
       7B1u    2.575712     8B3u    2.575756     8B2u    2.575756  
       8B1u    2.597344    12Ag     2.741659     4B1g    3.675846  
      13Ag     3.676211     4B2g    3.719900     4B3g    3.719900  
      14Ag     3.719951    15Ag     8.689238    16Ag     8.711202  
       5B1g    8.711500     6B1g    8.727294     5B2g    8.727312  
       5B3g    8.727312    17Ag     8.749416     6B3g    8.749668  
       6B2g    8.749668     9B1u    9.403084     9B3u    9.403101  
       9B2u    9.403101    10B1u    9.470071     2Au     9.499465  
      10B3u    9.499499    10B2u    9.499499  

    Final Occupation by Irrep:
             Ag   B1g   B2g   B3g    Au   B1u   B2u   B3u 
    DOCC [     4,    1,    0,    0,    0,    2,    2,    2 ]
    SOCC [     2,    0,    1,    1,    0,    0,    0,    0 ]

  @DF-UKS Final Energy: -1263.52243929107362

   => Energetics <=

    Nuclear Repulsion Energy =              0.0000000000000000
    One-Electron Energy =               -1748.1224257359331204
    Two-Electron Energy =                 514.8621604816075887
    DFT Exchange-Correlation Energy =     -30.2621740367480108
    Empirical Dispersion Energy =           0.0000000000000000
    VV10 Nonlocal Energy =                  0.0000000000000000
    Total Energy =                      -1263.5224392910736242

  UHF NO Occupations:
  HONO-2 :    1B3g 1.0000000
  HONO-1 :    5 Ag 1.0000000
  HONO-0 :    6 Ag 1.0000000
  LUNO+0 :    7 Ag 0.0009023
  LUNO+1 :    2B1g 0.0008821
  LUNO+2 :    3B3u 0.0000423
  LUNO+3 :    3B2u 0.0000423


Computation Completed


Properties will be evaluated at   0.000000,   0.000000,   0.000000 [a0]

Properties computed using the SCF density matrix

  Nuclear Dipole Moment: [e a0]
     X:     0.0000      Y:     0.0000      Z:     0.0000

  Electronic Dipole Moment: [e a0]
     X:     0.0000      Y:     0.0000      Z:     0.0000

  Dipole Moment: [e a0]
     X:     0.0000      Y:     0.0000      Z:     0.0000     Total:     0.0000

  Dipole Moment: [D]
     X:     0.0000      Y:     0.0000      Z:     0.0000     Total:     0.0000


*** tstop() called on compute139.bc4.acrc.priv at Sun Nov  7 05:04:33 2021
Module time:
	user time   =     126.88 seconds =       2.11 minutes
	system time =       5.21 seconds =       0.09 minutes
	total time  =          7 seconds =       0.12 minutes
Total time:
	user time   =     126.88 seconds =       2.11 minutes
	system time =       5.21 seconds =       0.09 minutes
	total time  =          7 seconds =       0.12 minutes

    Psi4 stopped on: Sunday, 07 November 2021 05:04AM
    Psi4 wall time for execution: 0:00:06.94

*** Psi4 exiting successfully. Buy a developer a beer!
