
    -----------------------------------------------------------------------
          Psi4: An Open-Source Ab Initio Electronic Structure Package
                               Psi4 1.4.1 release

                         Git: Rev {HEAD} cd00f19 


    D. G. A. Smith, L. A. Burns, A. C. Simmonett, R. M. Parrish,
    M. C. Schieber, R. Galvelis, P. Kraus, H. Kruse, R. Di Remigio,
    A. Alenaizan, A. M. James, S. Lehtola, J. P. Misiewicz, M. Scheurer,
    R. A. Shaw, J. B. Schriber, Y. Xie, Z. L. Glick, D. A. Sirianni,
    J. S. O'Brien, J. M. Waldrop, A. Kumar, E. G. Hohenstein,
    B. P. Pritchard, B. R. Brooks, H. F. Schaefer III, A. Yu. Sokolov,
    K. Patkowski, A. E. DePrince III, U. Bozkaya, R. A. King,
    F. A. Evangelista, J. M. Turney, T. D. Crawford, C. D. Sherrill,
    J. Chem. Phys. 152(18) 184108 (2020). https://doi.org/10.1063/5.0006002

                            Additional Code Authors
    E. T. Seidl, C. L. Janssen, E. F. Valeev, M. L. Leininger,
    J. F. Gonthier, R. M. Richard, H. R. McAlexander, M. Saitow, X. Wang,
    P. Verma, and M. H. Lechner

             Previous Authors, Complete List of Code Contributors,
                       and Citations for Specific Modules
    https://github.com/psi4/psi4/blob/master/codemeta.json
    https://github.com/psi4/psi4/graphs/contributors
    http://psicode.org/psi4manual/master/introduction.html#citing-psifour

    -----------------------------------------------------------------------


    Psi4 started on: Sunday, 07 November 2021 05:04AM

    Process ID: 12010
    Host:       compute350.bc4.acrc.priv
    PSIDATADIR: /mnt/storage/home/zw18965/.conda/envs/p4env/share/psi4
    Memory:     500.0 MiB
    Threads:    28
    
  ==> Input File <==

--------------------------------------------------------------------------
memory 120 GB

molecule {
0 1
Fe        -0.20173       -0.07205       -0.00000
C          1.72826       -0.07205        0.00000
O          2.84367       -0.07205        0.00000
C         -0.20170       -0.07205       -1.93000
O         -0.20173       -0.07205       -3.04540
C         -0.20170       -0.07205        1.93000
O         -0.20173       -0.07205        3.04540
C         -1.16675       -1.74347        0.00000
O         -1.72443       -2.70944        0.00000
C         -1.16675        1.59938        0.00000
O         -1.72443        2.56535        0.00000
 }

set dynamic_level 1
set basis Def2-TZVPPD

energy("M11-D3BJ")
--------------------------------------------------------------------------

  Memory set to 111.759 GiB by Python driver.

Scratch directory: /tmp/

*** tstart() called on compute350.bc4.acrc.priv
*** at Sun Nov  7 05:04:21 2021

   => Loading Basis Set <=

    Name: DEF2-TZVPPD
    Role: ORBITAL
    Keyword: BASIS
    atoms 1              entry FE         line  1107 file /mnt/storage/home/zw18965/.conda/envs/p4env/share/psi4/basis/def2-tzvppd.gbs 
    atoms 2, 4, 6, 8, 10 entry C          line   144 file /mnt/storage/home/zw18965/.conda/envs/p4env/share/psi4/basis/def2-tzvppd.gbs 
    atoms 3, 5, 7, 9, 11 entry O          line   218 file /mnt/storage/home/zw18965/.conda/envs/p4env/share/psi4/basis/def2-tzvppd.gbs 

   => M11-D3(BJ): Empirical Dispersion <=

    Grimme's -D3 (BJ-damping) Dispersion Correction
    Grimme S.; Ehrlich S.; Goerigk L. (2011), J. Comput. Chem., 32: 1456
    Parametrisation from:    L. Goerigk, J. Phys. Chem. Lett. 6, 3891-3896, 2015

        s6 =       1.000000
        s8 =       2.811200
        a1 =       0.000000
        a2 =      10.138900


         ---------------------------------------------------------
                                   SCF
               by Justin Turney, Rob Parrish, Andy Simmonett
                          and Daniel G. A. Smith
                              RKS Reference
                       28 Threads, 114440 MiB Core
         ---------------------------------------------------------

  ==> Geometry <==

    Molecular point group: cs
    Full point group: Cs

    Geometry (in Angstrom), charge = 0, multiplicity = 1:

       Center              X                  Y                   Z               Mass       
    ------------   -----------------  -----------------  -----------------  -----------------
         FE          -0.000000612528    -0.000001428972     0.000000000000    55.934936330000
         C            1.929989387472    -0.000001428972     0.000000000000    12.000000000000
         O            3.045399387472    -0.000001428972     0.000000000000    15.994914619570
         C            0.000029387472    -0.000001428972    -1.930000000000    12.000000000000
         O           -0.000000612528    -0.000001428972    -3.045400000000    15.994914619570
         C            0.000029387472    -0.000001428972     1.930000000000    12.000000000000
         O           -0.000000612528    -0.000001428972     3.045400000000    15.994914619570
         C           -0.965020612528    -1.671421428972     0.000000000000    12.000000000000
         O           -1.522700612528    -2.637391428972     0.000000000000    15.994914619570
         C           -0.965020612528     1.671428571028     0.000000000000    12.000000000000
         O           -1.522700612528     2.637398571028     0.000000000000    15.994914619570

  Running in cs symmetry.

  Rotational constants: A =      0.02911  B =      0.02495  C =      0.02495 [cm^-1]
  Rotational constants: A =    872.65301  B =    747.98907  C =    747.98804 [MHz]
  Nuclear repulsion =  774.181580031195608

  Charge       = 0
  Multiplicity = 1
  Electrons    = 96
  Nalpha       = 48
  Nbeta        = 48

  ==> Algorithm <==

  SCF Algorithm Type is DF.
  DIIS enabled.
  MOM disabled.
  Fractional occupation disabled.
  Guess Type is SAD.
  Energy threshold   = 1.00e-06
  Density threshold  = 1.00e-06
  Integral threshold = 1.00e-12

  ==> Primary Basis <==

  Basis Set: DEF2-TZVPPD
    Blend: DEF2-TZVPPD
    Number of shells: 154
    Number of basis functions: 452
    Number of Cartesian functions: 528
    Spherical Harmonics?: true
    Max angular momentum: 4

  ==> DFT Potential <==

   => Composite Functional: M11-D3BJ <= 

    M11 Meta-GGA XC Functional
(10.1021/jz201170d)
    R. Peverati and D. G. Truhlar, J. Phys. Chem. Lett., 2, 2810, 2011


    Deriv               =              1
    GGA                 =           TRUE
    Meta                =           TRUE

    Exchange Hybrid     =           TRUE
    MP2 Hybrid          =          FALSE

   => Exchange Functionals <=

    1.0000   XC_HYB_MGGA_X_M11 [omega = 0.2500]

   => Exact (HF) Exchange <=

    0.5720            HF,LR [omega = 0.2500]
    0.4280               HF 

   => Correlation Functionals <=

    1.0000    XC_MGGA_C_M11

   => LibXC Density Thresholds  <==

    XC_MGGA_C_M11:  1.00E-15 
    XC_HYB_MGGA_X_M11:  1.00E-11 

   => Molecular Quadrature <=

    Radial Scheme          =       TREUTLER
    Pruning Scheme         =           NONE
    Nuclear Scheme         =       TREUTLER

    BS radius alpha        =              1
    Pruning alpha          =              1
    Radial Points          =             75
    Spherical Points       =            302
    Total Points           =         236051
    Total Blocks           =           1857
    Max Points             =            256
    Max Functions          =            385
    Weights Tolerance      =       1.00E-15

   => Loading Basis Set <=

    Name: (DEF2-TZVPPD AUX)
    Role: JKFIT
    Keyword: DF_BASIS_SCF
    atoms 1              entry FE         line  1978 file /mnt/storage/home/zw18965/.conda/envs/p4env/share/psi4/basis/def2-universal-jkfit.gbs 
    atoms 2, 4, 6, 8, 10 entry C          line   198 file /mnt/storage/home/zw18965/.conda/envs/p4env/share/psi4/basis/def2-universal-jkfit.gbs 
    atoms 3, 5, 7, 9, 11 entry O          line   318 file /mnt/storage/home/zw18965/.conda/envs/p4env/share/psi4/basis/def2-universal-jkfit.gbs 

  ==> Integral Setup <==

  DFHelper Memory: AOs need 2.918 GiB; user supplied 78.924 GiB. Using in-core AOs.

  ==> MemDFJK: Density-Fitted J/K Matrices <==

    J tasked:                   Yes
    K tasked:                   Yes
    wK tasked:                  Yes
    Omega:                2.500E-01
    OpenMP threads:              28
    Memory [MiB]:             80818
    Algorithm:                 Core
    Schwarz Cutoff:           1E-12
    Mask sparsity (%):       9.9058
    Fitting Condition:        1E-10

   => Auxiliary Basis Set <=

  Basis Set: (DEF2-TZVPPD AUX)
    Blend: DEF2-UNIVERSAL-JKFIT
    Number of shells: 308
    Number of basis functions: 1024
    Number of Cartesian functions: 1287
    Spherical Harmonics?: true
    Max angular momentum: 6

  Cached 100.0% of DFT collocation blocks in 4.895 [GiB].

  Minimum eigenvalue in the overlap matrix is 5.1739541000E-06.
  Reciprocal condition number of the overlap matrix is 4.4010605148E-07.
    Using symmetric orthogonalization.

  ==> Pre-Iterations <==

  SCF Guess: Superposition of Atomic Densities via on-the-fly atomic UHF (no occupation information).

   -------------------------
    Irrep   Nso     Nmo    
   -------------------------
     A'       276     276 
     A"       176     176 
   -------------------------
    Total     452     452
   -------------------------

  ==> Iterations <==

                           Total Energy        Delta E     RMS |[F,P]|

   @DF-RKS iter SAD: -1827.77147886001876   -1.82777e+03   0.00000e+00 
   @DF-RKS iter   1: -1823.67572915338701    4.09575e+00   1.56721e-02 DIIS
   @DF-RKS iter   2: -1749.65567356796646    7.40201e+01   2.57841e-02 DIIS
   @DF-RKS iter   3: -1817.82246364811272   -6.81668e+01   1.93261e-02 DIIS
   @DF-RKS iter   4: -1821.42108288276813   -3.59862e+00   1.72375e-02 DIIS
   @DF-RKS iter   5: -1824.04438190546716   -2.62330e+00   1.50797e-02 DIIS
   @DF-RKS iter   6: -1823.87331048307283    1.71071e-01   1.57462e-02 DIIS
   @DF-RKS iter   7: -1822.98920314063798    8.84107e-01   1.68957e-02 DIIS
   @DF-RKS iter   8: -1823.59995057410515   -6.10747e-01   1.64906e-02 DIIS
   @DF-RKS iter   9: -1824.13660978221151   -5.36659e-01   1.58554e-02 DIIS
   @DF-RKS iter  10: -1828.53859226453869   -4.40198e+00   8.61561e-03 DIIS
   @DF-RKS iter  11: -1830.18586566505337   -1.64727e+00   1.90158e-03 DIIS
   @DF-RKS iter  12: -1830.23873434521875   -5.28687e-02   1.69559e-03 DIIS
   @DF-RKS iter  13: -1830.30115206550067   -6.24177e-02   4.79589e-04 DIIS
   @DF-RKS iter  14: -1830.30617118554483   -5.01912e-03   2.18488e-04 DIIS
   @DF-RKS iter  15: -1830.30772744361320   -1.55626e-03   3.40227e-05 DIIS
   @DF-RKS iter  16: -1830.30779855353762   -7.11099e-05   2.31029e-05 DIIS
   @DF-RKS iter  17: -1830.30782813484780   -2.95813e-05   9.48427e-06 DIIS
   @DF-RKS iter  18: -1830.30783973535313   -1.16005e-05   1.05742e-05 DIIS
   @DF-RKS iter  19: -1830.30784485819959   -5.12285e-06   1.27229e-06 DIIS
   @DF-RKS iter  20: -1830.30784500864775   -1.50448e-07   9.22245e-07 DIIS
  Energy and wave function converged.


  ==> Post-Iterations <==

   Electrons on quadrature grid:
      Ntotal   =   96.0000427705 ; deviation = 4.277e-05 

    Orbital Energies [Eh]
    ---------------------

    Doubly Occupied:                                                      

       1Ap  -256.947098     2Ap   -30.292436     1App  -26.218327  
       3Ap   -26.198727     4Ap   -26.198727     2App  -19.555292  
       5Ap   -19.555281     6Ap   -19.540811     7Ap   -19.540791  
       8Ap   -19.540767     9Ap   -10.574539     3App  -10.574518  
      10Ap   -10.562450    11Ap   -10.562393    12Ap   -10.562338  
      13Ap    -3.598883     4App   -2.404572    14Ap    -2.362507  
      15Ap    -2.362497    16Ap    -1.322049     5App   -1.321971  
      17Ap    -1.308646    18Ap    -1.308556    19Ap    -1.308515  
      20Ap    -0.740828     6App   -0.718587    21Ap    -0.705806  
      22Ap    -0.705797    23Ap    -0.705778    24Ap    -0.642413  
       7App   -0.630059     8App   -0.630056    25Ap    -0.624826  
      26Ap    -0.624825     9App   -0.618925    27Ap    -0.610599  
      28Ap    -0.610585    29Ap    -0.605606    10App   -0.604998  
      11App   -0.604978    30Ap    -0.556976    31Ap    -0.556956  
      12App   -0.553290    32Ap    -0.543727    13App   -0.384159  
      14App   -0.384142    33Ap    -0.327539    34Ap    -0.327530  

    Virtual:                                                              

      35Ap    -0.002747    15App    0.009923    36Ap     0.014927  
      37Ap     0.014988    38Ap     0.033039    39Ap     0.036960  
      40Ap     0.036982    16App    0.039898    17App    0.039901  
      18App    0.049803    19App    0.049810    41Ap     0.054407  
      42Ap     0.054414    20App    0.058830    21App    0.062607  
      43Ap     0.066456    44Ap     0.075312    45Ap     0.075320  
      46Ap     0.075545    47Ap     0.076456    48Ap     0.076504  
      49Ap     0.082433    50Ap     0.087901    22App    0.094407  
      23App    0.094412    24App    0.118785    25App    0.118799  
      51Ap     0.118875    52Ap     0.121344    53Ap     0.121473  
      26App    0.128882    54Ap     0.149243    55Ap     0.149527  
      27App    0.151729    56Ap     0.199214    28App    0.206346  
      29App    0.206350    57Ap     0.220749    58Ap     0.231988  
      59Ap     0.232674    60Ap     0.242642    61Ap     0.264666  
      62Ap     0.265300    30App    0.268795    31App    0.280925  
      32App    0.280928    63Ap     0.281505    64Ap     0.281564  
      33App    0.293440    65Ap     0.302153    34App    0.313424  
      66Ap     0.326515    67Ap     0.327606    68Ap     0.328980  
      69Ap     0.339893    70Ap     0.345920    71Ap     0.345963  
      35App    0.359881    36App    0.359899    37App    0.383847  
      38App    0.394734    39App    0.394744    72Ap     0.396117  
      73Ap     0.396138    74Ap     0.407414    75Ap     0.420040  
      76Ap     0.430202    77Ap     0.430219    40App    0.445666  
      41App    0.492910    42App    0.492942    78Ap     0.506979  
      79Ap     0.509218    80Ap     0.509807    43App    0.512817  
      44App    0.512822    45App    0.537306    81Ap     0.549779  
      82Ap     0.550275    83Ap     0.551000    84Ap     0.560305  
      46App    0.567698    47App    0.567721    85Ap     0.568469  
      86Ap     0.571458    87Ap     0.577294    88Ap     0.586115  
      89Ap     0.586157    48App    0.609102    90Ap     0.612151  
      91Ap     0.612183    92Ap     0.614994    49App    0.623963  
      50App    0.628893    51App    0.628932    52App    0.651887  
      93Ap     0.657253    94Ap     0.659627    53App    0.665508  
      54App    0.665525    95Ap     0.674599    55App    0.674847  
      96Ap     0.676347    97Ap     0.677183    98Ap     0.690215  
      99Ap     0.691446   100Ap     0.698334   101Ap     0.705727  
      56App    0.729802    57App    0.729821   102Ap     0.732888  
     103Ap     0.732924    58App    0.747023    59App    0.751022  
      60App    0.751103   104Ap     0.770194   105Ap     0.783631  
     106Ap     0.784171    61App    0.818502   107Ap     0.842039  
     108Ap     0.879303    62App    0.883533   109Ap     0.884802  
     110Ap     0.884943   111Ap     0.888694   112Ap     0.898950  
     113Ap     0.900590    63App    0.907656    64App    0.910179  
      65App    0.910202   114Ap     0.934748   115Ap     0.934882  
     116Ap     0.939740    66App    0.964411    67App    0.964453  
     117Ap     0.968327    68App    0.970651    69App    0.970686  
      70App    0.982304    71App    0.982359    72App    1.003452  
     118Ap     1.006515   119Ap     1.007001   120Ap     1.049525  
     121Ap     1.054954   122Ap     1.055783   123Ap     1.093282  
      73App    1.104673    74App    1.132473    75App    1.132521  
     124Ap     1.132916   125Ap     1.138371   126Ap     1.148243  
     127Ap     1.150447   128Ap     1.178049   129Ap     1.249747  
     130Ap     1.283542   131Ap     1.289482    76App    1.296115  
      77App    1.296267   132Ap     1.317696    78App    1.318523  
     133Ap     1.319499   134Ap     1.321837    79App    1.382066  
     135Ap     1.387742   136Ap     1.387875   137Ap     1.557658  
      80App    1.567433    81App    1.567447   138Ap     1.597952  
     139Ap     1.597965   140Ap     1.742271   141Ap     1.760608  
      82App    1.761767    83App    1.773993    84App    1.774053  
     142Ap     1.785689   143Ap     1.786246    85App    1.804427  
      86App    1.804447   144Ap     1.818905   145Ap     1.820053  
     146Ap     1.820724   147Ap     1.826805   148Ap     1.826903  
      87App    1.830940    88App    1.848366    89App    1.848392  
      90App    1.853353    91App    1.867602    92App    1.867680  
     149Ap     1.875479   150Ap     1.875974   151Ap     1.883225  
     152Ap     1.896476    93App    1.907107   153Ap     1.919107  
     154Ap     1.919469   155Ap     1.976654   156Ap     1.982088  
     157Ap     1.982833   158Ap     2.076109    94App    2.076676  
     159Ap     2.120804   160Ap     2.188335   161Ap     2.188486  
      95App    2.194858    96App    2.194893    97App    2.296046  
      98App    2.296074    99App    2.332899   162Ap     2.339885  
     163Ap     2.339913   100App    2.435733   164Ap     2.459547  
     165Ap     2.468492   166Ap     2.484730   167Ap     2.485292  
     168Ap     2.553216   169Ap     2.553977   101App    2.638488  
     102App    2.638638   170Ap     2.681678   103App    2.722391  
     171Ap     2.728578   172Ap     2.754609   104App    2.761478  
     105App    2.761761   106App    2.769554   173Ap     2.770906  
     174Ap     2.771076   175Ap     2.790165   107App    2.815860  
     176Ap     2.878667   177Ap     2.896979   178Ap     2.897317  
     108App    2.906790   109App    2.907709   110App    2.914191  
     111App    2.930214   179Ap     2.931532   180Ap     2.932342  
     112App    2.962023   113App    2.962764   181Ap     2.982221  
     182Ap     2.992948   183Ap     2.994413   184Ap     3.021144  
     114App    3.043508   115App    3.043652   185Ap     3.064202  
     186Ap     3.064359   116App    3.065731   117App    3.066568  
     187Ap     3.095232   188Ap     3.095482   118App    3.099223  
     119App    3.131065   120App    3.187540   121App    3.188621  
     189Ap     3.192098   190Ap     3.192867   122App    3.217930  
     123App    3.218634   191Ap     3.248697   192Ap     3.248804  
     124App    3.264515   125App    3.264868   193Ap     3.274173  
     194Ap     3.282227   195Ap     3.292778   196Ap     3.309160  
     197Ap     3.309554   126App    3.312256   198Ap     3.365938  
     199Ap     3.388571   200Ap     3.389076   201Ap     3.422300  
     202Ap     3.437893   203Ap     3.438100   127App    3.438968  
     128App    3.440750   129App    3.441850   204Ap     3.481454  
     130App    3.508892   205Ap     3.566947   206Ap     3.567006  
     207Ap     3.642490   208Ap     3.643149   131App    3.699023  
     132App    3.730674   133App    3.730792   209Ap     3.775302  
     210Ap     3.834682   211Ap     3.834912   212Ap     3.841520  
     134App    3.873647   213Ap     3.942351   214Ap     3.942447  
     135App    3.989350   136App    3.989579   215Ap     3.990254  
     137App    4.081097   138App    4.081208   216Ap     4.249490  
     217Ap     4.249654   218Ap     4.258090   219Ap     4.400047  
     139App    4.436342   220Ap     4.488994   221Ap     4.489338  
     222Ap     4.570852   223Ap     4.658178   224Ap     4.815652  
     225Ap     4.815936   140App    4.828484   226Ap     4.949060  
     141App    5.085594   227Ap     5.085820   142App    5.087377  
     228Ap     5.090166   229Ap     5.098036   230Ap     5.099059  
     231Ap     5.099105   143App    5.099212   144App    5.099272  
     145App    5.101606   146App    5.511572   147App    5.511783  
     148App    5.514768   232Ap     5.526089   233Ap     5.526196  
     149App    5.535715   150App    5.535999   234Ap     5.550607  
     235Ap     5.550823   236Ap     5.586593   151App    6.240157  
     152App    6.240244   237Ap     6.286969   153App    6.297634  
     238Ap     6.307305   239Ap     6.307394   154App    6.335493  
     155App    6.335785   240Ap     6.342751   241Ap     6.342872  
     156App    6.347851   242Ap     6.351712   243Ap     6.351726  
     157App    6.358242   158App    6.358370   159App    6.376143  
     160App    6.376321   244Ap     6.378094   245Ap     6.385173  
     246Ap     6.385192   161App    6.660852   247Ap     6.683532  
     248Ap     6.693375   249Ap     6.708877   250Ap     6.709020  
     251Ap     6.746987   252Ap     6.747004   162App    6.758947  
     163App    6.758995   253Ap     6.764646   254Ap     6.793764  
     255Ap     6.793820   164App    6.799447   165App    6.799456  
     166App    6.803865   167App    7.152929   256Ap     7.158560  
     257Ap     7.174817   258Ap     7.177690   259Ap     7.177870  
     168App    8.608626   260Ap     8.649656   261Ap     8.649668  
     169App    8.669666   170App    8.676152   171App    8.676166  
     262Ap     8.781888   263Ap     8.781901   264Ap     8.944797  
     172App    9.424910   173App    9.424934   265Ap     9.562988  
     266Ap     9.726333   267Ap     9.726349   174App    9.915611  
     268Ap     9.916389   175App   22.853181   269Ap    22.887422  
     270Ap    23.253317   271Ap    23.362208   272Ap    23.362299  
     273Ap    43.870473   274Ap    43.982096   275Ap    43.987308  
     276Ap    43.987355   176App   43.988620  

    Final Occupation by Irrep:
             Ap   App 
    DOCC [    34,   14 ]

  @DF-RKS Final Energy: -1830.30784500864775

   => Energetics <=

    Nuclear Repulsion Energy =            774.1815800311956082
    One-Electron Energy =               -4059.3821156898666231
    Two-Electron Energy =                1520.7826616550748895
    DFT Exchange-Correlation Energy =     -65.8874167850514425
    Empirical Dispersion Energy =          -0.0025542200000000
    VV10 Nonlocal Energy =                  0.0000000000000000
    Total Energy =                      -1830.3078450086477460

Computation Completed


Properties will be evaluated at   0.000000,   0.000000,   0.000000 [a0]

Properties computed using the SCF density matrix

  Nuclear Dipole Moment: [e a0]
     X:     0.0000      Y:     0.0000      Z:     0.0000

  Electronic Dipole Moment: [e a0]
     X:    -0.0004      Y:     0.0002      Z:     0.0000

  Dipole Moment: [e a0]
     X:    -0.0003      Y:     0.0002      Z:     0.0000     Total:     0.0004

  Dipole Moment: [D]
     X:    -0.0009      Y:     0.0005      Z:     0.0000     Total:     0.0010


*** tstop() called on compute350.bc4.acrc.priv at Sun Nov  7 05:04:52 2021
Module time:
	user time   =     693.50 seconds =      11.56 minutes
	system time =      30.46 seconds =       0.51 minutes
	total time  =         31 seconds =       0.52 minutes
Total time:
	user time   =     693.50 seconds =      11.56 minutes
	system time =      30.46 seconds =       0.51 minutes
	total time  =         31 seconds =       0.52 minutes

    Psi4 stopped on: Sunday, 07 November 2021 05:04AM
    Psi4 wall time for execution: 0:00:31.28

*** Psi4 exiting successfully. Buy a developer a beer!
