
    -----------------------------------------------------------------------
          Psi4: An Open-Source Ab Initio Electronic Structure Package
                               Psi4 1.4.1 release

                         Git: Rev {HEAD} cd00f19 


    D. G. A. Smith, L. A. Burns, A. C. Simmonett, R. M. Parrish,
    M. C. Schieber, R. Galvelis, P. Kraus, H. Kruse, R. Di Remigio,
    A. Alenaizan, A. M. James, S. Lehtola, J. P. Misiewicz, M. Scheurer,
    R. A. Shaw, J. B. Schriber, Y. Xie, Z. L. Glick, D. A. Sirianni,
    J. S. O'Brien, J. M. Waldrop, A. Kumar, E. G. Hohenstein,
    B. P. Pritchard, B. R. Brooks, H. F. Schaefer III, A. Yu. Sokolov,
    K. Patkowski, A. E. DePrince III, U. Bozkaya, R. A. King,
    F. A. Evangelista, J. M. Turney, T. D. Crawford, C. D. Sherrill,
    J. Chem. Phys. 152(18) 184108 (2020). https://doi.org/10.1063/5.0006002

                            Additional Code Authors
    E. T. Seidl, C. L. Janssen, E. F. Valeev, M. L. Leininger,
    J. F. Gonthier, R. M. Richard, H. R. McAlexander, M. Saitow, X. Wang,
    P. Verma, and M. H. Lechner

             Previous Authors, Complete List of Code Contributors,
                       and Citations for Specific Modules
    https://github.com/psi4/psi4/blob/master/codemeta.json
    https://github.com/psi4/psi4/graphs/contributors
    http://psicode.org/psi4manual/master/introduction.html#citing-psifour

    -----------------------------------------------------------------------


    Psi4 started on: Sunday, 07 November 2021 05:04AM

    Process ID: 26898
    Host:       compute303.bc4.acrc.priv
    PSIDATADIR: /mnt/storage/home/zw18965/.conda/envs/p4env/share/psi4
    Memory:     500.0 MiB
    Threads:    28
    
  ==> Input File <==

--------------------------------------------------------------------------
memory 120 GB

molecule {
1 2
C          0.00000        0.00000        0.00000
Ni         0.00000        0.00000        1.78130
H          0.93287        0.00000       -0.58718
H         -0.93287        0.00000       -0.58718
 }

set reference uks
set dynamic_level 1
set basis Def2-TZVPPD

energy("M11-D3BJ")
--------------------------------------------------------------------------

  Memory set to 111.759 GiB by Python driver.

Scratch directory: /tmp/

*** tstart() called on compute303.bc4.acrc.priv
*** at Sun Nov  7 05:04:26 2021

   => Loading Basis Set <=

    Name: DEF2-TZVPPD
    Role: ORBITAL
    Keyword: BASIS
    atoms 1   entry C          line   144 file /mnt/storage/home/zw18965/.conda/envs/p4env/share/psi4/basis/def2-tzvppd.gbs 
    atoms 2   entry NI         line  1229 file /mnt/storage/home/zw18965/.conda/envs/p4env/share/psi4/basis/def2-tzvppd.gbs 
    atoms 3-4 entry H          line    14 file /mnt/storage/home/zw18965/.conda/envs/p4env/share/psi4/basis/def2-tzvppd.gbs 

   => M11-D3(BJ): Empirical Dispersion <=

    Grimme's -D3 (BJ-damping) Dispersion Correction
    Grimme S.; Ehrlich S.; Goerigk L. (2011), J. Comput. Chem., 32: 1456
    Parametrisation from:    L. Goerigk, J. Phys. Chem. Lett. 6, 3891-3896, 2015

        s6 =       1.000000
        s8 =       2.811200
        a1 =       0.000000
        a2 =      10.138900


         ---------------------------------------------------------
                                   SCF
               by Justin Turney, Rob Parrish, Andy Simmonett
                          and Daniel G. A. Smith
                              UKS Reference
                       28 Threads, 114440 MiB Core
         ---------------------------------------------------------

  ==> Geometry <==

    Molecular point group: c2v
    Full point group: C2v

    Geometry (in Angstrom), charge = 1, multiplicity = 2:

       Center              X                  Y                   Z               Mass       
    ------------   -----------------  -----------------  -----------------  -----------------
         C            0.000000000000    -0.000000000000    -1.417863361180    12.000000000000
         NI           0.000000000000    -0.000000000000     0.363436638820    57.935342410000
         H            0.932870000000     0.000000000000    -2.005043361180     1.007825032230
         H           -0.932870000000    -0.000000000000    -2.005043361180     1.007825032230

  Running in c2v symmetry.

  Rotational constants: A =      9.61035  B =      0.42271  C =      0.40490 [cm^-1]
  Rotational constants: A = 288110.97938  B =  12672.55278  C =  12138.63527 [MHz]
  Nuclear repulsion =   67.594237373608024

  Charge       = 1
  Multiplicity = 2
  Electrons    = 35
  Nalpha       = 18
  Nbeta        = 17

  ==> Algorithm <==

  SCF Algorithm Type is DF.
  DIIS enabled.
  MOM disabled.
  Fractional occupation disabled.
  Guess Type is SAD.
  Energy threshold   = 1.00e-06
  Density threshold  = 1.00e-06
  Integral threshold = 1.00e-12

  ==> Primary Basis <==

  Basis Set: DEF2-TZVPPD
    Blend: DEF2-TZVPPD
    Number of shells: 46
    Number of basis functions: 138
    Number of Cartesian functions: 162
    Spherical Harmonics?: true
    Max angular momentum: 4

  ==> DFT Potential <==

   => Composite Functional: M11-D3BJ <= 

    M11 Meta-GGA XC Functional
(10.1021/jz201170d)
    R. Peverati and D. G. Truhlar, J. Phys. Chem. Lett., 2, 2810, 2011


    Deriv               =              1
    GGA                 =           TRUE
    Meta                =           TRUE

    Exchange Hybrid     =           TRUE
    MP2 Hybrid          =          FALSE

   => Exchange Functionals <=

    1.0000   XC_HYB_MGGA_X_M11 [omega = 0.2500]

   => Exact (HF) Exchange <=

    0.5720            HF,LR [omega = 0.2500]
    0.4280               HF 

   => Correlation Functionals <=

    1.0000    XC_MGGA_C_M11

   => LibXC Density Thresholds  <==

    XC_MGGA_C_M11:  1.00E-15 
    XC_HYB_MGGA_X_M11:  1.00E-11 

   => Molecular Quadrature <=

    Radial Scheme          =       TREUTLER
    Pruning Scheme         =           NONE
    Nuclear Scheme         =       TREUTLER

    BS radius alpha        =              1
    Pruning alpha          =              1
    Radial Points          =             75
    Spherical Points       =            302
    Total Points           =          87682
    Total Blocks           =            727
    Max Points             =            256
    Max Functions          =            138
    Weights Tolerance      =       1.00E-15

   => Loading Basis Set <=

    Name: (DEF2-TZVPPD AUX)
    Role: JKFIT
    Keyword: DF_BASIS_SCF
    atoms 1   entry C          line   198 file /mnt/storage/home/zw18965/.conda/envs/p4env/share/psi4/basis/def2-universal-jkfit.gbs 
    atoms 2   entry NI         line  2230 file /mnt/storage/home/zw18965/.conda/envs/p4env/share/psi4/basis/def2-universal-jkfit.gbs 
    atoms 3-4 entry H          line    18 file /mnt/storage/home/zw18965/.conda/envs/p4env/share/psi4/basis/def2-universal-jkfit.gbs 

  ==> Integral Setup <==

  DFHelper Memory: AOs need 0.117 GiB; user supplied 83.117 GiB. Using in-core AOs.

  ==> MemDFJK: Density-Fitted J/K Matrices <==

    J tasked:                   Yes
    K tasked:                   Yes
    wK tasked:                  Yes
    Omega:                2.500E-01
    OpenMP threads:              28
    Memory [MiB]:             85111
    Algorithm:                 Core
    Schwarz Cutoff:           1E-12
    Mask sparsity (%):       0.3466
    Fitting Condition:        1E-10

   => Auxiliary Basis Set <=

  Basis Set: (DEF2-TZVPPD AUX)
    Blend: DEF2-UNIVERSAL-JKFIT
    Number of shells: 95
    Number of basis functions: 375
    Number of Cartesian functions: 506
    Spherical Harmonics?: true
    Max angular momentum: 6

  Cached 100.0% of DFT collocation blocks in 0.702 [GiB].

  Minimum eigenvalue in the overlap matrix is 6.0929455890E-05.
  Reciprocal condition number of the overlap matrix is 8.4691277525E-06.
    Using symmetric orthogonalization.

  ==> Pre-Iterations <==

  SCF Guess: Superposition of Atomic Densities via on-the-fly atomic UHF (no occupation information).

   -------------------------
    Irrep   Nso     Nmo    
   -------------------------
     A1        56      56 
     A2        17      17 
     B1        36      36 
     B2        29      29 
   -------------------------
    Total     138     138
   -------------------------

  ==> Iterations <==

                           Total Energy        Delta E     RMS |[F,P]|

   @DF-UKS iter SAD: -1544.77789727646086   -1.54478e+03   0.00000e+00 
    Occupation by irrep:
             A1    A2    B1    B2 
    DOCC [    10,    0,    4,    3 ]
    SOCC [     0,    0,    0,    1 ]

   @DF-UKS iter   1: -1542.49368052172122    2.28422e+00   6.35939e-02 DIIS
    Occupation by irrep:
             A1    A2    B1    B2 
    DOCC [    10,    1,    3,    3 ]
    SOCC [     0,    0,    1,    0 ]

   @DF-UKS iter   2: -1506.38504884172175    3.61086e+01   1.21345e-01 DIIS
    Occupation by irrep:
             A1    A2    B1    B2 
    DOCC [    10,    0,    4,    3 ]
    SOCC [     0,    0,    0,    1 ]

   @DF-UKS iter   3: -1544.55321036258511   -3.81682e+01   3.51109e-02 DIIS
   @DF-UKS iter   4: -1534.99629246464838    9.55692e+00   7.94269e-02 DIIS
   @DF-UKS iter   5: -1545.08833321063685   -1.00920e+01   3.18678e-02 DIIS
   @DF-UKS iter   6: -1546.14691970628746   -1.05859e+00   2.10271e-02 DIIS
   @DF-UKS iter   7: -1546.65621713359587   -5.09297e-01   1.10379e-02 DIIS
   @DF-UKS iter   8: -1546.87624120675036   -2.20024e-01   3.32495e-03 DIIS
   @DF-UKS iter   9: -1546.89742659221361   -2.11854e-02   9.46449e-04 DIIS
   @DF-UKS iter  10: -1546.89913165214875   -1.70506e-03   2.37348e-04 DIIS
   @DF-UKS iter  11: -1546.89923477081948   -1.03119e-04   5.90366e-05 DIIS
   @DF-UKS iter  12: -1546.89924368725133   -8.91643e-06   1.73717e-05 DIIS
   @DF-UKS iter  13: -1546.89924483337586   -1.14612e-06   5.09969e-06 DIIS
   @DF-UKS iter  14: -1546.89924494362208   -1.10246e-07   9.78745e-07 DIIS
  Energy and wave function converged.


  ==> Post-Iterations <==

   Electrons on quadrature grid:
      Nalpha   =   18.0000005840 ; deviation = 5.840e-07
      Nbeta    =   16.9999999434 ; deviation = -5.656e-08
      Ntotal   =   35.0000005275 ; deviation = 5.275e-07 

   @Spin Contamination Metric:   4.240637020E-03
   @S^2 Expected:                7.500000000E-01
   @S^2 Observed:                7.542406370E-01
   @S   Expected:                5.000000000E-01
   @S   Observed:                5.000000000E-01

    Orbital Energies [Eh]
    ---------------------

    Alpha Occupied:                                                       

       1A1  -301.222919     2A1   -36.517418     1B2   -32.015194  
       1B1   -32.014697     3A1   -31.964631     4A1   -10.668438  
       5A1    -4.656104     2B2    -3.282806     2B1    -3.282046  
       6A1    -3.178737     7A1    -1.020033     8A1    -0.927552  
       3B1    -0.874744     3B2    -0.873584     9A1    -0.855522  
       4B1    -0.728466    10A1    -0.646733     4B2    -0.550001  

    Alpha Virtual:                                                        

       1A2    -0.438578    11A1    -0.264360     5B1    -0.176298  
       5B2    -0.153074    12A1    -0.111755    13A1    -0.091289  
       6B1    -0.066185    14A1    -0.050893     6B2    -0.042031  
      15A1    -0.005836     7B1    -0.001399     2A2     0.032830  
       8B1     0.049053    16A1     0.059295     7B2     0.069076  
      17A1     0.083002    18A1     0.094030     8B2     0.109791  
       3A2     0.116215    19A1     0.159593     9B1     0.164069  
      20A1     0.194687    10B1     0.200865     9B2     0.215794  
       4A2     0.229548    21A1     0.265279    22A1     0.300280  
      10B2     0.304852    11B1     0.305144    23A1     0.329734  
      12B1     0.340298    24A1     0.398837    11B2     0.464861  
      13B1     0.498632    25A1     0.562840    14B1     0.581300  
      26A1     0.583236     5A2     0.619155    12B2     0.665785  
      27A1     0.771749    15B1     0.807814     6A2     0.826615  
      28A1     0.833420    13B2     0.875756    16B1     0.901424  
      29A1     0.921229     7A2     1.095759    14B2     1.103782  
      30A1     1.115803    17B1     1.245801    31A1     1.258475  
      18B1     1.294930    32A1     1.351415    15B2     1.466369  
      33A1     1.576958    19B1     1.667644    34A1     1.823511  
      16B2     2.318908    35A1     2.371959    20B1     2.411404  
      36A1     2.540393     8A2     2.600957    21B1     2.621294  
      17B2     2.632187    18B2     2.683094    22B1     2.712833  
      23B1     2.745171    19B2     2.745524    37A1     2.794135  
      38A1     2.831623     9A2     2.840880    24B1     2.912769  
      39A1     2.929241    10A2     2.934865    20B2     2.938496  
      40A1     3.011390    25B1     3.237292    11A2     3.270796  
      21B2     3.301944    26B1     3.369081    41A1     3.420908  
      42A1     3.498561    27B1     3.608362    43A1     3.613437  
      22B2     3.711743    44A1     3.776204    45A1     3.837637  
      12A2     3.844659    23B2     3.867223    13A2     3.910058  
      28B1     3.910107    46A1     3.950337    24B2     3.983650  
      29B1     4.030672    47A1     4.427032    25B2     4.496021  
      48A1     4.611663    30B1     4.675262    14A2     4.702714  
      31B1     4.941367    49A1     5.147571    50A1     5.331613  
      32B1     5.409362    51A1    11.002163    15A2    11.025471  
      26B2    11.039477    33B1    11.039799    16A2    11.066856  
      52A1    11.069508    27B2    11.091112    34B1    11.100269  
      53A1    11.106827    28B2    11.364916    35B1    11.365694  
      54A1    11.435523    17A2    11.446963    29B2    11.559607  
      36B1    11.604371    55A1    11.831769    56A1    22.450401  

    Beta Occupied:                                                        

       1A1  -301.222847     2A1   -36.516629     1B1   -32.014529  
       1B2   -32.013951     3A1   -31.963662     4A1   -10.652187  
       5A1    -4.655027     2B1    -3.281959     2B2    -3.280034  
       6A1    -3.176777     7A1    -0.976628     8A1    -0.926592  
       3B1    -0.873192     3B2    -0.863286     9A1    -0.848932  
       4B1    -0.710427    10A1    -0.630745  

    Beta Virtual:                                                         

       1A2    -0.437372    11A1    -0.260041     4B2    -0.233437  
       5B1    -0.177237     5B2    -0.134872    12A1    -0.120396  
      13A1    -0.094258     6B1    -0.068136    14A1    -0.059204  
       6B2    -0.050383    15A1    -0.021977     7B1     0.000807  
       2A2     0.026472     8B1     0.050138    16A1     0.054682  
      17A1     0.072953     7B2     0.076850    18A1     0.094098  
       3A2     0.104495     8B2     0.104841    19A1     0.158232  
       9B1     0.163094    20A1     0.196599     9B2     0.197665  
      10B1     0.200256     4A2     0.219023    21A1     0.263594  
      11B1     0.289852    22A1     0.302404    10B2     0.313049  
      23A1     0.328159    12B1     0.340510    24A1     0.398667  
      11B2     0.460336    13B1     0.496080    25A1     0.563411  
      14B1     0.568877    26A1     0.570532     5A2     0.626687  
      12B2     0.685169    27A1     0.774676    15B1     0.802463  
       6A2     0.826262    28A1     0.829026    13B2     0.891956  
      16B1     0.894406    29A1     0.950181     7A2     1.117604  
      30A1     1.119354    14B2     1.122089    17B1     1.250623  
      31A1     1.261385    18B1     1.289710    32A1     1.344301  
      15B2     1.562912    33A1     1.573340    19B1     1.670907  
      34A1     1.839804    16B2     2.349040    20B1     2.362043  
      35A1     2.386750    36A1     2.511759     8A2     2.559554  
      21B1     2.587177    17B2     2.631981    22B1     2.668890  
      18B2     2.691250    23B1     2.742707    19B2     2.745921  
      37A1     2.762335     9A2     2.827298    38A1     2.866174  
      24B1     2.875879    39A1     2.922545    10A2     2.972955  
      20B2     3.014418    40A1     3.033879    25B1     3.171194  
      11A2     3.247031    21B2     3.298785    26B1     3.381898  
      41A1     3.414477    42A1     3.484807    43A1     3.567875  
      27B1     3.603410    22B2     3.706419    44A1     3.762499  
      12A2     3.815741    45A1     3.832795    23B2     3.845044  
      13A2     3.897999    28B1     3.899047    46A1     3.902055  
      24B2     3.984948    29B1     3.991470    47A1     4.416978  
      25B2     4.470990    48A1     4.519850    30B1     4.559996  
      14A2     4.670456    31B1     4.805124    49A1     4.993074  
      50A1     5.150257    32B1     5.182527    51A1    11.001725  
      15A2    11.025664    33B1    11.040039    26B2    11.040489  
      16A2    11.067335    52A1    11.069823    27B2    11.091805  
      34B1    11.099675    53A1    11.106783    28B2    11.365511  
      35B1    11.366390    54A1    11.438075    17A2    11.448300  
      29B2    11.562135    36B1    11.603415    55A1    11.831993  
      56A1    22.444331  

    Final Occupation by Irrep:
             A1    A2    B1    B2 
    DOCC [    10,    0,    4,    3 ]
    SOCC [     0,    0,    0,    1 ]

  @DF-UKS Final Energy: -1546.89924494362208

   => Energetics <=

    Nuclear Repulsion Energy =             67.5942373736080242
    One-Electron Energy =               -2267.8835375821263369
    Two-Electron Energy =                 690.6077071519322317
    DFT Exchange-Correlation Energy =     -37.2173769770363378
    Empirical Dispersion Energy =          -0.0002749100000000
    VV10 Nonlocal Energy =                  0.0000000000000000
    Total Energy =                      -1546.8992449436225343

  UHF NO Occupations:
  HONO-2 :    9 A1 1.9995944
  HONO-1 :   10 A1 1.9987660
  HONO-0 :    4 B2 1.0000000
  LUNO+0 :   11 A1 0.0012340
  LUNO+1 :   12 A1 0.0004056
  LUNO+2 :    5 B1 0.0003037
  LUNO+3 :    5 B2 0.0001649


Computation Completed


Properties will be evaluated at   0.000000,   0.000000,   0.000000 [a0]

Properties computed using the SCF density matrix

  Nuclear Dipole Moment: [e a0]
     X:     0.0000      Y:     0.0000      Z:    -4.4239

  Electronic Dipole Moment: [e a0]
     X:     0.0000      Y:     0.0000      Z:     5.3118

  Dipole Moment: [e a0]
     X:     0.0000      Y:     0.0000      Z:     0.8879     Total:     0.8879

  Dipole Moment: [D]
     X:     0.0000      Y:     0.0000      Z:     2.2567     Total:     2.2567


*** tstop() called on compute303.bc4.acrc.priv at Sun Nov  7 05:04:48 2021
Module time:
	user time   =     518.74 seconds =       8.65 minutes
	system time =      21.12 seconds =       0.35 minutes
	total time  =         22 seconds =       0.37 minutes
Total time:
	user time   =     518.74 seconds =       8.65 minutes
	system time =      21.12 seconds =       0.35 minutes
	total time  =         22 seconds =       0.37 minutes

    Psi4 stopped on: Sunday, 07 November 2021 05:04AM
    Psi4 wall time for execution: 0:00:21.91

*** Psi4 exiting successfully. Buy a developer a beer!
