
    -----------------------------------------------------------------------
          Psi4: An Open-Source Ab Initio Electronic Structure Package
                               Psi4 1.4.1 release

                         Git: Rev {HEAD} cd00f19 


    D. G. A. Smith, L. A. Burns, A. C. Simmonett, R. M. Parrish,
    M. C. Schieber, R. Galvelis, P. Kraus, H. Kruse, R. Di Remigio,
    A. Alenaizan, A. M. James, S. Lehtola, J. P. Misiewicz, M. Scheurer,
    R. A. Shaw, J. B. Schriber, Y. Xie, Z. L. Glick, D. A. Sirianni,
    J. S. O'Brien, J. M. Waldrop, A. Kumar, E. G. Hohenstein,
    B. P. Pritchard, B. R. Brooks, H. F. Schaefer III, A. Yu. Sokolov,
    K. Patkowski, A. E. DePrince III, U. Bozkaya, R. A. King,
    F. A. Evangelista, J. M. Turney, T. D. Crawford, C. D. Sherrill,
    J. Chem. Phys. 152(18) 184108 (2020). https://doi.org/10.1063/5.0006002

                            Additional Code Authors
    E. T. Seidl, C. L. Janssen, E. F. Valeev, M. L. Leininger,
    J. F. Gonthier, R. M. Richard, H. R. McAlexander, M. Saitow, X. Wang,
    P. Verma, and M. H. Lechner

             Previous Authors, Complete List of Code Contributors,
                       and Citations for Specific Modules
    https://github.com/psi4/psi4/blob/master/codemeta.json
    https://github.com/psi4/psi4/graphs/contributors
    http://psicode.org/psi4manual/master/introduction.html#citing-psifour

    -----------------------------------------------------------------------


    Psi4 started on: Sunday, 07 November 2021 05:04AM

    Process ID: 27562
    Host:       compute361.bc4.acrc.priv
    PSIDATADIR: /mnt/storage/home/zw18965/.conda/envs/p4env/share/psi4
    Memory:     500.0 MiB
    Threads:    28
    
  ==> Input File <==

--------------------------------------------------------------------------
memory 120 GB

molecule {
0 1
O          0.00000        0.00000        0.00000
O          0.00000        0.00000        1.26881
O          1.12933        0.00000       -0.57836
 }

set dynamic_level 1
set basis Def2-TZVPPD

energy("M11-D3BJ")
--------------------------------------------------------------------------

  Memory set to 111.759 GiB by Python driver.

Scratch directory: /tmp/

*** tstart() called on compute361.bc4.acrc.priv
*** at Sun Nov  7 05:04:24 2021

   => Loading Basis Set <=

    Name: DEF2-TZVPPD
    Role: ORBITAL
    Keyword: BASIS
    atoms 1-3 entry O          line   218 file /mnt/storage/home/zw18965/.conda/envs/p4env/share/psi4/basis/def2-tzvppd.gbs 

   => M11-D3(BJ): Empirical Dispersion <=

    Grimme's -D3 (BJ-damping) Dispersion Correction
    Grimme S.; Ehrlich S.; Goerigk L. (2011), J. Comput. Chem., 32: 1456
    Parametrisation from:    L. Goerigk, J. Phys. Chem. Lett. 6, 3891-3896, 2015

        s6 =       1.000000
        s8 =       2.811200
        a1 =       0.000000
        a2 =      10.138900


         ---------------------------------------------------------
                                   SCF
               by Justin Turney, Rob Parrish, Andy Simmonett
                          and Daniel G. A. Smith
                              RKS Reference
                       28 Threads, 114440 MiB Core
         ---------------------------------------------------------

  ==> Geometry <==

    Molecular point group: cs
    Full point group: Cs

    Geometry (in Angstrom), charge = 0, multiplicity = 1:

       Center              X                  Y                   Z               Mass       
    ------------   -----------------  -----------------  -----------------  -----------------
         O            0.376443333333    -0.230150000000     0.000000000000    15.994914619570
         O            0.376443333333     1.038660000000     0.000000000000    15.994914619570
         O           -0.752886666667    -0.808510000000     0.000000000000    15.994914619570

  Running in cs symmetry.

  Rotational constants: A =      3.60915  B =      0.44969  C =      0.39987 [cm^-1]
  Rotational constants: A = 108199.63281  B =  13481.27905  C =  11987.66035 [MHz]
  Nuclear repulsion =   69.027136663518178

  Charge       = 0
  Multiplicity = 1
  Electrons    = 24
  Nalpha       = 12
  Nbeta        = 12

  ==> Algorithm <==

  SCF Algorithm Type is DF.
  DIIS enabled.
  MOM disabled.
  Fractional occupation disabled.
  Guess Type is SAD.
  Energy threshold   = 1.00e-06
  Density threshold  = 1.00e-06
  Integral threshold = 1.00e-12

  ==> Primary Basis <==

  Basis Set: DEF2-TZVPPD
    Blend: DEF2-TZVPPD
    Number of shells: 42
    Number of basis functions: 120
    Number of Cartesian functions: 138
    Spherical Harmonics?: true
    Max angular momentum: 3

  ==> DFT Potential <==

   => Composite Functional: M11-D3BJ <= 

    M11 Meta-GGA XC Functional
(10.1021/jz201170d)
    R. Peverati and D. G. Truhlar, J. Phys. Chem. Lett., 2, 2810, 2011


    Deriv               =              1
    GGA                 =           TRUE
    Meta                =           TRUE

    Exchange Hybrid     =           TRUE
    MP2 Hybrid          =          FALSE

   => Exchange Functionals <=

    1.0000   XC_HYB_MGGA_X_M11 [omega = 0.2500]

   => Exact (HF) Exchange <=

    0.5720            HF,LR [omega = 0.2500]
    0.4280               HF 

   => Correlation Functionals <=

    1.0000    XC_MGGA_C_M11

   => LibXC Density Thresholds  <==

    XC_MGGA_C_M11:  1.00E-15 
    XC_HYB_MGGA_X_M11:  1.00E-11 

   => Molecular Quadrature <=

    Radial Scheme          =       TREUTLER
    Pruning Scheme         =           NONE
    Nuclear Scheme         =       TREUTLER

    BS radius alpha        =              1
    Pruning alpha          =              1
    Radial Points          =             75
    Spherical Points       =            302
    Total Points           =          66681
    Total Blocks           =            559
    Max Points             =            256
    Max Functions          =            119
    Weights Tolerance      =       1.00E-15

   => Loading Basis Set <=

    Name: (DEF2-TZVPPD AUX)
    Role: JKFIT
    Keyword: DF_BASIS_SCF
    atoms 1-3 entry O          line   318 file /mnt/storage/home/zw18965/.conda/envs/p4env/share/psi4/basis/def2-universal-jkfit.gbs 

  ==> Integral Setup <==

  DFHelper Memory: AOs need 0.056 GiB; user supplied 83.308 GiB. Using in-core AOs.

  ==> MemDFJK: Density-Fitted J/K Matrices <==

    J tasked:                   Yes
    K tasked:                   Yes
    wK tasked:                  Yes
    Omega:                2.500E-01
    OpenMP threads:              28
    Memory [MiB]:             85307
    Algorithm:                 Core
    Schwarz Cutoff:           1E-12
    Mask sparsity (%):       0.2222
    Fitting Condition:        1E-10

   => Auxiliary Basis Set <=

  Basis Set: (DEF2-TZVPPD AUX)
    Blend: DEF2-UNIVERSAL-JKFIT
    Number of shells: 75
    Number of basis functions: 231
    Number of Cartesian functions: 279
    Spherical Harmonics?: true
    Max angular momentum: 4

  Cached 100.0% of DFT collocation blocks in 0.511 [GiB].

  Minimum eigenvalue in the overlap matrix is 2.1333653966E-04.
  Reciprocal condition number of the overlap matrix is 3.0218422033E-05.
    Using symmetric orthogonalization.

  ==> Pre-Iterations <==

  SCF Guess: Superposition of Atomic Densities via on-the-fly atomic UHF (no occupation information).

   -------------------------
    Irrep   Nso     Nmo    
   -------------------------
     A'        81      81 
     A"        39      39 
   -------------------------
    Total     120     120
   -------------------------

  ==> Iterations <==

                           Total Energy        Delta E     RMS |[F,P]|

   @DF-RKS iter SAD:  -224.91823087261878   -2.24918e+02   0.00000e+00 
   @DF-RKS iter   1:  -225.25532768916278   -3.37097e-01   8.23816e-03 DIIS
   @DF-RKS iter   2:  -225.06204227512382    1.93285e-01   1.27652e-02 DIIS
   @DF-RKS iter   3:  -225.43752103929700   -3.75479e-01   6.15069e-04 DIIS
   @DF-RKS iter   4:  -225.43832368577841   -8.02646e-04   1.54885e-04 DIIS
   @DF-RKS iter   5:  -225.43841246035950   -8.87746e-05   3.13649e-05 DIIS
   @DF-RKS iter   6:  -225.43841834415164   -5.88379e-06   1.17232e-05 DIIS
   @DF-RKS iter   7:  -225.43841911420435   -7.70053e-07   3.02249e-06 DIIS
   @DF-RKS iter   8:  -225.43841917123450   -5.70301e-08   2.10899e-06 DIIS
   @DF-RKS iter   9:  -225.43841918272105   -1.14865e-08   8.68092e-07 DIIS
  Energy and wave function converged.


  ==> Post-Iterations <==

   Electrons on quadrature grid:
      Ntotal   =   23.9999962541 ; deviation = -3.746e-06 

    Orbital Energies [Eh]
    ---------------------

    Doubly Occupied:                                                      

       1Ap   -19.764280     2Ap   -19.575678     3Ap   -19.575622  
       4Ap    -1.517866     5Ap    -1.241348     6Ap    -0.921670  
       1App   -0.741479     7Ap    -0.737374     8Ap    -0.720579  
       9Ap    -0.486135    10Ap    -0.477321     2App   -0.476165  

    Virtual:                                                              

       3App   -0.106377    11Ap     0.032836    12Ap     0.035058  
      13Ap     0.048019     4App    0.061270    14Ap     0.092132  
      15Ap     0.094988     5App    0.098613     6App    0.107133  
      16Ap     0.142535    17Ap     0.144983    18Ap     0.178724  
      19Ap     0.242827    20Ap     0.270700    21Ap     0.311049  
      22Ap     0.403107     7App    0.404737    23Ap     0.456563  
      24Ap     0.466509     8App    0.471391    25Ap     0.477395  
       9App    0.499470    26Ap     0.514671    10App    0.517084  
      27Ap     0.536600    11App    0.552821    28Ap     0.553807  
      29Ap     0.577924    30Ap     0.603696    12App    0.611146  
      13App    0.643227    31Ap     0.701193    32Ap     0.776871  
      33Ap     0.863900    34Ap     0.902161    14App    0.913905  
      15App    0.937447    35Ap     0.940383    36Ap     0.998163  
      37Ap     1.040189    38Ap     1.226425    39Ap     1.265489  
      16App    1.444593    40Ap     1.471858    17App    1.493274  
      41Ap     1.724653    42Ap     1.738570    18App    1.756601  
      19App    1.760644    43Ap     1.886880    44Ap     2.017307  
      20App    2.098674    45Ap     2.117861    46Ap     2.253552  
      21App    2.257683    47Ap     2.475711    48Ap     2.500796  
      22App    2.514540    49Ap     2.748899    50Ap     2.869510  
      23App    2.917361    51Ap     2.958063    24App    3.035091  
      52Ap     3.085220    53Ap     3.111235    54Ap     3.261121  
      55Ap     3.361909    56Ap     4.180036    57Ap     4.300803  
      25App    4.500840    26App    4.572703    58Ap     4.590996  
      59Ap     4.685305    27App    4.731119    60Ap     4.749623  
      61Ap     4.958373    28App    5.095667    62Ap     5.101068  
      29App    5.105477    63Ap     5.114015    30App    5.199344  
      64Ap     5.434346    65Ap     5.444936    31App    5.638877  
      66Ap     5.911474    32App    6.128634    33App    6.159955  
      67Ap     6.225279    68Ap     6.280824    34App    6.294346  
      35App    6.305855    69Ap     6.368298    36App    6.395973  
      70Ap     6.411620    37App    6.413661    71Ap     6.453469  
      72Ap     6.534246    73Ap     6.903369    38App    6.956409  
      39App    7.076571    74Ap     7.098568    75Ap     7.346499  
      76Ap     7.486151    77Ap     8.258417    78Ap     8.653735  
      79Ap    43.127472    80Ap    43.555131    81Ap    43.980868  

    Final Occupation by Irrep:
             Ap   App 
    DOCC [    10,    2 ]

  @DF-RKS Final Energy:  -225.43841918272105

   => Energetics <=

    Nuclear Repulsion Energy =             69.0271366635181778
    One-Electron Energy =                -445.8520601296028190
    Two-Electron Energy =                 164.5451106279535338
    DFT Exchange-Correlation Energy =     -13.1585552245899180
    Empirical Dispersion Energy =          -0.0000511200000000
    VV10 Nonlocal Energy =                  0.0000000000000000
    Total Energy =                       -225.4384191827210486

Computation Completed


Properties will be evaluated at   0.000000,   0.000000,   0.000000 [a0]

Properties computed using the SCF density matrix

  Nuclear Dipole Moment: [e a0]
     X:     0.0000      Y:     0.0000      Z:     0.0000

  Electronic Dipole Moment: [e a0]
     X:     0.2404      Y:    -0.1470      Z:     0.0000

  Dipole Moment: [e a0]
     X:     0.2404      Y:    -0.1470      Z:     0.0000     Total:     0.2818

  Dipole Moment: [D]
     X:     0.6111      Y:    -0.3736      Z:     0.0000     Total:     0.7162


*** tstop() called on compute361.bc4.acrc.priv at Sun Nov  7 05:04:27 2021
Module time:
	user time   =      35.46 seconds =       0.59 minutes
	system time =       2.55 seconds =       0.04 minutes
	total time  =          3 seconds =       0.05 minutes
Total time:
	user time   =      35.46 seconds =       0.59 minutes
	system time =       2.55 seconds =       0.04 minutes
	total time  =          3 seconds =       0.05 minutes

    Psi4 stopped on: Sunday, 07 November 2021 05:04AM
    Psi4 wall time for execution: 0:00:03.33

*** Psi4 exiting successfully. Buy a developer a beer!
