
    -----------------------------------------------------------------------
          Psi4: An Open-Source Ab Initio Electronic Structure Package
                               Psi4 1.4.1 release

                         Git: Rev {HEAD} cd00f19 


    D. G. A. Smith, L. A. Burns, A. C. Simmonett, R. M. Parrish,
    M. C. Schieber, R. Galvelis, P. Kraus, H. Kruse, R. Di Remigio,
    A. Alenaizan, A. M. James, S. Lehtola, J. P. Misiewicz, M. Scheurer,
    R. A. Shaw, J. B. Schriber, Y. Xie, Z. L. Glick, D. A. Sirianni,
    J. S. O'Brien, J. M. Waldrop, A. Kumar, E. G. Hohenstein,
    B. P. Pritchard, B. R. Brooks, H. F. Schaefer III, A. Yu. Sokolov,
    K. Patkowski, A. E. DePrince III, U. Bozkaya, R. A. King,
    F. A. Evangelista, J. M. Turney, T. D. Crawford, C. D. Sherrill,
    J. Chem. Phys. 152(18) 184108 (2020). https://doi.org/10.1063/5.0006002

                            Additional Code Authors
    E. T. Seidl, C. L. Janssen, E. F. Valeev, M. L. Leininger,
    J. F. Gonthier, R. M. Richard, H. R. McAlexander, M. Saitow, X. Wang,
    P. Verma, and M. H. Lechner

             Previous Authors, Complete List of Code Contributors,
                       and Citations for Specific Modules
    https://github.com/psi4/psi4/blob/master/codemeta.json
    https://github.com/psi4/psi4/graphs/contributors
    http://psicode.org/psi4manual/master/introduction.html#citing-psifour

    -----------------------------------------------------------------------


    Psi4 started on: Sunday, 07 November 2021 05:04AM

    Process ID: 2601
    Host:       compute134.bc4.acrc.priv
    PSIDATADIR: /mnt/storage/home/zw18965/.conda/envs/p4env/share/psi4
    Memory:     500.0 MiB
    Threads:    28
    
  ==> Input File <==

--------------------------------------------------------------------------
memory 120 GB

molecule {
0 3
S          0.00000        0.00000        0.00000
 }

set reference uks
set dynamic_level 1
set basis Def2-TZVPPD

energy("M11-D3BJ")
--------------------------------------------------------------------------

  Memory set to 111.759 GiB by Python driver.

Scratch directory: /tmp/

*** tstart() called on compute134.bc4.acrc.priv
*** at Sun Nov  7 05:04:26 2021

   => Loading Basis Set <=

    Name: DEF2-TZVPPD
    Role: ORBITAL
    Keyword: BASIS
    atoms 1 entry S          line   558 file /mnt/storage/home/zw18965/.conda/envs/p4env/share/psi4/basis/def2-tzvppd.gbs 

   => M11-D3(BJ): Empirical Dispersion <=

    Grimme's -D3 (BJ-damping) Dispersion Correction
    Grimme S.; Ehrlich S.; Goerigk L. (2011), J. Comput. Chem., 32: 1456
    Parametrisation from:    L. Goerigk, J. Phys. Chem. Lett. 6, 3891-3896, 2015

        s6 =       1.000000
        s8 =       2.811200
        a1 =       0.000000
        a2 =      10.138900


         ---------------------------------------------------------
                                   SCF
               by Justin Turney, Rob Parrish, Andy Simmonett
                          and Daniel G. A. Smith
                              UKS Reference
                       28 Threads, 114440 MiB Core
         ---------------------------------------------------------

  ==> Geometry <==

    Molecular point group: d2h
    Geometry (in Angstrom), charge = 0, multiplicity = 3:

       Center              X                  Y                   Z               Mass       
    ------------   -----------------  -----------------  -----------------  -----------------
         S            0.000000000000     0.000000000000     0.000000000000    31.972071174400

  Running in d2h symmetry.

  Rotational constants: A = ************  B = ************  C = ************ [cm^-1]
  Rotational constants: A = ************  B = ************  C = ************ [MHz]
  Nuclear repulsion =    0.000000000000000

  Charge       = 0
  Multiplicity = 3
  Electrons    = 16
  Nalpha       = 9
  Nbeta        = 7

  ==> Algorithm <==

  SCF Algorithm Type is DF.
  DIIS enabled.
  MOM disabled.
  Fractional occupation disabled.
  Guess Type is CORE.
  Energy threshold   = 1.00e-06
  Density threshold  = 1.00e-06
  Integral threshold = 1.00e-12

  ==> Primary Basis <==

  Basis Set: DEF2-TZVPPD
    Blend: DEF2-TZVPPD
    Number of shells: 17
    Number of basis functions: 51
    Number of Cartesian functions: 58
    Spherical Harmonics?: true
    Max angular momentum: 3

  ==> DFT Potential <==

   => Composite Functional: M11-D3BJ <= 

    M11 Meta-GGA XC Functional
(10.1021/jz201170d)
    R. Peverati and D. G. Truhlar, J. Phys. Chem. Lett., 2, 2810, 2011


    Deriv               =              1
    GGA                 =           TRUE
    Meta                =           TRUE

    Exchange Hybrid     =           TRUE
    MP2 Hybrid          =          FALSE

   => Exchange Functionals <=

    1.0000   XC_HYB_MGGA_X_M11 [omega = 0.2500]

   => Exact (HF) Exchange <=

    0.5720            HF,LR [omega = 0.2500]
    0.4280               HF 

   => Correlation Functionals <=

    1.0000    XC_MGGA_C_M11

   => LibXC Density Thresholds  <==

    XC_MGGA_C_M11:  1.00E-15 
    XC_HYB_MGGA_X_M11:  1.00E-11 

   => Molecular Quadrature <=

    Radial Scheme          =       TREUTLER
    Pruning Scheme         =           NONE
    Nuclear Scheme         =       TREUTLER

    BS radius alpha        =              1
    Pruning alpha          =              1
    Radial Points          =             75
    Spherical Points       =            302
    Total Points           =          22046
    Total Blocks           =            238
    Max Points             =            249
    Max Functions          =             51
    Weights Tolerance      =       1.00E-15

   => Loading Basis Set <=

    Name: (DEF2-TZVPPD AUX)
    Role: JKFIT
    Keyword: DF_BASIS_SCF
    atoms 1 entry S          line   903 file /mnt/storage/home/zw18965/.conda/envs/p4env/share/psi4/basis/def2-universal-jkfit.gbs 

  ==> Integral Setup <==

  DFHelper Memory: AOs need 0.006 GiB; user supplied 83.747 GiB. Using in-core AOs.

  ==> MemDFJK: Density-Fitted J/K Matrices <==

    J tasked:                   Yes
    K tasked:                   Yes
    wK tasked:                  Yes
    Omega:                2.500E-01
    OpenMP threads:              28
    Memory [MiB]:             85756
    Algorithm:                 Core
    Schwarz Cutoff:           1E-12
    Mask sparsity (%):       0.0000
    Fitting Condition:        1E-10

   => Auxiliary Basis Set <=

  Basis Set: (DEF2-TZVPPD AUX)
    Blend: DEF2-UNIVERSAL-JKFIT
    Number of shells: 38
    Number of basis functions: 128
    Number of Cartesian functions: 155
    Spherical Harmonics?: true
    Max angular momentum: 4

  Cached 100.0% of DFT collocation blocks in 0.072 [GiB].

  Minimum eigenvalue in the overlap matrix is 3.2537191408E-02.
  Reciprocal condition number of the overlap matrix is 1.1088033782E-02.
    Using symmetric orthogonalization.

  ==> Pre-Iterations <==

  SCF Guess: Core (One-Electron) Hamiltonian.

   -------------------------------------------------------
    Irrep   Nso     Nmo     Nalpha   Nbeta   Ndocc  Nsocc
   -------------------------------------------------------
     Ag        14      14       3       2       2       1
     B1g        4       4       0       0       0       0
     B2g        4       4       0       0       0       0
     B3g        4       4       0       0       0       0
     Au         1       1       0       0       0       0
     B1u        8       8       2       2       2       0
     B2u        8       8       2       1       1       1
     B3u        8       8       2       2       2       0
   -------------------------------------------------------
    Total      51      51       9       7       7       2
   -------------------------------------------------------

  ==> Iterations <==

                           Total Energy        Delta E     RMS |[F,P]|

    Occupation by irrep:
             Ag   B1g   B2g   B3g    Au   B1u   B2u   B3u 
    DOCC [     3,    0,    0,    0,    0,    2,    1,    1 ]
    SOCC [     0,    0,    0,    0,    0,    0,    1,    1 ]

   @DF-UKS iter   1:  -359.17838522982595   -3.59178e+02   7.24436e-01 DIIS
   @DF-UKS iter   2:  -381.30710572923198   -2.21287e+01   5.31208e-01 DIIS
   @DF-UKS iter   3:  -397.84872377472652   -1.65416e+01   5.31306e-02 DIIS
   @DF-UKS iter   4:  -398.09929616031434   -2.50572e-01   2.55086e-03 DIIS
   @DF-UKS iter   5:  -398.10090946486014   -1.61330e-03   5.76434e-04 DIIS
   @DF-UKS iter   6:  -398.10101578562114   -1.06321e-04   9.73528e-05 DIIS
   @DF-UKS iter   7:  -398.10101909475105   -3.30913e-06   2.27072e-05 DIIS
   @DF-UKS iter   8:  -398.10101927397011   -1.79219e-07   3.21168e-06 DIIS
   @DF-UKS iter   9:  -398.10101928190898   -7.93887e-09   3.37925e-07 DIIS
  Energy and wave function converged.


  ==> Post-Iterations <==

   Electrons on quadrature grid:
      Nalpha   =    8.9999999902 ; deviation = -9.839e-09
      Nbeta    =    6.9999999902 ; deviation = -9.838e-09
      Ntotal   =   15.9999999803 ; deviation = -1.968e-08 

   @Spin Contamination Metric:   3.818507272E-03
   @S^2 Expected:                2.000000000E+00
   @S^2 Observed:                2.003818507E+00
   @S   Expected:                1.000000000E+00
   @S   Observed:                1.000000000E+00

    Orbital Energies [Eh]
    ---------------------

    Alpha Occupied:                                                       

       1Ag   -89.473835     2Ag    -8.153335     1B3u   -6.150468  
       1B2u   -6.150468     1B1u   -6.131857     3Ag    -0.850165  
       2B3u   -0.438617     2B2u   -0.438617     2B1u   -0.390955  

    Alpha Virtual:                                                        

       3B1u    0.035883     3B3u    0.040807     3B2u    0.040807  
       4Ag     0.087937     5Ag     0.182316     1B1g    0.182316  
       1B2g    0.194388     1B3g    0.194388     6Ag     0.195917  
       4B3u    0.434532     4B2u    0.434532     4B1u    0.454947  
       7Ag     0.498672     2B1g    0.498672     2B2g    0.530306  
       2B3g    0.530306     8Ag     0.541111     9Ag     0.660731  
       3B1g    1.564429    10Ag     1.564429     3B2g    1.585381  
       3B3g    1.585381    11Ag     1.600047     5B3u    1.637604  
       5B2u    1.637604     1Au     1.676989     5B1u    1.676989  
       6B3u    1.699404     6B2u    1.699404     6B1u    1.707044  
       7B3u    1.833651     7B2u    1.833651     7B1u    1.890481  
      12Ag     6.768195     4B1g    6.768195     4B2g    6.796072  
       4B3g    6.796072    13Ag     6.805221     8B3u    8.780504  
       8B2u    8.780504     8B1u    8.826490    14Ag    17.899549  

    Beta Occupied:                                                        

       1Ag   -89.463590     2Ag    -8.137685     1B1u   -6.126471  
       1B3u   -6.124088     1B2u   -6.124088     3Ag    -0.751809  
       2B1u   -0.365908  

    Beta Virtual:                                                         

       2B3u   -0.088258     2B2u   -0.088258     3B2u    0.013935  
       3B3u    0.013935     3B1u    0.036549     4Ag     0.050780  
       1B1g    0.157819     5Ag     0.157823     6Ag     0.188520  
       1B2g    0.192587     1B3g    0.192587     4B3u    0.458884  
       4B2u    0.458884     4B1u    0.459116     7Ag     0.566180  
       2B1g    0.569780     8Ag     0.569781     2B2g    0.572115  
       2B3g    0.572115     9Ag     0.701873     3B2g    1.619853  
       3B3g    1.619853    10Ag     1.644366     3B1g    1.653221  
      11Ag     1.653221     5B1u    1.755537     6B1u    1.766036  
       1Au     1.766036     5B3u    1.766818     5B2u    1.766818  
       6B3u    1.780327     6B2u    1.780327     7B3u    1.910780  
       7B2u    1.910780     7B1u    1.919623    12Ag     6.825956  
       4B2g    6.826688     4B3g    6.826688     4B1g    6.828583  
      13Ag     6.828583     8B1u    8.843012     8B3u    8.853186  
       8B2u    8.853186    14Ag    17.916879  

    Final Occupation by Irrep:
             Ag   B1g   B2g   B3g    Au   B1u   B2u   B3u 
    DOCC [     3,    0,    0,    0,    0,    2,    1,    1 ]
    SOCC [     0,    0,    0,    0,    0,    0,    1,    1 ]

  @DF-UKS Final Energy:  -398.10101928190898

   => Energetics <=

    Nuclear Repulsion Energy =              0.0000000000000000
    One-Electron Energy =                -549.4387995267293263
    Two-Electron Energy =                 165.0058307130190940
    DFT Exchange-Correlation Energy =     -13.6680504681987269
    Empirical Dispersion Energy =           0.0000000000000000
    VV10 Nonlocal Energy =                  0.0000000000000000
    Total Energy =                       -398.1010192819089184

  UHF NO Occupations:
  HONO-2 :    3 Ag 1.9985485
  HONO-1 :    2B3u 1.0000000
  HONO-0 :    2B2u 1.0000000
  LUNO+0 :    4 Ag 0.0014515
  LUNO+1 :    3B1u 0.0004579
  LUNO+2 :    5 Ag 0.0000003
  LUNO+3 :    3B3u 0.0000003


Computation Completed


Properties will be evaluated at   0.000000,   0.000000,   0.000000 [a0]

Properties computed using the SCF density matrix

  Nuclear Dipole Moment: [e a0]
     X:     0.0000      Y:     0.0000      Z:     0.0000

  Electronic Dipole Moment: [e a0]
     X:     0.0000      Y:     0.0000      Z:     0.0000

  Dipole Moment: [e a0]
     X:     0.0000      Y:     0.0000      Z:     0.0000     Total:     0.0000

  Dipole Moment: [D]
     X:     0.0000      Y:     0.0000      Z:     0.0000     Total:     0.0000


*** tstop() called on compute134.bc4.acrc.priv at Sun Nov  7 05:04:30 2021
Module time:
	user time   =      52.50 seconds =       0.88 minutes
	system time =       2.42 seconds =       0.04 minutes
	total time  =          4 seconds =       0.07 minutes
Total time:
	user time   =      52.50 seconds =       0.88 minutes
	system time =       2.42 seconds =       0.04 minutes
	total time  =          4 seconds =       0.07 minutes

    Psi4 stopped on: Sunday, 07 November 2021 05:04AM
    Psi4 wall time for execution: 0:00:03.95

*** Psi4 exiting successfully. Buy a developer a beer!
