
    -----------------------------------------------------------------------
          Psi4: An Open-Source Ab Initio Electronic Structure Package
                               Psi4 1.4.1 release

                         Git: Rev {HEAD} cd00f19 


    D. G. A. Smith, L. A. Burns, A. C. Simmonett, R. M. Parrish,
    M. C. Schieber, R. Galvelis, P. Kraus, H. Kruse, R. Di Remigio,
    A. Alenaizan, A. M. James, S. Lehtola, J. P. Misiewicz, M. Scheurer,
    R. A. Shaw, J. B. Schriber, Y. Xie, Z. L. Glick, D. A. Sirianni,
    J. S. O'Brien, J. M. Waldrop, A. Kumar, E. G. Hohenstein,
    B. P. Pritchard, B. R. Brooks, H. F. Schaefer III, A. Yu. Sokolov,
    K. Patkowski, A. E. DePrince III, U. Bozkaya, R. A. King,
    F. A. Evangelista, J. M. Turney, T. D. Crawford, C. D. Sherrill,
    J. Chem. Phys. 152(18) 184108 (2020). https://doi.org/10.1063/5.0006002

                            Additional Code Authors
    E. T. Seidl, C. L. Janssen, E. F. Valeev, M. L. Leininger,
    J. F. Gonthier, R. M. Richard, H. R. McAlexander, M. Saitow, X. Wang,
    P. Verma, and M. H. Lechner

             Previous Authors, Complete List of Code Contributors,
                       and Citations for Specific Modules
    https://github.com/psi4/psi4/blob/master/codemeta.json
    https://github.com/psi4/psi4/graphs/contributors
    http://psicode.org/psi4manual/master/introduction.html#citing-psifour

    -----------------------------------------------------------------------


    Psi4 started on: Sunday, 07 November 2021 05:04AM

    Process ID: 3799
    Host:       compute399.bc4.acrc.priv
    PSIDATADIR: /mnt/storage/home/zw18965/.conda/envs/p4env/share/psi4
    Memory:     500.0 MiB
    Threads:    28
    
  ==> Input File <==

--------------------------------------------------------------------------
memory 120 GB

molecule {
0 3
S          0.00000        0.00000        0.96175
S          0.00000        0.00000       -0.96175
 }

set reference uks
set dynamic_level 1
set basis Def2-TZVPPD

energy("M11-D3BJ")
--------------------------------------------------------------------------

  Memory set to 111.759 GiB by Python driver.

Scratch directory: /tmp/

*** tstart() called on compute399.bc4.acrc.priv
*** at Sun Nov  7 05:04:21 2021

   => Loading Basis Set <=

    Name: DEF2-TZVPPD
    Role: ORBITAL
    Keyword: BASIS
    atoms 1-2 entry S          line   558 file /mnt/storage/home/zw18965/.conda/envs/p4env/share/psi4/basis/def2-tzvppd.gbs 

   => M11-D3(BJ): Empirical Dispersion <=

    Grimme's -D3 (BJ-damping) Dispersion Correction
    Grimme S.; Ehrlich S.; Goerigk L. (2011), J. Comput. Chem., 32: 1456
    Parametrisation from:    L. Goerigk, J. Phys. Chem. Lett. 6, 3891-3896, 2015

        s6 =       1.000000
        s8 =       2.811200
        a1 =       0.000000
        a2 =      10.138900


         ---------------------------------------------------------
                                   SCF
               by Justin Turney, Rob Parrish, Andy Simmonett
                          and Daniel G. A. Smith
                              UKS Reference
                       28 Threads, 114440 MiB Core
         ---------------------------------------------------------

  ==> Geometry <==

    Molecular point group: d2h
    Full point group: D_inf_h

    Geometry (in Angstrom), charge = 0, multiplicity = 3:

       Center              X                  Y                   Z               Mass       
    ------------   -----------------  -----------------  -----------------  -----------------
         S            0.000000000000     0.000000000000     0.961750000000    31.972071174400
         S            0.000000000000     0.000000000000    -0.961750000000    31.972071174400

  Running in d2h symmetry.

  Rotational constants: A = ************  B =      0.28502  C =      0.28502 [cm^-1]
  Rotational constants: A = ************  B =   8544.60602  C =   8544.60602 [MHz]
  Nuclear repulsion =   70.428575997670904

  Charge       = 0
  Multiplicity = 3
  Electrons    = 32
  Nalpha       = 17
  Nbeta        = 15

  ==> Algorithm <==

  SCF Algorithm Type is DF.
  DIIS enabled.
  MOM disabled.
  Fractional occupation disabled.
  Guess Type is SAD.
  Energy threshold   = 1.00e-06
  Density threshold  = 1.00e-06
  Integral threshold = 1.00e-12

  ==> Primary Basis <==

  Basis Set: DEF2-TZVPPD
    Blend: DEF2-TZVPPD
    Number of shells: 34
    Number of basis functions: 102
    Number of Cartesian functions: 116
    Spherical Harmonics?: true
    Max angular momentum: 3

  ==> DFT Potential <==

   => Composite Functional: M11-D3BJ <= 

    M11 Meta-GGA XC Functional
(10.1021/jz201170d)
    R. Peverati and D. G. Truhlar, J. Phys. Chem. Lett., 2, 2810, 2011


    Deriv               =              1
    GGA                 =           TRUE
    Meta                =           TRUE

    Exchange Hybrid     =           TRUE
    MP2 Hybrid          =          FALSE

   => Exchange Functionals <=

    1.0000   XC_HYB_MGGA_X_M11 [omega = 0.2500]

   => Exact (HF) Exchange <=

    0.5720            HF,LR [omega = 0.2500]
    0.4280               HF 

   => Correlation Functionals <=

    1.0000    XC_MGGA_C_M11

   => LibXC Density Thresholds  <==

    XC_MGGA_C_M11:  1.00E-15 
    XC_HYB_MGGA_X_M11:  1.00E-11 

   => Molecular Quadrature <=

    Radial Scheme          =       TREUTLER
    Pruning Scheme         =           NONE
    Nuclear Scheme         =       TREUTLER

    BS radius alpha        =              1
    Pruning alpha          =              1
    Radial Points          =             75
    Spherical Points       =            302
    Total Points           =          44148
    Total Blocks           =            424
    Max Points             =            252
    Max Functions          =            101
    Weights Tolerance      =       1.00E-15

   => Loading Basis Set <=

    Name: (DEF2-TZVPPD AUX)
    Role: JKFIT
    Keyword: DF_BASIS_SCF
    atoms 1-2 entry S          line   903 file /mnt/storage/home/zw18965/.conda/envs/p4env/share/psi4/basis/def2-universal-jkfit.gbs 

  ==> Integral Setup <==

  DFHelper Memory: AOs need 0.044 GiB; user supplied 83.556 GiB. Using in-core AOs.

  ==> MemDFJK: Density-Fitted J/K Matrices <==

    J tasked:                   Yes
    K tasked:                   Yes
    wK tasked:                  Yes
    Omega:                2.500E-01
    OpenMP threads:              28
    Memory [MiB]:             85561
    Algorithm:                 Core
    Schwarz Cutoff:           1E-12
    Mask sparsity (%):       1.2111
    Fitting Condition:        1E-10

   => Auxiliary Basis Set <=

  Basis Set: (DEF2-TZVPPD AUX)
    Blend: DEF2-UNIVERSAL-JKFIT
    Number of shells: 76
    Number of basis functions: 256
    Number of Cartesian functions: 310
    Spherical Harmonics?: true
    Max angular momentum: 4

  Cached 100.0% of DFT collocation blocks in 0.263 [GiB].

  Minimum eigenvalue in the overlap matrix is 1.3730495336E-03.
  Reciprocal condition number of the overlap matrix is 2.9848551279E-04.
    Using symmetric orthogonalization.

  ==> Pre-Iterations <==

  SCF Guess: Superposition of Atomic Densities via on-the-fly atomic UHF (no occupation information).

   -------------------------
    Irrep   Nso     Nmo    
   -------------------------
     Ag        22      22 
     B1g        5       5 
     B2g       12      12 
     B3g       12      12 
     Au         5       5 
     B1u       22      22 
     B2u       12      12 
     B3u       12      12 
   -------------------------
    Total     102     102
   -------------------------

  ==> Iterations <==

                           Total Energy        Delta E     RMS |[F,P]|

   @DF-UKS iter SAD:  -795.96822596375785   -7.95968e+02   0.00000e+00 
   @DF-UKS iter   1:  -796.34622500899263   -3.77999e-01   9.30879e-03 DIIS
   @DF-UKS iter   2:  -796.36459246343952   -1.83675e-02   3.74536e-03 DIIS
   @DF-UKS iter   3:  -796.36724246467293   -2.65000e-03   3.08304e-04 DIIS
   @DF-UKS iter   4:  -796.36748019228526   -2.37728e-04   7.06602e-05 DIIS
   @DF-UKS iter   5:  -796.36749203235468   -1.18401e-05   2.97413e-05 DIIS
   @DF-UKS iter   6:  -796.36749288144199   -8.49087e-07   6.84921e-06 DIIS
   @DF-UKS iter   7:  -796.36749298146106   -1.00019e-07   1.36906e-06 DIIS
   @DF-UKS iter   8:  -796.36749298574921   -4.28815e-09   2.87611e-07 DIIS
  Energy and wave function converged.


  ==> Post-Iterations <==

   Electrons on quadrature grid:
      Nalpha   =   17.0000017630 ; deviation = 1.763e-06
      Nbeta    =   15.0000014229 ; deviation = 1.423e-06
      Ntotal   =   32.0000031859 ; deviation = 3.186e-06 

   @Spin Contamination Metric:   1.424636211E-02
   @S^2 Expected:                2.000000000E+00
   @S^2 Observed:                2.014246362E+00
   @S   Expected:                1.000000000E+00
   @S   Observed:                1.000000000E+00

    Orbital Energies [Eh]
    ---------------------

    Alpha Occupied:                                                       

       1B1u  -89.474200     1Ag   -89.474181     2Ag    -8.152399  
       2B1u   -8.152264     1B2u   -6.143824     1B3u   -6.143824  
       1B3g   -6.143807     1B2g   -6.143807     3Ag    -6.141189  
       3B1u   -6.140601     4Ag    -0.962453     4B1u   -0.762256  
       5Ag    -0.497966     2B3u   -0.490584     2B2u   -0.490584  
       2B2g   -0.350127     2B3g   -0.350127  

    Alpha Virtual:                                                        

       5B1u    0.009263     3B2u    0.035558     3B3u    0.035558  
       6Ag     0.039070     3B3g    0.059911     3B2g    0.059911  
       6B1u    0.079798     7Ag     0.089101     8Ag     0.161061  
       1B1g    0.161078     7B1u    0.198165     4B2u    0.207349  
       4B3u    0.207349     9Ag     0.249727     1Au     0.251920  
       8B1u    0.251924     9B1u    0.278885     4B3g    0.295720  
       4B2g    0.295720     5B2u    0.415993     5B3u    0.415993  
      10Ag     0.434804     6B3u    0.471180     6B2u    0.471180  
      11Ag     0.486513     2B1g    0.486550    10B1u    0.571572  
       2Au     0.571599     5B3g    0.574754     5B2g    0.574754  
      11B1u    0.579042    12Ag     0.619581     6B2g    0.710523  
       6B3g    0.710523    13Ag     0.752594    12B1u    0.799296  
      13B1u    1.159238     3B1g    1.492052    14Ag     1.492118  
      15Ag     1.505745     7B3u    1.533592     7B2u    1.533592  
       4B1g    1.594942    16Ag     1.595264     3Au     1.611724  
      14B1u    1.612149     7B3g    1.618410     7B2g    1.618410  
       8B3u    1.643354     8B2u    1.643354    15B1u    1.659148  
       9B2u    1.728410     9B3u    1.728410     8B2g    1.733218  
       8B3g    1.733218    10B2u    1.861118    10B3u    1.861118  
      17Ag     1.868045     9B3g    1.962237     9B2g    1.962237  
      16B1u    1.971423     4Au     1.971470    17B1u    2.027022  
      18Ag     2.483344    10B2g    2.543845    10B3g    2.543845  
      18B1u    3.056012     5B1g    6.781874    19Ag     6.781982  
       5Au     6.809801    19B1u    6.809921    11B2u    6.818644  
      11B3u    6.818644    20Ag     6.833616    11B3g    6.834768  
      11B2g    6.834768    20B1u    7.031589    12B2u    8.799604  
      12B3u    8.799604    12B3g    8.924397    12B2g    8.924397  
      21Ag     9.076752    21B1u    9.195050    22Ag    18.270994  
      22B1u   18.951376  

    Beta Occupied:                                                        

       1B1u  -89.468327     1Ag   -89.468309     2Ag    -8.144193  
       2B1u   -8.143978     3Ag    -6.138716     3B1u   -6.138113  
       1B2u   -6.129662     1B3u   -6.129662     1B3g   -6.129627  
       1B2g   -6.129627     4Ag    -0.932849     4B1u   -0.694999  
       5Ag    -0.469712     2B3u   -0.424408     2B2u   -0.424408  

    Beta Virtual:                                                         

       2B3g   -0.065860     2B2g   -0.065860     5B1u   -0.005589  
       3B2u    0.022694     3B3u    0.022694     6Ag     0.026420  
       3B3g    0.038404     3B2g    0.038404     7Ag     0.086624  
       6B1u    0.089711     1B1g    0.165789     8Ag     0.165796  
       7B1u    0.190255     4B2u    0.221856     4B3u    0.221856  
       1Au     0.250799     8B1u    0.250802     9Ag     0.250890  
       9B1u    0.278187     4B3g    0.288205     4B2g    0.288205  
       5B2u    0.422518     5B3u    0.422518    10Ag     0.430757  
       6B3u    0.497798     6B2u    0.497798    11Ag     0.512080  
       2B1g    0.512129    10B1u    0.583902     5B3g    0.593617  
       5B2g    0.593617    11B1u    0.610922     2Au     0.610971  
      12Ag     0.633742     6B2g    0.732293     6B3g    0.732293  
      13Ag     0.764223    12B1u    0.814831    13B1u    1.164585  
      14Ag     1.507624     3B1g    1.524257    15Ag     1.524311  
       7B3u    1.541948     7B2u    1.541948     4B1g    1.620677  
      16Ag     1.620888     7B3g    1.624783     7B2g    1.624783  
       3Au     1.639695    14B1u    1.640019    15B1u    1.651489  
       8B3u    1.703120     8B2u    1.703120     9B2u    1.727979  
       9B3u    1.727979     8B2g    1.796866     8B3g    1.796866  
      17Ag     1.860025    10B2u    1.875682    10B3u    1.875682  
       9B3g    1.982515     9B2g    1.982515    16B1u    2.004679  
       4Au     2.004863    17B1u    2.035323    18Ag     2.472454  
      10B2g    2.551696    10B3g    2.551696    18B1u    3.029107  
       5B1g    6.810957    19Ag     6.811061    11B2u    6.827805  
      11B3u    6.827805     5Au     6.840220    19B1u    6.840329  
      20Ag     6.841352    11B3g    6.846612    11B2g    6.846612  
      20B1u    7.040538    12B2u    8.828492    12B3u    8.828492  
      12B3g    8.955003    12B2g    8.955003    21Ag     9.075583  
      21B1u    9.194688    22Ag    18.278632    22B1u   18.962288  

    Final Occupation by Irrep:
             Ag   B1g   B2g   B3g    Au   B1u   B2u   B3u 
    DOCC [     5,    0,    1,    1,    0,    4,    2,    2 ]
    SOCC [     0,    0,    1,    1,    0,    0,    0,    0 ]

  @DF-UKS Final Energy:  -796.36749298574921

   => Energetics <=

    Nuclear Repulsion Energy =             70.4285759976709045
    One-Electron Energy =               -1239.5509341331853648
    Two-Electron Energy =                 400.1800507865045802
    DFT Exchange-Correlation Energy =     -27.4249038767393571
    Empirical Dispersion Energy =          -0.0002817600000000
    VV10 Nonlocal Energy =                  0.0000000000000000
    Total Energy =                       -796.3674929857493225

  UHF NO Occupations:
  HONO-2 :    2B3u 1.9968644
  HONO-1 :    2B3g 1.0000000
  HONO-0 :    2B2g 1.0000000
  LUNO+0 :    3B3u 0.0031356
  LUNO+1 :    3B2u 0.0031356
  LUNO+2 :    5B1u 0.0004252
  LUNO+3 :    6 Ag 0.0003635


Computation Completed


Properties will be evaluated at   0.000000,   0.000000,   0.000000 [a0]

Properties computed using the SCF density matrix

  Nuclear Dipole Moment: [e a0]
     X:     0.0000      Y:     0.0000      Z:     0.0000

  Electronic Dipole Moment: [e a0]
     X:     0.0000      Y:     0.0000      Z:     0.0000

  Dipole Moment: [e a0]
     X:     0.0000      Y:     0.0000      Z:     0.0000     Total:     0.0000

  Dipole Moment: [D]
     X:     0.0000      Y:     0.0000      Z:     0.0000     Total:     0.0000


*** tstop() called on compute399.bc4.acrc.priv at Sun Nov  7 05:04:27 2021
Module time:
	user time   =     122.41 seconds =       2.04 minutes
	system time =       5.47 seconds =       0.09 minutes
	total time  =          6 seconds =       0.10 minutes
Total time:
	user time   =     122.41 seconds =       2.04 minutes
	system time =       5.47 seconds =       0.09 minutes
	total time  =          6 seconds =       0.10 minutes

    Psi4 stopped on: Sunday, 07 November 2021 05:04AM
    Psi4 wall time for execution: 0:00:06.58

*** Psi4 exiting successfully. Buy a developer a beer!
