
    -----------------------------------------------------------------------
          Psi4: An Open-Source Ab Initio Electronic Structure Package
                               Psi4 1.4.1 release

                         Git: Rev {HEAD} cd00f19 


    D. G. A. Smith, L. A. Burns, A. C. Simmonett, R. M. Parrish,
    M. C. Schieber, R. Galvelis, P. Kraus, H. Kruse, R. Di Remigio,
    A. Alenaizan, A. M. James, S. Lehtola, J. P. Misiewicz, M. Scheurer,
    R. A. Shaw, J. B. Schriber, Y. Xie, Z. L. Glick, D. A. Sirianni,
    J. S. O'Brien, J. M. Waldrop, A. Kumar, E. G. Hohenstein,
    B. P. Pritchard, B. R. Brooks, H. F. Schaefer III, A. Yu. Sokolov,
    K. Patkowski, A. E. DePrince III, U. Bozkaya, R. A. King,
    F. A. Evangelista, J. M. Turney, T. D. Crawford, C. D. Sherrill,
    J. Chem. Phys. 152(18) 184108 (2020). https://doi.org/10.1063/5.0006002

                            Additional Code Authors
    E. T. Seidl, C. L. Janssen, E. F. Valeev, M. L. Leininger,
    J. F. Gonthier, R. M. Richard, H. R. McAlexander, M. Saitow, X. Wang,
    P. Verma, and M. H. Lechner

             Previous Authors, Complete List of Code Contributors,
                       and Citations for Specific Modules
    https://github.com/psi4/psi4/blob/master/codemeta.json
    https://github.com/psi4/psi4/graphs/contributors
    http://psicode.org/psi4manual/master/introduction.html#citing-psifour

    -----------------------------------------------------------------------


    Psi4 started on: Sunday, 07 November 2021 05:04AM

    Process ID: 16980
    Host:       compute427.bc4.acrc.priv
    PSIDATADIR: /mnt/storage/home/zw18965/.conda/envs/p4env/share/psi4
    Memory:     500.0 MiB
    Threads:    28
    
  ==> Input File <==

--------------------------------------------------------------------------
memory 120 GB

molecule {
0 1
S          0.00000        0.00000        0.00000
S          0.00000        0.00000        1.90634
S          2.06704        0.00000        2.44872
S          3.00303        0.00000        0.78798
 }

set dynamic_level 1
set basis Def2-TZVPPD

energy("M11-D3BJ")
--------------------------------------------------------------------------

  Memory set to 111.759 GiB by Python driver.

Scratch directory: /tmp/

*** tstart() called on compute427.bc4.acrc.priv
*** at Sun Nov  7 05:04:21 2021

   => Loading Basis Set <=

    Name: DEF2-TZVPPD
    Role: ORBITAL
    Keyword: BASIS
    atoms 1-4 entry S          line   558 file /mnt/storage/home/zw18965/.conda/envs/p4env/share/psi4/basis/def2-tzvppd.gbs 

   => M11-D3(BJ): Empirical Dispersion <=

    Grimme's -D3 (BJ-damping) Dispersion Correction
    Grimme S.; Ehrlich S.; Goerigk L. (2011), J. Comput. Chem., 32: 1456
    Parametrisation from:    L. Goerigk, J. Phys. Chem. Lett. 6, 3891-3896, 2015

        s6 =       1.000000
        s8 =       2.811200
        a1 =       0.000000
        a2 =      10.138900


         ---------------------------------------------------------
                                   SCF
               by Justin Turney, Rob Parrish, Andy Simmonett
                          and Daniel G. A. Smith
                              RKS Reference
                       28 Threads, 114440 MiB Core
         ---------------------------------------------------------

  ==> Geometry <==

    Molecular point group: cs
    Full point group: Cs

    Geometry (in Angstrom), charge = 0, multiplicity = 1:

       Center              X                  Y                   Z               Mass       
    ------------   -----------------  -----------------  -----------------  -----------------
         S            1.267517500000    -1.285760000000     0.000000000000    31.972071174400
         S            1.267517500000     0.620580000000     0.000000000000    31.972071174400
         S           -0.799522500000     1.162960000000     0.000000000000    31.972071174400
         S           -1.735512500000    -0.497780000000     0.000000000000    31.972071174400

  Running in cs symmetry.

  Rotational constants: A =      0.15508  B =      0.07423  C =      0.05020 [cm^-1]
  Rotational constants: A =   4649.03843  B =   2225.39286  C =   1504.98805 [MHz]
  Nuclear repulsion =  333.699844287518260

  Charge       = 0
  Multiplicity = 1
  Electrons    = 64
  Nalpha       = 32
  Nbeta        = 32

  ==> Algorithm <==

  SCF Algorithm Type is DF.
  DIIS enabled.
  MOM disabled.
  Fractional occupation disabled.
  Guess Type is SAD.
  Energy threshold   = 1.00e-06
  Density threshold  = 1.00e-06
  Integral threshold = 1.00e-12

  ==> Primary Basis <==

  Basis Set: DEF2-TZVPPD
    Blend: DEF2-TZVPPD
    Number of shells: 68
    Number of basis functions: 204
    Number of Cartesian functions: 232
    Spherical Harmonics?: true
    Max angular momentum: 3

  ==> DFT Potential <==

   => Composite Functional: M11-D3BJ <= 

    M11 Meta-GGA XC Functional
(10.1021/jz201170d)
    R. Peverati and D. G. Truhlar, J. Phys. Chem. Lett., 2, 2810, 2011


    Deriv               =              1
    GGA                 =           TRUE
    Meta                =           TRUE

    Exchange Hybrid     =           TRUE
    MP2 Hybrid          =          FALSE

   => Exchange Functionals <=

    1.0000   XC_HYB_MGGA_X_M11 [omega = 0.2500]

   => Exact (HF) Exchange <=

    0.5720            HF,LR [omega = 0.2500]
    0.4280               HF 

   => Correlation Functionals <=

    1.0000    XC_MGGA_C_M11

   => LibXC Density Thresholds  <==

    XC_MGGA_C_M11:  1.00E-15 
    XC_HYB_MGGA_X_M11:  1.00E-11 

   => Molecular Quadrature <=

    Radial Scheme          =       TREUTLER
    Pruning Scheme         =           NONE
    Nuclear Scheme         =       TREUTLER

    BS radius alpha        =              1
    Pruning alpha          =              1
    Radial Points          =             75
    Spherical Points       =            302
    Total Points           =          87839
    Total Blocks           =            760
    Max Points             =            256
    Max Functions          =            191
    Weights Tolerance      =       1.00E-15

   => Loading Basis Set <=

    Name: (DEF2-TZVPPD AUX)
    Role: JKFIT
    Keyword: DF_BASIS_SCF
    atoms 1-4 entry S          line   903 file /mnt/storage/home/zw18965/.conda/envs/p4env/share/psi4/basis/def2-universal-jkfit.gbs 

  ==> Integral Setup <==

  DFHelper Memory: AOs need 0.324 GiB; user supplied 82.884 GiB. Using in-core AOs.

  ==> MemDFJK: Density-Fitted J/K Matrices <==

    J tasked:                   Yes
    K tasked:                   Yes
    wK tasked:                  Yes
    Omega:                2.500E-01
    OpenMP threads:              28
    Memory [MiB]:             84873
    Algorithm:                 Core
    Schwarz Cutoff:           1E-12
    Mask sparsity (%):       3.8591
    Fitting Condition:        1E-10

   => Auxiliary Basis Set <=

  Basis Set: (DEF2-TZVPPD AUX)
    Blend: DEF2-UNIVERSAL-JKFIT
    Number of shells: 152
    Number of basis functions: 512
    Number of Cartesian functions: 620
    Spherical Harmonics?: true
    Max angular momentum: 4

  Cached 100.0% of DFT collocation blocks in 0.935 [GiB].

  Minimum eigenvalue in the overlap matrix is 4.0732655797E-04.
  Reciprocal condition number of the overlap matrix is 5.5295785063E-05.
    Using symmetric orthogonalization.

  ==> Pre-Iterations <==

  SCF Guess: Superposition of Atomic Densities via on-the-fly atomic UHF (no occupation information).

   -------------------------
    Irrep   Nso     Nmo    
   -------------------------
     A'       136     136 
     A"        68      68 
   -------------------------
    Total     204     204
   -------------------------

  ==> Iterations <==

                           Total Energy        Delta E     RMS |[F,P]|

   @DF-RKS iter SAD: -1592.57716006301371   -1.59258e+03   0.00000e+00 
   @DF-RKS iter   1: -1592.66080397392466   -8.36439e-02   3.89702e-03 DIIS
   @DF-RKS iter   2: -1592.61608839457176    4.47156e-02   3.49232e-03 DIIS
   @DF-RKS iter   3: -1592.72962721800832   -1.13539e-01   1.30918e-03 DIIS
   @DF-RKS iter   4: -1592.74922082677563   -1.95936e-02   6.89382e-05 DIIS
   @DF-RKS iter   5: -1592.74938423524122   -1.63408e-04   2.13463e-05 DIIS
   @DF-RKS iter   6: -1592.74939952054388   -1.52853e-05   1.01015e-05 DIIS
   @DF-RKS iter   7: -1592.74940412464616   -4.60410e-06   4.33439e-06 DIIS
   @DF-RKS iter   8: -1592.74940542704644   -1.30240e-06   1.45569e-06 DIIS
   @DF-RKS iter   9: -1592.74940555788635   -1.30840e-07   6.08102e-07 DIIS
  Energy and wave function converged.


  ==> Post-Iterations <==

   Electrons on quadrature grid:
      Ntotal   =   63.9999868146 ; deviation = -1.319e-05 

    Orbital Energies [Eh]
    ---------------------

    Doubly Occupied:                                                      

       1Ap   -89.518105     2Ap   -89.518097     3Ap   -89.448243  
       4Ap   -89.448230     5Ap    -8.192396     6Ap    -8.192326  
       7Ap    -8.126945     8Ap    -8.126919     9Ap    -6.183764  
      10Ap    -6.183651     1App   -6.181596     2App   -6.181584  
      11Ap    -6.180916    12Ap    -6.180906    13Ap    -6.119536  
      14Ap    -6.119521     3App   -6.116208     4App   -6.116200  
      15Ap    -6.113309    16Ap    -6.113294    17Ap    -1.014287  
      18Ap    -0.937349    19Ap    -0.796513    20Ap    -0.697044  
      21Ap    -0.560803    22Ap    -0.524394     5App   -0.516411  
      23Ap    -0.468169     6App   -0.435727    24Ap    -0.366588  
      25Ap    -0.361058     7App   -0.318839  

    Virtual:                                                              

       8App   -0.098518    26Ap    -0.006221    27Ap    -0.002453  
      28Ap     0.010093    29Ap     0.017044     9App    0.027008  
      30Ap     0.031316    31Ap     0.036007    10App    0.045010  
      11App    0.045221    32Ap     0.047903    33Ap     0.062593  
      34Ap     0.066572    12App    0.069238    35Ap     0.084081  
      36Ap     0.088000    37Ap     0.114056    13App    0.151582  
      38Ap     0.173192    14App    0.181087    39Ap     0.193990  
      40Ap     0.196926    41Ap     0.207841    42Ap     0.214619  
      43Ap     0.219760    44Ap     0.231040    45Ap     0.248781  
      15App    0.249598    16App    0.255855    17App    0.261470  
      46Ap     0.272866    18App    0.281286    47Ap     0.302071  
      48Ap     0.305562    19App    0.310033    49Ap     0.314112  
      50Ap     0.331824    51Ap     0.348600    20App    0.359765  
      21App    0.401221    52Ap     0.421886    53Ap     0.429070  
      54Ap     0.446661    22App    0.447532    55Ap     0.451392  
      23App    0.468970    24App    0.472716    56Ap     0.485237  
      57Ap     0.515711    58Ap     0.519402    25App    0.542319  
      26App    0.560008    27App    0.564392    59Ap     0.571450  
      60Ap     0.575646    28App    0.580430    61Ap     0.594136  
      62Ap     0.600174    63Ap     0.616091    29App    0.639454  
      64Ap     0.647426    30App    0.685627    65Ap     0.687057  
      66Ap     0.687811    31App    0.693093    67Ap     0.712494  
      32App    0.747102    68Ap     0.755175    69Ap     0.762334  
      70Ap     0.779109    71Ap     0.814278    72Ap     0.841535  
      73Ap     0.917242    74Ap     1.091539    75Ap     1.131767  
      76Ap     1.256900    33App    1.403983    77Ap     1.409326  
      78Ap     1.454628    79Ap     1.485972    34App    1.487967  
      35App    1.532281    80Ap     1.533996    36App    1.534842  
      81Ap     1.562387    82Ap     1.567225    37App    1.570569  
      38App    1.585342    83Ap     1.600670    84Ap     1.612752  
      39App    1.614139    85Ap     1.618694    40App    1.619431  
      41App    1.621488    86Ap     1.655070    87Ap     1.657762  
      42App    1.662481    88Ap     1.668937    89Ap     1.672907  
      43App    1.673769    90Ap     1.702773    44App    1.716160  
      45App    1.724109    46App    1.743804    91Ap     1.748625  
      47App    1.768926    92Ap     1.801528    93Ap     1.827908  
      94Ap     1.833875    48App    1.842347    49App    1.904750  
      50App    1.917473    95Ap     1.931367    96Ap     1.949344  
      51App    1.951600    97Ap     1.959720    98Ap     1.968379  
      52App    1.999341    99Ap     2.008798   100Ap     2.009650  
     101Ap     2.037389   102Ap     2.072878   103Ap     2.085452  
      53App    2.095522   104Ap     2.115070    54App    2.337633  
     105Ap     2.421434   106Ap     2.493502   107Ap     2.502507  
      55App    2.532735   108Ap     2.574938    56App    2.578431  
     109Ap     2.724357   110Ap     3.020655   111Ap     3.174812  
     112Ap     3.193883   113Ap     6.770695    57App    6.776365  
      58App    6.792737    59App    6.812244   114Ap     6.812272  
      60App    6.817065   115Ap     6.823245    61App    6.825088  
     116Ap     6.828206    62App    6.842586    63App    6.856785  
     117Ap     6.858665    64App    6.869560   118Ap     6.872747  
     119Ap     6.882845   120Ap     6.920480   121Ap     6.920919  
     122Ap     6.953695   123Ap     7.075427   124Ap     7.095598  
      65App    8.792007    66App    8.860365   125Ap     8.919654  
      67App    8.919915    68App    8.979355   126Ap     8.990537  
     127Ap     9.029479   128Ap     9.111771   129Ap     9.142587  
     130Ap     9.189317   131Ap     9.326233   132Ap     9.358240  
     133Ap    18.373791   134Ap    18.951833   135Ap    19.135002  
     136Ap    19.325297  

    Final Occupation by Irrep:
             Ap   App 
    DOCC [    25,    7 ]

  @DF-RKS Final Energy: -1592.74940555788635

   => Energetics <=

    Nuclear Repulsion Energy =            333.6998442875182604
    One-Electron Energy =               -2863.9826401285372413
    Two-Electron Energy =                 992.4529065827288150
    DFT Exchange-Correlation Energy =     -54.9178824495961351
    Empirical Dispersion Energy =          -0.0016338500000000
    VV10 Nonlocal Energy =                  0.0000000000000000
    Total Energy =                      -1592.7494055578863481

Computation Completed


Properties will be evaluated at   0.000000,   0.000000,   0.000000 [a0]

Properties computed using the SCF density matrix

  Nuclear Dipole Moment: [e a0]
     X:    -0.0000      Y:    -0.0000      Z:     0.0000

  Electronic Dipole Moment: [e a0]
     X:     0.1424      Y:     0.5427      Z:     0.0000

  Dipole Moment: [e a0]
     X:     0.1424      Y:     0.5427      Z:     0.0000     Total:     0.5610

  Dipole Moment: [D]
     X:     0.3619      Y:     1.3793      Z:     0.0000     Total:     1.4260


*** tstop() called on compute427.bc4.acrc.priv at Sun Nov  7 05:04:26 2021
Module time:
	user time   =      64.86 seconds =       1.08 minutes
	system time =       4.96 seconds =       0.08 minutes
	total time  =          5 seconds =       0.08 minutes
Total time:
	user time   =      64.86 seconds =       1.08 minutes
	system time =       4.96 seconds =       0.08 minutes
	total time  =          5 seconds =       0.08 minutes

    Psi4 stopped on: Sunday, 07 November 2021 05:04AM
    Psi4 wall time for execution: 0:00:04.78

*** Psi4 exiting successfully. Buy a developer a beer!
