
    -----------------------------------------------------------------------
          Psi4: An Open-Source Ab Initio Electronic Structure Package
                               Psi4 1.4.1 release

                         Git: Rev {HEAD} cd00f19 


    D. G. A. Smith, L. A. Burns, A. C. Simmonett, R. M. Parrish,
    M. C. Schieber, R. Galvelis, P. Kraus, H. Kruse, R. Di Remigio,
    A. Alenaizan, A. M. James, S. Lehtola, J. P. Misiewicz, M. Scheurer,
    R. A. Shaw, J. B. Schriber, Y. Xie, Z. L. Glick, D. A. Sirianni,
    J. S. O'Brien, J. M. Waldrop, A. Kumar, E. G. Hohenstein,
    B. P. Pritchard, B. R. Brooks, H. F. Schaefer III, A. Yu. Sokolov,
    K. Patkowski, A. E. DePrince III, U. Bozkaya, R. A. King,
    F. A. Evangelista, J. M. Turney, T. D. Crawford, C. D. Sherrill,
    J. Chem. Phys. 152(18) 184108 (2020). https://doi.org/10.1063/5.0006002

                            Additional Code Authors
    E. T. Seidl, C. L. Janssen, E. F. Valeev, M. L. Leininger,
    J. F. Gonthier, R. M. Richard, H. R. McAlexander, M. Saitow, X. Wang,
    P. Verma, and M. H. Lechner

             Previous Authors, Complete List of Code Contributors,
                       and Citations for Specific Modules
    https://github.com/psi4/psi4/blob/master/codemeta.json
    https://github.com/psi4/psi4/graphs/contributors
    http://psicode.org/psi4manual/master/introduction.html#citing-psifour

    -----------------------------------------------------------------------


    Psi4 started on: Sunday, 07 November 2021 05:04AM

    Process ID: 21914
    Host:       compute429.bc4.acrc.priv
    PSIDATADIR: /mnt/storage/home/zw18965/.conda/envs/p4env/share/psi4
    Memory:     500.0 MiB
    Threads:    28
    
  ==> Input File <==

--------------------------------------------------------------------------
memory 120 GB

molecule {
0 6
V          0.00000        0.00000        0.00000
 }

set reference uks
set dynamic_level 1
set basis Def2-TZVPPD

energy("M11-D3BJ")
--------------------------------------------------------------------------

  Memory set to 111.759 GiB by Python driver.

Scratch directory: /tmp/

*** tstart() called on compute429.bc4.acrc.priv
*** at Sun Nov  7 05:04:26 2021

   => Loading Basis Set <=

    Name: DEF2-TZVPPD
    Role: ORBITAL
    Keyword: BASIS
    atoms 1 entry V          line   924 file /mnt/storage/home/zw18965/.conda/envs/p4env/share/psi4/basis/def2-tzvppd.gbs 

   => M11-D3(BJ): Empirical Dispersion <=

    Grimme's -D3 (BJ-damping) Dispersion Correction
    Grimme S.; Ehrlich S.; Goerigk L. (2011), J. Comput. Chem., 32: 1456
    Parametrisation from:    L. Goerigk, J. Phys. Chem. Lett. 6, 3891-3896, 2015

        s6 =       1.000000
        s8 =       2.811200
        a1 =       0.000000
        a2 =      10.138900


         ---------------------------------------------------------
                                   SCF
               by Justin Turney, Rob Parrish, Andy Simmonett
                          and Daniel G. A. Smith
                              UKS Reference
                       28 Threads, 114440 MiB Core
         ---------------------------------------------------------

  ==> Geometry <==

    Molecular point group: d2h
    Geometry (in Angstrom), charge = 0, multiplicity = 6:

       Center              X                  Y                   Z               Mass       
    ------------   -----------------  -----------------  -----------------  -----------------
         V            0.000000000000     0.000000000000     0.000000000000    50.943957040000

  Running in d2h symmetry.

  Rotational constants: A = ************  B = ************  C = ************ [cm^-1]
  Rotational constants: A = ************  B = ************  C = ************ [MHz]
  Nuclear repulsion =    0.000000000000000

  Charge       = 0
  Multiplicity = 6
  Electrons    = 23
  Nalpha       = 14
  Nbeta        = 9

  ==> Algorithm <==

  SCF Algorithm Type is DF.
  DIIS enabled.
  MOM disabled.
  Fractional occupation disabled.
  Guess Type is CORE.
  Energy threshold   = 1.00e-06
  Density threshold  = 1.00e-06
  Integral threshold = 1.00e-12

  ==> Primary Basis <==

  Basis Set: DEF2-TZVPPD
    Blend: DEF2-TZVPPD
    Number of shells: 19
    Number of basis functions: 67
    Number of Cartesian functions: 83
    Spherical Harmonics?: true
    Max angular momentum: 4

  ==> DFT Potential <==

   => Composite Functional: M11-D3BJ <= 

    M11 Meta-GGA XC Functional
(10.1021/jz201170d)
    R. Peverati and D. G. Truhlar, J. Phys. Chem. Lett., 2, 2810, 2011


    Deriv               =              1
    GGA                 =           TRUE
    Meta                =           TRUE

    Exchange Hybrid     =           TRUE
    MP2 Hybrid          =          FALSE

   => Exchange Functionals <=

    1.0000   XC_HYB_MGGA_X_M11 [omega = 0.2500]

   => Exact (HF) Exchange <=

    0.5720            HF,LR [omega = 0.2500]
    0.4280               HF 

   => Correlation Functionals <=

    1.0000    XC_MGGA_C_M11

   => LibXC Density Thresholds  <==

    XC_MGGA_C_M11:  1.00E-15 
    XC_HYB_MGGA_X_M11:  1.00E-11 

   => Molecular Quadrature <=

    Radial Scheme          =       TREUTLER
    Pruning Scheme         =           NONE
    Nuclear Scheme         =       TREUTLER

    BS radius alpha        =              1
    Pruning alpha          =              1
    Radial Points          =             75
    Spherical Points       =            302
    Total Points           =          22040
    Total Blocks           =            248
    Max Points             =            245
    Max Functions          =             67
    Weights Tolerance      =       1.00E-15

   => Loading Basis Set <=

    Name: (DEF2-TZVPPD AUX)
    Role: JKFIT
    Keyword: DF_BASIS_SCF
    atoms 1 entry V          line  1600 file /mnt/storage/home/zw18965/.conda/envs/p4env/share/psi4/basis/def2-universal-jkfit.gbs 

  ==> Integral Setup <==

  DFHelper Memory: AOs need 0.020 GiB; user supplied 83.727 GiB. Using in-core AOs.

  ==> MemDFJK: Density-Fitted J/K Matrices <==

    J tasked:                   Yes
    K tasked:                   Yes
    wK tasked:                  Yes
    Omega:                2.500E-01
    OpenMP threads:              28
    Memory [MiB]:             85735
    Algorithm:                 Core
    Schwarz Cutoff:           1E-12
    Mask sparsity (%):       0.0000
    Fitting Condition:        1E-10

   => Auxiliary Basis Set <=

  Basis Set: (DEF2-TZVPPD AUX)
    Blend: DEF2-UNIVERSAL-JKFIT
    Number of shells: 58
    Number of basis functions: 264
    Number of Cartesian functions: 377
    Spherical Harmonics?: true
    Max angular momentum: 6

  Cached 100.0% of DFT collocation blocks in 0.092 [GiB].

  Minimum eigenvalue in the overlap matrix is 3.6743538076E-02.
  Reciprocal condition number of the overlap matrix is 1.2975168697E-02.
    Using symmetric orthogonalization.

  ==> Pre-Iterations <==

  SCF Guess: Core (One-Electron) Hamiltonian.

   -------------------------------------------------------
    Irrep   Nso     Nmo     Nalpha   Nbeta   Ndocc  Nsocc
   -------------------------------------------------------
     Ag        17      17       5       3       3       2
     B1g        6       6       1       0       0       1
     B2g        6       6       1       0       0       1
     B3g        6       6       1       0       0       1
     Au         2       2       0       0       0       0
     B1u       10      10       2       2       2       0
     B2u       10      10       2       2       2       0
     B3u       10      10       2       2       2       0
   -------------------------------------------------------
    Total      67      67      14       9       9       5
   -------------------------------------------------------

  ==> Iterations <==

                           Total Energy        Delta E     RMS |[F,P]|

    Occupation by irrep:
             Ag   B1g   B2g   B3g    Au   B1u   B2u   B3u 
    DOCC [     3,    0,    0,    0,    0,    2,    2,    2 ]
    SOCC [     1,    0,    0,    1,    0,    1,    1,    1 ]

   @DF-UKS iter   1:  -925.48068805470780   -9.25481e+02   2.06182e-01 DIIS
    Occupation by irrep:
             Ag   B1g   B2g   B3g    Au   B1u   B2u   B3u 
    DOCC [     3,    0,    0,    0,    0,    2,    2,    2 ]
    SOCC [     2,    1,    1,    1,    0,    0,    0,    0 ]

   @DF-UKS iter   2:  -906.75333983622818    1.87273e+01   2.55107e-01 DIIS
    Occupation by irrep:
             Ag   B1g   B2g   B3g    Au   B1u   B2u   B3u 
    DOCC [     3,    0,    0,    0,    0,    2,    2,    2 ]
    SOCC [     1,    0,    0,    1,    0,    1,    1,    1 ]

   @DF-UKS iter   3:  -943.03467094047289   -3.62813e+01   4.52413e-02 DIIS
    Occupation by irrep:
             Ag   B1g   B2g   B3g    Au   B1u   B2u   B3u 
    DOCC [     3,    0,    0,    0,    0,    2,    2,    2 ]
    SOCC [     2,    1,    1,    1,    0,    0,    0,    0 ]

   @DF-UKS iter   4:  -941.10376479362799    1.93091e+00   6.73028e-02 DIIS
   @DF-UKS iter   5:  -943.59110603372960   -2.48734e+00   2.07796e-02 DIIS
   @DF-UKS iter   6:  -943.72845554282037   -1.37350e-01   7.31185e-03 DIIS
   @DF-UKS iter   7:  -943.74877517127800   -2.03196e-02   7.06516e-04 DIIS
   @DF-UKS iter   8:  -943.74910418516731   -3.29014e-04   2.38471e-04 DIIS
   @DF-UKS iter   9:  -943.74912939157878   -2.52064e-05   1.49391e-05 DIIS
   @DF-UKS iter  10:  -943.74913072592631   -1.33435e-06   1.56230e-05 DIIS
   @DF-UKS iter  11:  -943.74912942377284    1.30215e-06   1.24836e-05 DIIS
   @DF-UKS iter  12:  -943.74912808777071    1.33600e-06   3.94458e-06 DIIS
   @DF-UKS iter  13:  -943.74912809031389   -2.54317e-09   5.92419e-06 DIIS
   @DF-UKS iter  14:  -943.74912809941748   -9.10359e-09   3.30917e-07 DIIS
  Energy and wave function converged.


  ==> Post-Iterations <==

   Electrons on quadrature grid:
      Nalpha   =   13.9999998310 ; deviation = -1.690e-07
      Nbeta    =    8.9999998309 ; deviation = -1.691e-07
      Ntotal   =   22.9999996619 ; deviation = -3.381e-07 

   @Spin Contamination Metric:   2.337260622E-04
   @S^2 Expected:                8.750000000E+00
   @S^2 Observed:                8.750233726E+00
   @S   Expected:                2.500000000E+00
   @S   Observed:                2.500000000E+00

    Orbital Energies [Eh]
    ---------------------

    Alpha Occupied:                                                       

       1Ag  -197.421374     2Ag   -22.214223     1B2u  -18.765033  
       1B1u  -18.765033     1B3u  -18.765033     3Ag    -2.587047  
       2B3u   -1.641820     2B1u   -1.641820     2B2u   -1.641820  
       4Ag    -0.168585     1B1g   -0.168585     1B2g   -0.168585  
       5Ag    -0.168585     1B3g   -0.168585  

    Alpha Virtual:                                                        

       6Ag    -0.004419     3B1u    0.024107     3B2u    0.024107  
       3B3u    0.024107     4B3u    0.134401     4B1u    0.134401  
       4B2u    0.134401     7Ag     0.190068     8Ag     0.203044  
       2B3g    0.203044     2B1g    0.203044     2B2g    0.203044  
       9Ag     0.203044     5B3u    0.509148     5B2u    0.509148  
       5B1u    0.509148    10Ag     0.777391     3B2g    0.777391  
       3B1g    0.777391    11Ag     0.777391     3B3g    0.777391  
       6B3u    1.284533     6B1u    1.284533     6B2u    1.284533  
       7B3u    1.284533     1Au     1.284533     7B2u    1.284533  
       7B1u    1.284533     8B2u    1.888200     8B1u    1.888200  
       8B3u    1.888201    12Ag     2.059829    13Ag     2.646081  
       4B1g    2.646081     4B2g    2.646081     4B3g    2.646081  
      14Ag     2.646081    15Ag     4.314178     5B2g    4.314178  
       5B1g    4.314178    16Ag     4.314178     5B3g    4.314178  
       6B3g    4.314178     6B2g    4.314178     6B1g    4.314178  
      17Ag     4.314178     9B3u    4.824748     9B2u    4.824748  
       9B1u    4.824748     2Au     4.824748    10B3u    4.824748  
      10B2u    4.824748    10B1u    4.824748  

    Beta Occupied:                                                        

       1Ag  -197.423245     2Ag   -22.177682     1B3u  -18.732007  
       1B2u  -18.732007     1B1u  -18.732007     3Ag    -2.441065  
       2B3u   -1.472019     2B1u   -1.472019     2B2u   -1.472019  

    Beta Virtual:                                                         

       3B2u   -0.075242     3B1u   -0.075242     3B3u   -0.075242  
       4Ag    -0.041194     5Ag     0.109794     1B1g    0.109794  
       1B2g    0.109794     6Ag     0.109795     1B3g    0.109795  
       4B3u    0.135770     4B2u    0.135770     4B1u    0.135770  
       7Ag     0.194077     8Ag     0.306932     2B1g    0.306932  
       2B2g    0.306932     9Ag     0.306932     2B3g    0.306932  
       5B3u    0.529893     5B2u    0.529893     5B1u    0.529893  
       3B1g    0.841020     3B2g    0.841020    10Ag     0.841020  
      11Ag     0.841020     3B3g    0.841020     6B3u    1.370870  
       6B1u    1.370870     6B2u    1.370870     1Au     1.370870  
       7B3u    1.370870     7B2u    1.370870     7B1u    1.370870  
       8B3u    1.932676     8B2u    1.932676     8B1u    1.932676  
      12Ag     2.104367    13Ag     2.705958     4B1g    2.705958  
       4B2g    2.705958    14Ag     2.705958     4B3g    2.705958  
      15Ag     4.416857     5B2g    4.416857     5B1g    4.416857  
       5B3g    4.416857    16Ag     4.416857     6B2g    4.416857  
       6B1g    4.416857     6B3g    4.416857    17Ag     4.416857  
       9B3u    4.932519     9B2u    4.932519     9B1u    4.932519  
       2Au     4.932519    10B2u    4.932519    10B1u    4.932519  
      10B3u    4.932519  

    Final Occupation by Irrep:
             Ag   B1g   B2g   B3g    Au   B1u   B2u   B3u 
    DOCC [     3,    0,    0,    0,    0,    2,    2,    2 ]
    SOCC [     2,    1,    1,    1,    0,    0,    0,    0 ]

  @DF-UKS Final Energy:  -943.74912809941748

   => Energetics <=

    Nuclear Repulsion Energy =              0.0000000000000000
    One-Electron Energy =               -1299.7095575958701374
    Two-Electron Energy =                 380.5729020851296696
    DFT Exchange-Correlation Energy =     -24.6124725886770968
    Empirical Dispersion Energy =           0.0000000000000000
    VV10 Nonlocal Energy =                  0.0000000000000000
    Total Energy =                       -943.7491280994174758

  UHF NO Occupations:
  HONO-2 :    1B1g 1.0000000
  HONO-1 :    1B3g 1.0000000
  HONO-0 :    1B2g 1.0000000
  LUNO+0 :    3B1u 0.0000365
  LUNO+1 :    3B2u 0.0000365
  LUNO+2 :    3B3u 0.0000365
  LUNO+3 :    6 Ag 0.0000073


Computation Completed


Properties will be evaluated at   0.000000,   0.000000,   0.000000 [a0]

Properties computed using the SCF density matrix

  Nuclear Dipole Moment: [e a0]
     X:     0.0000      Y:     0.0000      Z:     0.0000

  Electronic Dipole Moment: [e a0]
     X:     0.0000      Y:     0.0000      Z:     0.0000

  Dipole Moment: [e a0]
     X:     0.0000      Y:     0.0000      Z:     0.0000     Total:     0.0000

  Dipole Moment: [D]
     X:     0.0000      Y:     0.0000      Z:     0.0000     Total:     0.0000


*** tstop() called on compute429.bc4.acrc.priv at Sun Nov  7 05:04:32 2021
Module time:
	user time   =      99.68 seconds =       1.66 minutes
	system time =       4.24 seconds =       0.07 minutes
	total time  =          6 seconds =       0.10 minutes
Total time:
	user time   =      99.68 seconds =       1.66 minutes
	system time =       4.24 seconds =       0.07 minutes
	total time  =          6 seconds =       0.10 minutes

    Psi4 stopped on: Sunday, 07 November 2021 05:04AM
    Psi4 wall time for execution: 0:00:05.94

*** Psi4 exiting successfully. Buy a developer a beer!
