
    -----------------------------------------------------------------------
          Psi4: An Open-Source Ab Initio Electronic Structure Package
                               Psi4 1.4.1 release

                         Git: Rev {HEAD} cd00f19 


    D. G. A. Smith, L. A. Burns, A. C. Simmonett, R. M. Parrish,
    M. C. Schieber, R. Galvelis, P. Kraus, H. Kruse, R. Di Remigio,
    A. Alenaizan, A. M. James, S. Lehtola, J. P. Misiewicz, M. Scheurer,
    R. A. Shaw, J. B. Schriber, Y. Xie, Z. L. Glick, D. A. Sirianni,
    J. S. O'Brien, J. M. Waldrop, A. Kumar, E. G. Hohenstein,
    B. P. Pritchard, B. R. Brooks, H. F. Schaefer III, A. Yu. Sokolov,
    K. Patkowski, A. E. DePrince III, U. Bozkaya, R. A. King,
    F. A. Evangelista, J. M. Turney, T. D. Crawford, C. D. Sherrill,
    J. Chem. Phys. 152(18) 184108 (2020). https://doi.org/10.1063/5.0006002

                            Additional Code Authors
    E. T. Seidl, C. L. Janssen, E. F. Valeev, M. L. Leininger,
    J. F. Gonthier, R. M. Richard, H. R. McAlexander, M. Saitow, X. Wang,
    P. Verma, and M. H. Lechner

             Previous Authors, Complete List of Code Contributors,
                       and Citations for Specific Modules
    https://github.com/psi4/psi4/blob/master/codemeta.json
    https://github.com/psi4/psi4/graphs/contributors
    http://psicode.org/psi4manual/master/introduction.html#citing-psifour

    -----------------------------------------------------------------------


    Psi4 started on: Sunday, 07 November 2021 05:04AM

    Process ID: 19798
    Host:       compute304.bc4.acrc.priv
    PSIDATADIR: /mnt/storage/home/zw18965/.conda/envs/p4env/share/psi4
    Memory:     500.0 MiB
    Threads:    28
    
  ==> Input File <==

--------------------------------------------------------------------------
memory 120 GB

molecule {
0 4
V          0.00000        0.00000        0.00000
S          0.00000        0.00000        2.04800
 }

set reference uks
set dynamic_level 1
set basis Def2-TZVPPD

energy("M11-D3BJ")
--------------------------------------------------------------------------

  Memory set to 111.759 GiB by Python driver.

Scratch directory: /tmp/

*** tstart() called on compute304.bc4.acrc.priv
*** at Sun Nov  7 05:04:26 2021

   => Loading Basis Set <=

    Name: DEF2-TZVPPD
    Role: ORBITAL
    Keyword: BASIS
    atoms 1 entry V          line   924 file /mnt/storage/home/zw18965/.conda/envs/p4env/share/psi4/basis/def2-tzvppd.gbs 
    atoms 2 entry S          line   558 file /mnt/storage/home/zw18965/.conda/envs/p4env/share/psi4/basis/def2-tzvppd.gbs 

   => M11-D3(BJ): Empirical Dispersion <=

    Grimme's -D3 (BJ-damping) Dispersion Correction
    Grimme S.; Ehrlich S.; Goerigk L. (2011), J. Comput. Chem., 32: 1456
    Parametrisation from:    L. Goerigk, J. Phys. Chem. Lett. 6, 3891-3896, 2015

        s6 =       1.000000
        s8 =       2.811200
        a1 =       0.000000
        a2 =      10.138900


         ---------------------------------------------------------
                                   SCF
               by Justin Turney, Rob Parrish, Andy Simmonett
                          and Daniel G. A. Smith
                              UKS Reference
                       28 Threads, 114440 MiB Core
         ---------------------------------------------------------

  ==> Geometry <==

    Molecular point group: c2v
    Full point group: C_inf_v

    Geometry (in Angstrom), charge = 0, multiplicity = 4:

       Center              X                  Y                   Z               Mass       
    ------------   -----------------  -----------------  -----------------  -----------------
         V            0.000000000000     0.000000000000    -0.789700172274    50.943957040000
         S            0.000000000000     0.000000000000     1.258299827726    31.972071174400

  Running in c2v symmetry.

  Rotational constants: A = ************  B =      0.20460  C =      0.20460 [cm^-1]
  Rotational constants: A = ************  B =   6133.83852  C =   6133.83852 [MHz]
  Nuclear repulsion =   95.086530042265622

  Charge       = 0
  Multiplicity = 4
  Electrons    = 39
  Nalpha       = 21
  Nbeta        = 18

  ==> Algorithm <==

  SCF Algorithm Type is DF.
  DIIS enabled.
  MOM disabled.
  Fractional occupation disabled.
  Guess Type is SAD.
  Energy threshold   = 1.00e-06
  Density threshold  = 1.00e-06
  Integral threshold = 1.00e-12

  ==> Primary Basis <==

  Basis Set: DEF2-TZVPPD
    Blend: DEF2-TZVPPD
    Number of shells: 36
    Number of basis functions: 118
    Number of Cartesian functions: 141
    Spherical Harmonics?: true
    Max angular momentum: 4

  ==> DFT Potential <==

   => Composite Functional: M11-D3BJ <= 

    M11 Meta-GGA XC Functional
(10.1021/jz201170d)
    R. Peverati and D. G. Truhlar, J. Phys. Chem. Lett., 2, 2810, 2011


    Deriv               =              1
    GGA                 =           TRUE
    Meta                =           TRUE

    Exchange Hybrid     =           TRUE
    MP2 Hybrid          =          FALSE

   => Exchange Functionals <=

    1.0000   XC_HYB_MGGA_X_M11 [omega = 0.2500]

   => Exact (HF) Exchange <=

    0.5720            HF,LR [omega = 0.2500]
    0.4280               HF 

   => Correlation Functionals <=

    1.0000    XC_MGGA_C_M11

   => LibXC Density Thresholds  <==

    XC_MGGA_C_M11:  1.00E-15 
    XC_HYB_MGGA_X_M11:  1.00E-11 

   => Molecular Quadrature <=

    Radial Scheme          =       TREUTLER
    Pruning Scheme         =           NONE
    Nuclear Scheme         =       TREUTLER

    BS radius alpha        =              1
    Pruning alpha          =              1
    Radial Points          =             75
    Spherical Points       =            302
    Total Points           =          44350
    Total Blocks           =            435
    Max Points             =            255
    Max Functions          =            117
    Weights Tolerance      =       1.00E-15

   => Loading Basis Set <=

    Name: (DEF2-TZVPPD AUX)
    Role: JKFIT
    Keyword: DF_BASIS_SCF
    atoms 1 entry V          line  1600 file /mnt/storage/home/zw18965/.conda/envs/p4env/share/psi4/basis/def2-universal-jkfit.gbs 
    atoms 2 entry S          line   903 file /mnt/storage/home/zw18965/.conda/envs/p4env/share/psi4/basis/def2-universal-jkfit.gbs 

  ==> Integral Setup <==

  DFHelper Memory: AOs need 0.089 GiB; user supplied 83.514 GiB. Using in-core AOs.

  ==> MemDFJK: Density-Fitted J/K Matrices <==

    J tasked:                   Yes
    K tasked:                   Yes
    wK tasked:                  Yes
    Omega:                2.500E-01
    OpenMP threads:              28
    Memory [MiB]:             85518
    Algorithm:                 Core
    Schwarz Cutoff:           1E-12
    Mask sparsity (%):       0.7756
    Fitting Condition:        1E-10

   => Auxiliary Basis Set <=

  Basis Set: (DEF2-TZVPPD AUX)
    Blend: DEF2-UNIVERSAL-JKFIT
    Number of shells: 96
    Number of basis functions: 392
    Number of Cartesian functions: 532
    Spherical Harmonics?: true
    Max angular momentum: 6

  Cached 100.0% of DFT collocation blocks in 0.305 [GiB].

  Minimum eigenvalue in the overlap matrix is 6.6965923759E-04.
  Reciprocal condition number of the overlap matrix is 1.4006141092E-04.
    Using symmetric orthogonalization.

  ==> Pre-Iterations <==

  SCF Guess: Superposition of Atomic Densities via on-the-fly atomic UHF (no occupation information).

   -------------------------
    Irrep   Nso     Nmo    
   -------------------------
     A1        49      49 
     A2        13      13 
     B1        28      28 
     B2        28      28 
   -------------------------
    Total     118     118
   -------------------------

  ==> Iterations <==

                           Total Energy        Delta E     RMS |[F,P]|

   @DF-UKS iter SAD: -1341.12555071959241   -1.34113e+03   0.00000e+00 
   @DF-UKS iter   1: -1341.80748692104908   -6.81936e-01   1.32830e-02 DIIS
   @DF-UKS iter   2: -1341.67180296088327    1.35684e-01   1.67381e-02 DIIS
   @DF-UKS iter   3: -1342.02873100958413   -3.56928e-01   3.52605e-03 DIIS
   @DF-UKS iter   4: -1342.04857768302827   -1.98467e-02   1.04803e-03 DIIS
   @DF-UKS iter   5: -1342.05169547520950   -3.11779e-03   2.57492e-04 DIIS
   @DF-UKS iter   6: -1342.05237917799923   -6.83703e-04   1.52952e-04 DIIS
   @DF-UKS iter   7: -1342.05288207277863   -5.02895e-04   1.08647e-04 DIIS
   @DF-UKS iter   8: -1342.05323292862295   -3.50856e-04   8.33664e-05 DIIS
   @DF-UKS iter   9: -1342.05348195574697   -2.49027e-04   6.66897e-05 DIIS
   @DF-UKS iter  10: -1342.05370390682970   -2.21951e-04   6.06624e-05 DIIS
   @DF-UKS iter  11: -1342.05390348466881   -1.99578e-04   5.91817e-05 DIIS
   @DF-UKS iter  12: -1342.05430358838794   -4.00104e-04   5.76395e-05 DIIS
   @DF-UKS iter  13: -1342.05455773929771   -2.54151e-04   5.42255e-05 DIIS
   @DF-UKS iter  14: -1342.05517110640039   -6.13367e-04   5.68773e-05 DIIS
   @DF-UKS iter  15: -1342.05509082492608    8.02815e-05   3.36501e-05 DIIS
   @DF-UKS iter  16: -1342.05535257306497   -2.61748e-04   1.23978e-04 DIIS
   @DF-UKS iter  17: -1342.05535716222857   -4.58916e-06   1.12768e-04 DIIS
   @DF-UKS iter  18: -1342.05536036281842   -3.20059e-06   1.05923e-04 DIIS
   @DF-UKS iter  19: -1342.05536235864292   -1.99582e-06   1.01667e-04 DIIS
   @DF-UKS iter  20: -1342.05539103137266   -2.86727e-05   3.60902e-05 DIIS
   @DF-UKS iter  21: -1342.05539525193467   -4.22056e-06   1.21222e-05 DIIS
   @DF-UKS iter  22: -1342.05539550855747   -2.56623e-07   5.62687e-06 DIIS
   @DF-UKS iter  23: -1342.05539573910755   -2.30550e-07   2.43240e-06 DIIS
   @DF-UKS iter  24: -1342.05539582436518   -8.52576e-08   9.24386e-07 DIIS
  Energy and wave function converged.


  ==> Post-Iterations <==

   Electrons on quadrature grid:
      Nalpha   =   20.9999997603 ; deviation = -2.397e-07
      Nbeta    =   18.0000007000 ; deviation = 7.000e-07
      Ntotal   =   39.0000004604 ; deviation = 4.604e-07 

   @Spin Contamination Metric:   5.386659278E-02
   @S^2 Expected:                3.750000000E+00
   @S^2 Observed:                3.803866593E+00
   @S   Expected:                1.500000000E+00
   @S   Observed:                1.500000000E+00

    Orbital Energies [Eh]
    ---------------------

    Alpha Occupied:                                                       

       1A1  -197.616436     2A1   -89.323558     3A1   -22.436503  
       4A1   -18.986610     1B1   -18.982834     1B2   -18.980570  
       5A1    -8.005956     6A1    -5.995575     2B2    -5.995573  
       2B1    -5.994967     7A1    -2.804253     8A1    -1.844134  
       3B2    -1.837565     3B1    -1.832768     9A1    -0.711439  
       4B2    -0.387711    10A1    -0.366430     1A2    -0.342091  
       4B1    -0.315776    11A1    -0.311501     5B2    -0.263743  

    Alpha Virtual:                                                        

      12A1    -0.046976     5B1    -0.008821    13A1     0.004564  
       6B2     0.010622    14A1     0.031378     6B1     0.033556  
      15A1     0.055624     7B1     0.066958     7B2     0.073254  
      16A1     0.112459     8B2     0.112954     8B1     0.118175  
       2A2     0.160217    17A1     0.162520    18A1     0.181698  
       9B2     0.203355     9B1     0.205732    19A1     0.229096  
      20A1     0.266561     3A2     0.267096    21A1     0.308539  
      10B2     0.313576    10B1     0.319070    22A1     0.334225  
      11B2     0.444497    11B1     0.446961    23A1     0.522212  
      12B2     0.586222    12B1     0.593581    24A1     0.615669  
       4A2     0.620421    25A1     0.623784    13B2     0.637001  
      13B1     0.650778     5A2     0.703969    26A1     0.706963  
      27A1     0.739690    14B2     0.789976    14B1     0.802578  
      28A1     0.837735    29A1     1.114374    15B1     1.177611  
      15B2     1.180158     6A2     1.187072    30A1     1.191290  
      16B2     1.355487    16B1     1.370022    31A1     1.585735  
       7A2     1.704338    32A1     1.707443    17B2     1.729748  
      17B1     1.732023    18B1     1.769812    18B2     1.770867  
      33A1     1.783667    19B2     1.816918    19B1     1.817296  
      34A1     1.853997    35A1     1.905294     8A2     1.906442  
      36A1     1.907137    20B1     2.038133    20B2     2.039810  
      37A1     2.132326    21B2     2.239906    21B1     2.254140  
      38A1     2.409870     9A2     2.491692    39A1     2.510667  
      22B2     2.589300    22B1     2.630048    40A1     3.324571  
      10A2     4.161351    41A1     4.163542    23B2     4.173131  
      23B1     4.175799    11A2     4.208792    42A1     4.221843  
      24B2     4.334534    43A1     4.339354    24B1     4.349723  
      25B2     4.642774    25B1     4.651178    44A1     4.672870  
      12A2     4.694513    26B2     4.848289    26B1     4.852069  
      45A1     5.017319    46A1     6.937269    13A2     6.937589  
      27B2     6.980853    27B1     6.981820    47A1     7.091962  
      28B2     9.026817    28B1     9.027587    48A1     9.261932  
      49A1    18.730571  

    Beta Occupied:                                                        

       1A1  -197.616987     2A1   -89.324533     3A1   -22.408811  
       4A1   -18.969322     1B1   -18.953790     1B2   -18.951618  
       5A1    -8.007427     2B1    -5.998700     6A1    -5.997841  
       2B2    -5.994855     7A1    -2.679710     8A1    -1.737336  
       3B2    -1.690342     3B1    -1.689064     9A1    -0.715070  
      10A1    -0.335239     4B1    -0.314245     4B2    -0.308799  

    Beta Virtual:                                                         

      11A1    -0.075559     5B2    -0.036276     5B1    -0.036160  
      12A1     0.000942    13A1     0.035260    14A1     0.056896  
       6B2     0.059981     6B1     0.062451     7B1     0.066017  
       7B2     0.066928    15A1     0.069566     1A2     0.072378  
      16A1     0.112900     8B2     0.126037     8B1     0.127445  
      17A1     0.168174     2A2     0.173702    18A1     0.174203  
       9B2     0.186913     9B1     0.187467    19A1     0.227059  
      20A1     0.260631     3A2     0.260789    21A1     0.304589  
      10B1     0.315855    10B2     0.316263    22A1     0.325563  
      11B2     0.451048    11B1     0.462869    23A1     0.528821  
      12B1     0.582227    12B2     0.583428    24A1     0.620773  
      25A1     0.628447     4A2     0.629254    13B1     0.653661  
      13B2     0.658590    26A1     0.730431    27A1     0.740362  
       5A2     0.741564    14B1     0.814634    14B2     0.818074  
      28A1     0.851343    29A1     1.115074    30A1     1.231012  
       6A2     1.235245    15B1     1.240780    15B2     1.241158  
      16B2     1.382944    16B1     1.386771    31A1     1.585222  
       7A2     1.698674    32A1     1.699506    17B1     1.722537  
      17B2     1.726974    33A1     1.787426    18B2     1.794422  
      18B1     1.804469    19B1     1.809145    19B2     1.809172  
      34A1     1.877182    35A1     1.900756     8A2     1.902822  
      36A1     1.906166    20B1     2.022772    20B2     2.039510  
      37A1     2.130273    21B1     2.247111    21B2     2.250209  
      38A1     2.429193    39A1     2.546101     9A2     2.550046  
      22B2     2.627479    22B1     2.628362    40A1     3.308447  
      41A1     4.243631    10A2     4.244896    23B2     4.247246  
      23B1     4.247375    42A1     4.272576    11A2     4.275134  
      43A1     4.375298    24B1     4.384790    24B2     4.391482  
      25B2     4.738088    25B1     4.739012    44A1     4.746875  
      12A2     4.760044    26B1     4.891804    26B2     4.912377  
      45A1     5.043187    13A2     6.933729    46A1     6.933869  
      27B1     6.974139    27B2     6.979289    47A1     7.087429  
      28B1     9.017248    28B2     9.027742    48A1     9.257118  
      49A1    18.728120  

    Final Occupation by Irrep:
             A1    A2    B1    B2 
    DOCC [    10,    0,    4,    4 ]
    SOCC [     1,    1,    0,    1 ]

  @DF-UKS Final Energy: -1342.05539582436518

   => Energetics <=

    Nuclear Repulsion Energy =             95.0865300422656219
    One-Electron Energy =               -2036.9519898900812223
    Two-Electron Energy =                 638.0924938972573273
    DFT Exchange-Correlation Energy =     -38.2817633538072073
    Empirical Dispersion Energy =          -0.0006665200000000
    VV10 Nonlocal Energy =                  0.0000000000000000
    Total Energy =                      -1342.0553958243656325

  UHF NO Occupations:
  HONO-2 :    5 B2 1.0000000
  HONO-1 :   11 A1 1.0000000
  HONO-0 :    1 A2 1.0000000
  LUNO+0 :    5 B1 0.0206677
  LUNO+1 :   12 A1 0.0051698
  LUNO+2 :    6 B2 0.0011251
  LUNO+3 :   13 A1 0.0000642


Computation Completed


Properties will be evaluated at   0.000000,   0.000000,   0.000000 [a0]

Properties computed using the SCF density matrix

  Nuclear Dipole Moment: [e a0]
     X:     0.0000      Y:     0.0000      Z:     3.7222

  Electronic Dipole Moment: [e a0]
     X:     0.0000      Y:     0.0000      Z:    -6.7915

  Dipole Moment: [e a0]
     X:     0.0000      Y:     0.0000      Z:    -3.0694     Total:     3.0694

  Dipole Moment: [D]
     X:     0.0000      Y:     0.0000      Z:    -7.8015     Total:     7.8015


*** tstop() called on compute304.bc4.acrc.priv at Sun Nov  7 05:04:43 2021
Module time:
	user time   =     395.85 seconds =       6.60 minutes
	system time =      14.69 seconds =       0.24 minutes
	total time  =         17 seconds =       0.28 minutes
Total time:
	user time   =     395.85 seconds =       6.60 minutes
	system time =      14.69 seconds =       0.24 minutes
	total time  =         17 seconds =       0.28 minutes

    Psi4 stopped on: Sunday, 07 November 2021 05:04AM
    Psi4 wall time for execution: 0:00:17.09

*** Psi4 exiting successfully. Buy a developer a beer!
