
                                 *****************
                                 * O   R   C   A *
                                 *****************

           --- An Ab Initio, DFT and Semiempirical electronic structure package ---

                  #######################################################
                  #                        -***-                        #
                  #          Department of theory and spectroscopy      #
                  #               Directorship: Frank Neese             #
                  #        Max Planck Institute fuer Kohlenforschung    #
                  #                Kaiser Wilhelm Platz 1               #
                  #                 D-45470 Muelheim/Ruhr               #
                  #                      Germany                        #
                  #                                                     #
                  #                  All rights reserved                #
                  #                        -***-                        #
                  #######################################################


                         Program Version 4.2.0 -  RELEASE  -


 With contributions from (in alphabetic order):
   Daniel Aravena         : Magnetic Suceptibility
   Michael Atanasov       : Ab Initio Ligand Field Theory (pilot matlab implementation)
   Alexander A. Auer      : GIAO ZORA, VPT2
   Ute Becker             : Parallelization
   Giovanni Bistoni       : ED, misc. LED, open-shell LED, HFLED
   Martin Brehm           : Molecular dynamics
   Dmytro Bykov           : SCF Hessian
   Vijay G. Chilkuri      : MRCI spin determinant printing, contributions to CSF-ICE
   Dipayan Datta          : RHF DLPNO-CCSD density
   Achintya Kumar Dutta   : EOM-CC, STEOM-CC
   Dmitry Ganyushin       : Spin-Orbit,Spin-Spin,Magnetic field MRCI
   Miquel Garcia          : C-PCM Hessian, Gaussian charge scheme
   Yang Guo               : DLPNO-NEVPT2, CIM, IAO-localization
   Andreas Hansen         : Spin unrestricted coupled pair/coupled cluster methods
   Benjamin Helmich-Paris : CASSCF linear response (MC-RPA)
   Lee Huntington         : MR-EOM, pCC
   Robert Izsak           : Overlap fitted RIJCOSX, COSX-SCS-MP3, EOM
   Christian Kollmar      : KDIIS, OOCD, Brueckner-CCSD(T), CCSD density
   Simone Kossmann        : Meta GGA functionals, TD-DFT gradient, OOMP2, MP2 Hessian
   Martin Krupicka        : AUTO-CI
   Lucas Lang             : DCDCAS
   Dagmar Lenk            : GEPOL surface, SMD
   Dimitrios Liakos       : Extrapolation schemes; Compound Job, initial MDCI parallelization
   Dimitrios Manganas     : Further ROCIS development; embedding schemes
   Dimitrios Pantazis     : SARC Basis sets
   Taras Petrenko         : DFT Hessian,TD-DFT gradient, ASA, ECA, R-Raman, ABS, FL, XAS/XES, NRVS
   Peter Pinski           : DLPNO-MP2, DLPNO-MP2 Gradient
   Christoph Reimann      : Effective Core Potentials
   Marius Retegan         : Local ZFS, SOC
   Christoph Riplinger    : Optimizer, TS searches, QM/MM, DLPNO-CCSD(T), (RO)-DLPNO pert. Triples
   Tobias Risthaus        : Range-separated hybrids, TD-DFT gradient, RPA, STAB
   Michael Roemelt        : Original ROCIS implementation
   Masaaki Saitow         : Open-shell DLPNO-CCSD energy and density
   Barbara Sandhoefer     : DKH picture change effects
   Avijit Sen             : IP-ROCIS
   Kantharuban Sivalingam : CASSCF convergence, NEVPT2, FIC-MRCI
   Bernardo de Souza      : ESD, SOC TD-DFT
   Georgi Stoychev        : AutoAux, RI-MP2 NMR
   Willem Van den Heuvel  : Paramagnetic NMR
   Boris Wezisla          : Elementary symmetry handling
   Frank Wennmohs         : Technical directorship


 We gratefully acknowledge several colleagues who have allowed us to
 interface, adapt or use parts of their codes:
   Stefan Grimme, W. Hujo, H. Kruse,             : VdW corrections, initial TS optimization,
                  C. Bannwarth                     DFT functionals, gCP, sTDA/sTD-DF
   Ed Valeev, F. Pavosevic, A. Kumar             : LibInt (2-el integral package), F12 methods
   Garnet Chan, S. Sharma, J. Yang, R. Olivares  : DMRG
   Ulf Ekstrom                                   : XCFun DFT Library
   Mihaly Kallay                                 : mrcc  (arbitrary order and MRCC methods)
   Andreas Klamt, Michael Diedenhofen            : otool_cosmo (COSMO solvation model)
   Jiri Pittner, Ondrej Demel                    : Mk-CCSD
   Frank Weinhold                                : gennbo (NPA and NBO analysis)
   Christopher J. Cramer and Donald G. Truhlar   : smd solvation model
   Lars Goerigk                                  : TD-DFT with DH, B97 family of functionals
   V. Asgeirsson, H. Jonsson                     : NEB implementation
   FAccTs GmbH                                   : IRC, NEB, NEB-TS, Multilevel, MM, QM/MM, CI optimization
   S Lehtola, MJT Oliveira, MAL Marques          : LibXC Library


 Your calculation uses the libint2 library for the computation of 2-el integrals
 For citations please refer to: http://libint.valeyev.net

 Your ORCA version has been built with support for libXC version: 4.2.3
 For citations please refer to: https://tddft.org/programs/libxc/

 This ORCA versions uses:
   CBLAS   interface :  Fast vector & matrix operations
   LAPACKE interface :  Fast linear algebra routines
   SCALAPACK package :  Parallel linear algebra routines


Your calculation utilizes the atom-pairwise dispersion correction
with the Becke-Johnson damping scheme (D3BJ)
Cite in your paper:
S.Grimme, S.Ehrlich, L.Goerigk, J Comput Chem, (2011), 32, 1456–1465 
S.Grimme, J.Antony, S.Ehrlich and H.Krieg, J.Chem.Phys., 132, (2010), 154104 
   

----- Orbital basis set information -----
Your calculation utilizes the basis: def2-TZVPPD
   F. Weigend and R. Ahlrichs, Phys. Chem. Chem. Phys. 7, 3297 (2005).
   D. Rappoport and F. Furche, J. Chem. Phys. 133 134105 (2010).

----- AuxJK basis set information -----
Your calculation utilizes the auxiliary basis: def2/JK
   H-Ba, Hf-Rn: F. Weigend, J. Comput. Chem. 29, 167 (2008).

================================================================================
                                        WARNINGS
                       Please study these warnings very carefully!
================================================================================


WARNING: your system is open-shell and RHF/RKS was chosen
  ===> : WILL SWITCH to UHF/UKS


INFO   : the flag for use of LIBINT has been found!

================================================================================
                                       INPUT FILE
================================================================================
NAME = c.in
|  1> #
|  2> # c TPSSh-D3BJ/Def2-TZVPPD
|  3> #
|  4> ! tpssh d3bj def2-tzvppd def2/jk grid4 nofinalgrid
|  5> 
|  6> *xyz 0 3
|  7> C          0.00000        0.00000        0.00000
|  8> *
|  9> 
| 10> %maxcore 5000
| 11> 
| 12> %pal
| 13> nprocs = 28
| 14> end
| 15> 
| 16> 
| 17>                          ****END OF INPUT****
================================================================================

                       ****************************
                       * Single Point Calculation *
                       ****************************

---------------------------------
CARTESIAN COORDINATES (ANGSTROEM)
---------------------------------
  C      0.000000    0.000000    0.000000

----------------------------
CARTESIAN COORDINATES (A.U.)
----------------------------
  NO LB      ZA    FRAG     MASS         X           Y           Z
   0 C     6.0000    0    12.011    0.000000    0.000000    0.000000

--------------------------------
INTERNAL COORDINATES (ANGSTROEM)
--------------------------------
 C      0   0   0     0.000000000000     0.00000000     0.00000000

---------------------------
INTERNAL COORDINATES (A.U.)
---------------------------
 C      0   0   0     0.000000000000     0.00000000     0.00000000

---------------------
BASIS SET INFORMATION
---------------------
There are 1 groups of distinct atoms

 Group   1 Type C   : 12s6p3d1f contracted to 6s3p3d1f pattern {621111/411/111/1}

Atom   0C    basis set group =>   1
----------------------------------
AUXILIARY/JK BASIS SET INFORMATION
----------------------------------
There are 1 groups of distinct atoms

 Group   1 Type C   : 14s10p6d2f1g contracted to 10s8p5d1f1g pattern {5111111111/31111111/21111/2/1}

Atom   0C    basis set group =>   1


           ************************************************************
           *        Program running with 28 parallel MPI-processes    *
           *              working on a common directory               *
           ************************************************************
------------------------------------------------------------------------------
                           ORCA GTO INTEGRAL CALCULATION
------------------------------------------------------------------------------

                         BASIS SET STATISTICS AND STARTUP INFO

 # of primitive gaussian shells          ...   22
 # of primitive gaussian functions       ...   52
 # of contracted shells                  ...   13
 # of contracted basis functions         ...   37
 Highest angular momentum                ...    3
 Maximum contraction depth               ...    6
 Integral package used                   ... LIBINT
 Integral threshhold            Thresh   ...  1.000e-10
 Primitive cut-off              TCut     ...  1.000e-11


------------------------------ INTEGRAL EVALUATION ----------------------------


 * One electron integrals 
 Pre-screening matrix                    ... done
 Shell pair data                         ... done (   0.000 sec)



           ************************************************************
           *        Program running with 28 parallel MPI-processes    *
           *              working on a common directory               *
           ************************************************************
-------------------------------------------------------------------------------
                                 ORCA SCF
-------------------------------------------------------------------------------

------------
SCF SETTINGS
------------
Hamiltonian:
 Density Functional     Method          .... DFT(GTOs)
 Exchange Functional    Exchange        .... TPSS
 Correlation Functional Correlation     .... TPSS
 LDA part of GGA corr.  LDAOpt          .... PW91-LDA
 Gradients option       PostSCFGGA      .... off
 Hybrid DFT is turned on
   Fraction HF Exchange ScalHFX         ....  0.100000
   Scaling of DF-GGA-X  ScalDFX         ....  0.900000
   Scaling of DF-GGA-C  ScalDFC         ....  1.000000
   Scaling of DF-LDA-C  ScalLDAC        ....  1.000000
   Perturbative correction              ....  0.000000
   Density functional embedding theory  .... OFF
   NL short-range parameter             ....  5.200000


General Settings:
 Integral files         IntName         .... c.in
 Hartree-Fock type      HFTyp           .... UHF
 Total Charge           Charge          ....    0
 Multiplicity           Mult            ....    3
 Number of Electrons    NEL             ....    6
 Basis Dimension        Dim             ....   37
 Nuclear Repulsion      ENuc            ....      0.0000000000 Eh

Convergence Acceleration:
 DIIS                   CNVDIIS         .... on
   Start iteration      DIISMaxIt       ....    12
   Startup error        DIISStart       ....  0.200000
   # of expansion vecs  DIISMaxEq       ....     5
   Bias factor          DIISBfac        ....   1.050
   Max. coefficient     DIISMaxC        ....  10.000
 Newton-Raphson         CNVNR           .... off
 SOSCF                  CNVSOSCF        .... off
 Level Shifting         CNVShift        .... on
   Level shift para.    LevelShift      ....    0.2500
   Turn off err/grad.   ShiftErr        ....    0.0010
 Zerner damping         CNVZerner       .... off
 Static damping         CNVDamp         .... on
   Fraction old density DampFac         ....    0.7000
   Max. Damping (<1)    DampMax         ....    0.9800
   Min. Damping (>=0)   DampMin         ....    0.0000
   Turn off err/grad.   DampErr         ....    0.1000
 Fernandez-Rico         CNVRico         .... off

SCF Procedure:
 Maximum # iterations   MaxIter         ....   125
 SCF integral mode      SCFMode         .... Direct
   Integral package                     .... LIBINT
 Reset frequency        DirectResetFreq ....    20
 Integral Threshold     Thresh          ....  1.000e-10 Eh
 Primitive CutOff       TCut            ....  1.000e-11 Eh

Convergence Tolerance:
 Convergence Check Mode ConvCheckMode   .... Total+1el-Energy
 Convergence forced     ConvForced      .... 0
 Energy Change          TolE            ....  1.000e-06 Eh
 1-El. energy change                    ....  1.000e-03 Eh
 DIIS Error             TolErr          ....  1.000e-06


Diagonalization of the overlap matrix:
Smallest eigenvalue                        ... 8.753e-03
Time for diagonalization                   ...    0.001 sec
Threshold for overlap eigenvalues          ... 1.000e-08
Number of eigenvalues below threshold      ... 0
Time for construction of square roots      ...    0.022 sec
Total time needed                          ...    0.023 sec

-------------------
DFT GRID GENERATION
-------------------

General Integration Accuracy     IntAcc      ...  4.670
Radial Grid Type                 RadialGrid  ... Gauss-Chebyshev
Angular Grid (max. acc.)         AngularGrid ... Lebedev-302
Angular grid pruning method      GridPruning ... 3 (G Style)
Weight generation scheme         WeightScheme... Becke
Basis function cutoff            BFCut       ...    1.0000e-10
Integration weight cutoff        WCut        ...    1.0000e-14
Grids for H and He will be reduced by one unit

# of grid points (after initial pruning)     ...   6212 (   0.0 sec)
# of grid points (after weights+screening)   ...   6212 (   0.0 sec)
Grid point division into batches done        ...    0.0 sec
Reduced shell lists constructed in    0.0 sec

Total number of grid points                  ...     6212
Total number of batches                      ...       98
Average number of points per batch           ...       63
Average number of grid points per atom       ...     6212
Average number of shells per batch           ...     3.20 (24.62%)
Average number of basis functions per batch  ...     8.00 (21.62%)
Average number of large shells per batch     ...     2.40 (75.00%)
Average number of large basis fcns per batch ...     7.20 (90.00%)
Maximum spatial batch extension              ...  18.61, 18.61, 18.61 au
Average spatial batch extension              ...   0.64,  0.64,  0.76 au

Time for grid setup =    1.063 sec

------------------------------
INITIAL GUESS: MODEL POTENTIAL
------------------------------
Loading Hartree-Fock densities                     ... done
Calculating cut-offs                               ... done
Setting up the integral package                    ... done
Initializing the effective Hamiltonian             ... done
Starting the Coulomb interaction                   ... done (   0.0 sec)
Reading the grid                                   ... done
Mapping shells                                     ... done
Starting the XC term evaluation                    ... done (   0.0 sec)
  promolecular density results
     # of electrons  =      5.999999591
     EX              =     -4.928567370
     EC              =     -0.156736544
     EX+EC           =     -5.085303914
Transforming the Hamiltonian                       ... done (   0.0 sec)
Diagonalizing the Hamiltonian                      ... done (   0.0 sec)
Back transforming the eigenvectors                 ... done (   0.0 sec)
Now organizing SCF variables                       ... done
                      ------------------
                      INITIAL GUESS DONE (   1.2 sec)
                      ------------------
--------------
SCF ITERATIONS
--------------
ITER       Energy         Delta-E        Max-DP      RMS-DP      [F,P]     Damp
               ***  Starting incremental Fock matrix formation  ***
  0    -37.8542785919   0.000000000000 0.01068918  0.00054420  0.0380276 0.7000
  1    -37.8566458277  -0.002367235819 0.01045133  0.00051516  0.0267451 0.7000
                               ***Turning on DIIS***
  2    -37.8582845940  -0.001638766318 0.02628266  0.00129112  0.0167849 0.0000
  3    -37.8616700619  -0.003385467880 0.00871371  0.00029953  0.0115715 0.0000
  4    -37.8618973761  -0.000227314164 0.00263967  0.00007370  0.0024937 0.0000
  5    -37.8619141935  -0.000016817440 0.00074361  0.00002961  0.0005558 0.0000
  6    -37.8619156334  -0.000001439870 0.00009880  0.00000305  0.0000649 0.0000
                 **** Energy Check signals convergence ****

               *****************************************************
               *                     SUCCESS                       *
               *           SCF CONVERGED AFTER   7 CYCLES          *
               *****************************************************


----------------
TOTAL SCF ENERGY
----------------

Total Energy       :          -37.86191564 Eh           -1030.27510 eV

Components:
Nuclear Repulsion  :            0.00000000 Eh               0.00000 eV
Electronic Energy  :          -37.86191564 Eh           -1030.27510 eV
One Electron Energy:          -50.47026360 Eh           -1373.36569 eV
Two Electron Energy:           12.60834795 Eh             343.09059 eV

Virial components:
Potential Energy   :          -75.59902096 Eh           -2057.15394 eV
Kinetic Energy     :           37.73710531 Eh            1026.87884 eV
Virial Ratio       :            2.00330736


DFT components:
N(Alpha)           :        4.000000212109 electrons
N(Beta)            :        2.000000203741 electrons
N(Total)           :        6.000000415851 electrons
E(X)               :       -4.585671705060 Eh       
E(C)               :       -0.147799635356 Eh       
E(XC)              :       -4.733471340416 Eh       
DFET-embed. en.    :        0.000000000000 Eh       

---------------
SCF CONVERGENCE
---------------

  Last Energy change         ...   -1.1342e-08  Tolerance :   1.0000e-06
  Last MAX-Density change    ...    7.8334e-06  Tolerance :   1.0000e-05
  Last RMS-Density change    ...    2.3462e-07  Tolerance :   1.0000e-06
  Last DIIS Error            ...    2.8293e-06  Tolerance :   1.0000e-06

             **** THE GBW FILE WAS UPDATED (c.in.gbw) ****
             **** DENSITY FILE WAS UPDATED (c.in.scfp) ****
             **** ENERGY FILE WAS UPDATED (c.in.en.tmp) ****
----------------------
UHF SPIN CONTAMINATION
----------------------

Warning: in a DFT calculation there is little theoretical justification to 
         calculate <S**2> as in Hartree-Fock theory. We will do it anyways
         but you should keep in mind that the values have only limited relevance

Expectation value of <S**2>     :     2.004606
Ideal value S*(S+1) for S=1.0   :     2.000000
Deviation                       :     0.004606

             **** THE GBW FILE WAS UPDATED (c.in.gbw) ****
             **** DENSITY FILE WAS UPDATED (c.in.scfp) ****
----------------
ORBITAL ENERGIES
----------------
                 SPIN UP ORBITALS
  NO   OCC          E(Eh)            E(eV) 
   0   1.0000     -10.247327      -278.8439 
   1   1.0000      -0.577285       -15.7087 
   2   1.0000      -0.252109        -6.8602 
   3   1.0000      -0.252109        -6.8602 
   4   0.0000      -0.170909        -4.6507 
   5   0.0000       0.027242         0.7413 
   6   0.0000       0.197764         5.3814 
   7   0.0000       0.197764         5.3814 
   8   0.0000       0.198343         5.3972 
   9   0.0000       0.198343         5.3972 
  10   0.0000       0.201791         5.4910 
  11   0.0000       0.215154         5.8546 
  12   0.0000       0.215154         5.8546 
  13   0.0000       0.227445         6.1891 
  14   0.0000       0.335537         9.1304 
  15   0.0000       0.805951        21.9310 
  16   0.0000       0.805951        21.9310 
  17   0.0000       0.809213        22.0198 
  18   0.0000       0.809214        22.0198 
  19   0.0000       0.820507        22.3271 
  20   0.0000       1.351762        36.7833 
  21   0.0000       1.351762        36.7833 
  22   0.0000       1.371453        37.3191 
  23   0.0000       1.413459        38.4622 
  24   0.0000       2.653770        72.2128 
  25   0.0000       2.653771        72.2128 
  26   0.0000       2.656036        72.2744 
  27   0.0000       2.658164        72.3323 
  28   0.0000       2.658165        72.3323 
  29   0.0000       2.676137        72.8214 
  30   0.0000       2.676137        72.8214 
  31   0.0000       3.027587        82.3848 
  32   0.0000       3.027588        82.3849 
  33   0.0000       3.032299        82.5131 
  34   0.0000       3.032300        82.5131 
  35   0.0000       3.036199        82.6192 
  36   0.0000      21.458112       583.9049 

                 SPIN DOWN ORBITALS
  NO   OCC          E(Eh)            E(eV) 
   0   1.0000     -10.214758      -277.9577 
   1   1.0000      -0.457490       -12.4489 
   2   0.0000      -0.134294        -3.6543 
   3   0.0000      -0.078115        -2.1256 
   4   0.0000      -0.078115        -2.1256 
   5   0.0000       0.048576         1.3218 
   6   0.0000       0.214987         5.8501 
   7   0.0000       0.218753         5.9526 
   8   0.0000       0.218753         5.9526 
   9   0.0000       0.225243         6.1292 
  10   0.0000       0.225243         6.1292 
  11   0.0000       0.246778         6.7152 
  12   0.0000       0.275594         7.4993 
  13   0.0000       0.275594         7.4993 
  14   0.0000       0.366602         9.9757 
  15   0.0000       0.858236        23.3538 
  16   0.0000       0.869523        23.6609 
  17   0.0000       0.869523        23.6609 
  18   0.0000       0.898464        24.4485 
  19   0.0000       0.898464        24.4485 
  20   0.0000       1.428798        38.8796 
  21   0.0000       1.473161        40.0867 
  22   0.0000       1.473161        40.0867 
  23   0.0000       1.502355        40.8812 
  24   0.0000       2.726617        74.1950 
  25   0.0000       2.734379        74.4062 
  26   0.0000       2.734379        74.4062 
  27   0.0000       2.756050        74.9959 
  28   0.0000       2.756050        74.9959 
  29   0.0000       2.790311        75.9282 
  30   0.0000       2.790311        75.9282 
  31   0.0000       3.134411        85.2917 
  32   0.0000       3.153724        85.8172 
  33   0.0000       3.153724        85.8172 
  34   0.0000       3.203736        87.1781 
  35   0.0000       3.203736        87.1781 
  36   0.0000      21.494891       584.9057 

                    ********************************
                    * MULLIKEN POPULATION ANALYSIS *
                    ********************************

--------------------------------------------
MULLIKEN ATOMIC CHARGES AND SPIN POPULATIONS
--------------------------------------------
   0 C :   -0.000000    2.000000
Sum of atomic charges         :   -0.0000000
Sum of atomic spin populations:    2.0000000

-----------------------------------------------------
MULLIKEN REDUCED ORBITAL CHARGES AND SPIN POPULATIONS
-----------------------------------------------------
CHARGE
  0 C s       :     3.998628  s :     3.998628
      pz      :     0.990745  p :     1.999999
      px      :     0.044413
      py      :     0.964841
      dz2     :     0.000324  d :     0.001372
      dxz     :     0.000036
      dyz     :     0.000001
      dx2y2   :     0.000872
      dxy     :     0.000138
      f0      :     0.000000  f :     0.000001
      f+1     :     0.000000
      f-1     :     0.000000
      f+2     :     0.000000
      f-2     :     0.000000
      f+3     :     0.000000
      f-3     :     0.000000

SPIN
  0 C s       :     0.000786  s :     0.000786
      pz      :     0.990745  p :     1.999999
      px      :     0.044413
      py      :     0.964841
      dz2     :    -0.000186  d :    -0.000786
      dxz     :    -0.000021
      dyz     :    -0.000001
      dx2y2   :    -0.000499
      dxy     :    -0.000079
      f0      :     0.000000  f :     0.000001
      f+1     :     0.000000
      f-1     :     0.000000
      f+2     :     0.000000
      f-2     :     0.000000
      f+3     :     0.000000
      f-3     :     0.000000


                     *******************************
                     * LOEWDIN POPULATION ANALYSIS *
                     *******************************

-------------------------------------------
LOEWDIN ATOMIC CHARGES AND SPIN POPULATIONS
-------------------------------------------
   0 C :   -0.000000    2.000000

----------------------------------------------------
LOEWDIN REDUCED ORBITAL CHARGES AND SPIN POPULATIONS
----------------------------------------------------
CHARGE
  0 C s       :     3.998628  s :     3.998628
      pz      :     0.990745  p :     1.999999
      px      :     0.044413
      py      :     0.964841
      dz2     :     0.000324  d :     0.001372
      dxz     :     0.000036
      dyz     :     0.000001
      dx2y2   :     0.000872
      dxy     :     0.000138
      f0      :     0.000000  f :     0.000001
      f+1     :     0.000000
      f-1     :     0.000000
      f+2     :     0.000000
      f-2     :     0.000000
      f+3     :     0.000000
      f-3     :     0.000000

SPIN
  0 C s       :     0.000786  s :     0.000786
      pz      :     0.990745  p :     1.999999
      px      :     0.044413
      py      :     0.964841
      dz2     :    -0.000186  d :    -0.000786
      dxz     :    -0.000021
      dyz     :    -0.000001
      dx2y2   :    -0.000499
      dxy     :    -0.000079
      f0      :     0.000000  f :     0.000001
      f+1     :     0.000000
      f-1     :     0.000000
      f+2     :     0.000000
      f-2     :     0.000000
      f+3     :     0.000000
      f-3     :     0.000000


                      *****************************
                      * MAYER POPULATION ANALYSIS *
                      *****************************

  NA   - Mulliken gross atomic population
  ZA   - Total nuclear charge
  QA   - Mulliken gross atomic charge
  VA   - Mayer's total valence
  BVA  - Mayer's bonded valence
  FA   - Mayer's free valence

  ATOM       NA         ZA         QA         VA         BVA        FA
  0 C      6.0000     6.0000    -0.0000     2.0092     0.0000     2.0092

  Mayer bond orders larger than 0.100000


-------
TIMINGS
-------

Total SCF time: 0 days 0 hours 0 min 50 sec 

Total time                  ....      50.404 sec
Sum of individual times     ....      49.766 sec  ( 98.7%)

Fock matrix formation       ....      47.613 sec  ( 94.5%)
  XC integration            ....      46.117 sec  ( 96.9% of F)
    Basis function eval.    ....       0.002 sec  (  0.0% of XC)
    Density eval.           ....       0.007 sec  (  0.0% of XC)
    XC-Functional eval.     ....       0.010 sec  (  0.0% of XC)
    XC-Potential eval.      ....       0.006 sec  (  0.0% of XC)
Diagonalization             ....       0.505 sec  (  1.0%)
Density matrix formation    ....       0.002 sec  (  0.0%)
Population analysis         ....       0.420 sec  (  0.8%)
Initial guess               ....       0.112 sec  (  0.2%)
Orbital Transformation      ....       0.000 sec  (  0.0%)
Orbital Orthonormalization  ....       0.000 sec  (  0.0%)
DIIS solution               ....       0.049 sec  (  0.1%)
Grid generation             ....       1.063 sec  (  2.1%)


-------------------------------------------------------------------------------
                          DFT DISPERSION CORRECTION                            
                                                                               
                              DFTD3 V3.1  Rev 1                                
                          USING Becke-Johnson damping                          
-------------------------------------------------------------------------------
The TPSSH functional is recognized
Active option DFTDOPT                   ...         4   

molecular C6(AA) [au] = 48.991680 


            DFT-D V3
 parameters
 s6 scaling factor         :     1.0000 
 a1 scaling factor         :     0.4529 
 s8 scaling factor         :     2.2382 
 a2 scaling factor         :     4.6550 
 ad hoc parameters k1-k3   :    16.0000     1.3333    -4.0000 

 Edisp/kcal,au: -0.000000000000  -0.000000000000 
 E6   /kcal   :  -0.000000000 
 E8   /kcal   :  -0.000000000 
 % E8         :          -nan 

-------------------------   ----------------
Dispersion correction            0.000000000
-------------------------   ----------------


-------------------------   --------------------
FINAL SINGLE POINT ENERGY       -37.861915644725
-------------------------   --------------------


                            ***************************************
                            *     ORCA property calculations      *
                            ***************************************

                                    ---------------------
                                    Active property flags
                                    ---------------------
   (+) Dipole Moment


------------------------------------------------------------------------------
                       ORCA ELECTRIC PROPERTIES CALCULATION
------------------------------------------------------------------------------

Dipole Moment Calculation                       ... on
Quadrupole Moment Calculation                   ... off
Polarizability Calculation                      ... off
GBWName                                         ... c.in.gbw
Electron density file                           ... c.in.scfp
The origin for moment calculation is the CENTER OF MASS  = ( 0.000000,  0.000000  0.000000)

-------------
DIPOLE MOMENT
-------------
                                X             Y             Z
Electronic contribution:     -0.00000      -0.00000      -0.00000
Nuclear contribution   :      0.00000       0.00000       0.00000
                        -----------------------------------------
Total Dipole Moment    :     -0.00000      -0.00000      -0.00000
                        -----------------------------------------
Magnitude (a.u.)       :      0.00000
Magnitude (Debye)      :      0.00000



--------------------
Rotational spectrum 
--------------------
 
Rotational constants in cm-1:     0.000000     0.000000     0.000000 
Rotational constants in MHz :     0.000000     0.000000     0.000000 

 Dipole components along the rotational axes: 
x,y,z [a.u.] :    -0.000000    -0.000000    -0.000000 
x,y,z [Debye]:    -0.000000    -0.000000    -0.000000 

 

Timings for individual modules:

Sum of individual times         ...       53.552 sec (=   0.893 min)
GTO integral calculation        ...        2.472 sec (=   0.041 min)   4.6 %
SCF iterations                  ...       51.080 sec (=   0.851 min)  95.4 %
                             ****ORCA TERMINATED NORMALLY****
TOTAL RUN TIME: 0 days 0 hours 1 minutes 29 seconds 196 msec
