
                                 *****************
                                 * O   R   C   A *
                                 *****************

           --- An Ab Initio, DFT and Semiempirical electronic structure package ---

                  #######################################################
                  #                        -***-                        #
                  #          Department of theory and spectroscopy      #
                  #               Directorship: Frank Neese             #
                  #        Max Planck Institute fuer Kohlenforschung    #
                  #                Kaiser Wilhelm Platz 1               #
                  #                 D-45470 Muelheim/Ruhr               #
                  #                      Germany                        #
                  #                                                     #
                  #                  All rights reserved                #
                  #                        -***-                        #
                  #######################################################


                         Program Version 4.2.0 -  RELEASE  -


 With contributions from (in alphabetic order):
   Daniel Aravena         : Magnetic Suceptibility
   Michael Atanasov       : Ab Initio Ligand Field Theory (pilot matlab implementation)
   Alexander A. Auer      : GIAO ZORA, VPT2
   Ute Becker             : Parallelization
   Giovanni Bistoni       : ED, misc. LED, open-shell LED, HFLED
   Martin Brehm           : Molecular dynamics
   Dmytro Bykov           : SCF Hessian
   Vijay G. Chilkuri      : MRCI spin determinant printing, contributions to CSF-ICE
   Dipayan Datta          : RHF DLPNO-CCSD density
   Achintya Kumar Dutta   : EOM-CC, STEOM-CC
   Dmitry Ganyushin       : Spin-Orbit,Spin-Spin,Magnetic field MRCI
   Miquel Garcia          : C-PCM Hessian, Gaussian charge scheme
   Yang Guo               : DLPNO-NEVPT2, CIM, IAO-localization
   Andreas Hansen         : Spin unrestricted coupled pair/coupled cluster methods
   Benjamin Helmich-Paris : CASSCF linear response (MC-RPA)
   Lee Huntington         : MR-EOM, pCC
   Robert Izsak           : Overlap fitted RIJCOSX, COSX-SCS-MP3, EOM
   Christian Kollmar      : KDIIS, OOCD, Brueckner-CCSD(T), CCSD density
   Simone Kossmann        : Meta GGA functionals, TD-DFT gradient, OOMP2, MP2 Hessian
   Martin Krupicka        : AUTO-CI
   Lucas Lang             : DCDCAS
   Dagmar Lenk            : GEPOL surface, SMD
   Dimitrios Liakos       : Extrapolation schemes; Compound Job, initial MDCI parallelization
   Dimitrios Manganas     : Further ROCIS development; embedding schemes
   Dimitrios Pantazis     : SARC Basis sets
   Taras Petrenko         : DFT Hessian,TD-DFT gradient, ASA, ECA, R-Raman, ABS, FL, XAS/XES, NRVS
   Peter Pinski           : DLPNO-MP2, DLPNO-MP2 Gradient
   Christoph Reimann      : Effective Core Potentials
   Marius Retegan         : Local ZFS, SOC
   Christoph Riplinger    : Optimizer, TS searches, QM/MM, DLPNO-CCSD(T), (RO)-DLPNO pert. Triples
   Tobias Risthaus        : Range-separated hybrids, TD-DFT gradient, RPA, STAB
   Michael Roemelt        : Original ROCIS implementation
   Masaaki Saitow         : Open-shell DLPNO-CCSD energy and density
   Barbara Sandhoefer     : DKH picture change effects
   Avijit Sen             : IP-ROCIS
   Kantharuban Sivalingam : CASSCF convergence, NEVPT2, FIC-MRCI
   Bernardo de Souza      : ESD, SOC TD-DFT
   Georgi Stoychev        : AutoAux, RI-MP2 NMR
   Willem Van den Heuvel  : Paramagnetic NMR
   Boris Wezisla          : Elementary symmetry handling
   Frank Wennmohs         : Technical directorship


 We gratefully acknowledge several colleagues who have allowed us to
 interface, adapt or use parts of their codes:
   Stefan Grimme, W. Hujo, H. Kruse,             : VdW corrections, initial TS optimization,
                  C. Bannwarth                     DFT functionals, gCP, sTDA/sTD-DF
   Ed Valeev, F. Pavosevic, A. Kumar             : LibInt (2-el integral package), F12 methods
   Garnet Chan, S. Sharma, J. Yang, R. Olivares  : DMRG
   Ulf Ekstrom                                   : XCFun DFT Library
   Mihaly Kallay                                 : mrcc  (arbitrary order and MRCC methods)
   Andreas Klamt, Michael Diedenhofen            : otool_cosmo (COSMO solvation model)
   Jiri Pittner, Ondrej Demel                    : Mk-CCSD
   Frank Weinhold                                : gennbo (NPA and NBO analysis)
   Christopher J. Cramer and Donald G. Truhlar   : smd solvation model
   Lars Goerigk                                  : TD-DFT with DH, B97 family of functionals
   V. Asgeirsson, H. Jonsson                     : NEB implementation
   FAccTs GmbH                                   : IRC, NEB, NEB-TS, Multilevel, MM, QM/MM, CI optimization
   S Lehtola, MJT Oliveira, MAL Marques          : LibXC Library


 Your calculation uses the libint2 library for the computation of 2-el integrals
 For citations please refer to: http://libint.valeyev.net

 Your ORCA version has been built with support for libXC version: 4.2.3
 For citations please refer to: https://tddft.org/programs/libxc/

 This ORCA versions uses:
   CBLAS   interface :  Fast vector & matrix operations
   LAPACKE interface :  Fast linear algebra routines
   SCALAPACK package :  Parallel linear algebra routines


Your calculation utilizes the atom-pairwise dispersion correction
with the Becke-Johnson damping scheme (D3BJ)
Cite in your paper:
S.Grimme, S.Ehrlich, L.Goerigk, J Comput Chem, (2011), 32, 1456–1465 
S.Grimme, J.Antony, S.Ehrlich and H.Krieg, J.Chem.Phys., 132, (2010), 154104 
   

----- Orbital basis set information -----
Your calculation utilizes the basis: def2-TZVPPD
   F. Weigend and R. Ahlrichs, Phys. Chem. Chem. Phys. 7, 3297 (2005).
   D. Rappoport and F. Furche, J. Chem. Phys. 133 134105 (2010).

----- AuxJK basis set information -----
Your calculation utilizes the auxiliary basis: def2/JK
   H-Ba, Hf-Rn: F. Weigend, J. Comput. Chem. 29, 167 (2008).

================================================================================
                                        WARNINGS
                       Please study these warnings very carefully!
================================================================================


INFO   : the flag for use of LIBINT has been found!

================================================================================
                                       INPUT FILE
================================================================================
NAME = c2.in
|  1> #
|  2> # c2 TPSSh-D3BJ/Def2-TZVPPD
|  3> #
|  4> ! tpssh d3bj def2-tzvppd def2/jk grid4 nofinalgrid
|  5> 
|  6> *xyz 0 1
|  7> C          0.00000        0.00000       -0.62000
|  8> C          0.00000        0.00000        0.62000
|  9> *
| 10> 
| 11> %maxcore 5000
| 12> 
| 13> %pal
| 14> nprocs = 28
| 15> end
| 16> 
| 17> 
| 18>                          ****END OF INPUT****
================================================================================

                       ****************************
                       * Single Point Calculation *
                       ****************************

---------------------------------
CARTESIAN COORDINATES (ANGSTROEM)
---------------------------------
  C      0.000000    0.000000   -0.620000
  C      0.000000    0.000000    0.620000

----------------------------
CARTESIAN COORDINATES (A.U.)
----------------------------
  NO LB      ZA    FRAG     MASS         X           Y           Z
   0 C     6.0000    0    12.011    0.000000    0.000000   -1.171630
   1 C     6.0000    0    12.011    0.000000    0.000000    1.171630

--------------------------------
INTERNAL COORDINATES (ANGSTROEM)
--------------------------------
 C      0   0   0     0.000000000000     0.00000000     0.00000000
 C      1   0   0     1.240000000000     0.00000000     0.00000000

---------------------------
INTERNAL COORDINATES (A.U.)
---------------------------
 C      0   0   0     0.000000000000     0.00000000     0.00000000
 C      1   0   0     2.343260406062     0.00000000     0.00000000

---------------------
BASIS SET INFORMATION
---------------------
There are 1 groups of distinct atoms

 Group   1 Type C   : 12s6p3d1f contracted to 6s3p3d1f pattern {621111/411/111/1}

Atom   0C    basis set group =>   1
Atom   1C    basis set group =>   1
----------------------------------
AUXILIARY/JK BASIS SET INFORMATION
----------------------------------
There are 1 groups of distinct atoms

 Group   1 Type C   : 14s10p6d2f1g contracted to 10s8p5d1f1g pattern {5111111111/31111111/21111/2/1}

Atom   0C    basis set group =>   1
Atom   1C    basis set group =>   1


           ************************************************************
           *        Program running with 28 parallel MPI-processes    *
           *              working on a common directory               *
           ************************************************************
------------------------------------------------------------------------------
                           ORCA GTO INTEGRAL CALCULATION
------------------------------------------------------------------------------

                         BASIS SET STATISTICS AND STARTUP INFO

 # of primitive gaussian shells          ...   44
 # of primitive gaussian functions       ...  104
 # of contracted shells                  ...   26
 # of contracted basis functions         ...   74
 Highest angular momentum                ...    3
 Maximum contraction depth               ...    6
 Integral package used                   ... LIBINT
 Integral threshhold            Thresh   ...  1.000e-10
 Primitive cut-off              TCut     ...  1.000e-11


------------------------------ INTEGRAL EVALUATION ----------------------------


 * One electron integrals 
 Pre-screening matrix                    ... done
 Shell pair data                         ... done (   0.000 sec)



           ************************************************************
           *        Program running with 28 parallel MPI-processes    *
           *              working on a common directory               *
           ************************************************************
-------------------------------------------------------------------------------
                                 ORCA SCF
-------------------------------------------------------------------------------

------------
SCF SETTINGS
------------
Hamiltonian:
 Density Functional     Method          .... DFT(GTOs)
 Exchange Functional    Exchange        .... TPSS
 Correlation Functional Correlation     .... TPSS
 LDA part of GGA corr.  LDAOpt          .... PW91-LDA
 Gradients option       PostSCFGGA      .... off
 Hybrid DFT is turned on
   Fraction HF Exchange ScalHFX         ....  0.100000
   Scaling of DF-GGA-X  ScalDFX         ....  0.900000
   Scaling of DF-GGA-C  ScalDFC         ....  1.000000
   Scaling of DF-LDA-C  ScalLDAC        ....  1.000000
   Perturbative correction              ....  0.000000
   Density functional embedding theory  .... OFF
   NL short-range parameter             ....  5.200000


General Settings:
 Integral files         IntName         .... c2
 Hartree-Fock type      HFTyp           .... RHF
 Total Charge           Charge          ....    0
 Multiplicity           Mult            ....    1
 Number of Electrons    NEL             ....   12
 Basis Dimension        Dim             ....   74
 Nuclear Repulsion      ENuc            ....     15.3632092732 Eh

Convergence Acceleration:
 DIIS                   CNVDIIS         .... on
   Start iteration      DIISMaxIt       ....    12
   Startup error        DIISStart       ....  0.200000
   # of expansion vecs  DIISMaxEq       ....     5
   Bias factor          DIISBfac        ....   1.050
   Max. coefficient     DIISMaxC        ....  10.000
 Newton-Raphson         CNVNR           .... off
 SOSCF                  CNVSOSCF        .... on
   Start iteration      SOSCFMaxIt      ....   150
   Startup grad/error   SOSCFStart      ....  0.003300
 Level Shifting         CNVShift        .... on
   Level shift para.    LevelShift      ....    0.2500
   Turn off err/grad.   ShiftErr        ....    0.0010
 Zerner damping         CNVZerner       .... off
 Static damping         CNVDamp         .... on
   Fraction old density DampFac         ....    0.7000
   Max. Damping (<1)    DampMax         ....    0.9800
   Min. Damping (>=0)   DampMin         ....    0.0000
   Turn off err/grad.   DampErr         ....    0.1000
 Fernandez-Rico         CNVRico         .... off

SCF Procedure:
 Maximum # iterations   MaxIter         ....   125
 SCF integral mode      SCFMode         .... Direct
   Integral package                     .... LIBINT
 Reset frequency        DirectResetFreq ....    20
 Integral Threshold     Thresh          ....  1.000e-10 Eh
 Primitive CutOff       TCut            ....  1.000e-11 Eh

Convergence Tolerance:
 Convergence Check Mode ConvCheckMode   .... Total+1el-Energy
 Convergence forced     ConvForced      .... 0
 Energy Change          TolE            ....  1.000e-06 Eh
 1-El. energy change                    ....  1.000e-03 Eh
 Orbital Gradient       TolG            ....  5.000e-05
 Orbital Rotation angle TolX            ....  5.000e-05
 DIIS Error             TolErr          ....  1.000e-06


Diagonalization of the overlap matrix:
Smallest eigenvalue                        ... 1.532e-05
Time for diagonalization                   ...    0.018 sec
Threshold for overlap eigenvalues          ... 1.000e-08
Number of eigenvalues below threshold      ... 0
Time for construction of square roots      ...    0.029 sec
Total time needed                          ...    0.048 sec

-------------------
DFT GRID GENERATION
-------------------

General Integration Accuracy     IntAcc      ...  4.670
Radial Grid Type                 RadialGrid  ... Gauss-Chebyshev
Angular Grid (max. acc.)         AngularGrid ... Lebedev-302
Angular grid pruning method      GridPruning ... 3 (G Style)
Weight generation scheme         WeightScheme... Becke
Basis function cutoff            BFCut       ...    1.0000e-10
Integration weight cutoff        WCut        ...    1.0000e-14
Grids for H and He will be reduced by one unit

# of grid points (after initial pruning)     ...  12424 (   0.0 sec)
# of grid points (after weights+screening)   ...  12392 (   0.0 sec)
nearest neighbour list constructed           ...    0.0 sec
Grid point re-assignment to atoms done       ...    0.0 sec
Grid point division into batches done        ...    0.1 sec
Reduced shell lists constructed in    0.1 sec

Total number of grid points                  ...    12392
Total number of batches                      ...      194
Average number of points per batch           ...       63
Average number of grid points per atom       ...     6196
Average number of shells per batch           ...     6.12 (23.56%)
Average number of basis functions per batch  ...    15.62 (21.11%)
Average number of large shells per batch     ...     4.12 (67.35%)
Average number of large basis fcns per batch ...    11.62 (74.40%)
Maximum spatial batch extension              ...  24.37, 24.37, 13.07 au
Average spatial batch extension              ...   0.68,  0.62,  0.41 au

Time for grid setup =    0.608 sec

------------------------------
INITIAL GUESS: MODEL POTENTIAL
------------------------------
Loading Hartree-Fock densities                     ... done
Calculating cut-offs                               ... done
Setting up the integral package                    ... done
Initializing the effective Hamiltonian             ... done
Starting the Coulomb interaction                   ... done (   0.0 sec)
Reading the grid                                   ... done
Mapping shells                                     ... done
Starting the XC term evaluation                    ... done (   0.0 sec)
  promolecular density results
     # of electrons  =     12.000005902
     EX              =    -10.038728393
     EC              =     -0.351666116
     EX+EC           =    -10.390394509
Transforming the Hamiltonian                       ... done (   0.0 sec)
Diagonalizing the Hamiltonian                      ... done (   0.0 sec)
Back transforming the eigenvectors                 ... done (   0.0 sec)
Now organizing SCF variables                       ... done
                      ------------------
                      INITIAL GUESS DONE (   0.7 sec)
                      ------------------
--------------
SCF ITERATIONS
--------------
ITER       Energy         Delta-E        Max-DP      RMS-DP      [F,P]     Damp
               ***  Starting incremental Fock matrix formation  ***
  0    -75.8842176191   0.000000000000 0.03773570  0.00159616  0.1234460 0.7000
  1    -75.8974365852  -0.013218966107 0.02763261  0.00112514  0.0779119 0.7000
                               ***Turning on DIIS***
  2    -75.9041172960  -0.006680710721 0.05702679  0.00251438  0.0410724 0.0000
  3    -75.9132522207  -0.009134924773 0.00908549  0.00053759  0.0316187 0.0000
  4    -75.9155394834  -0.002287262684 0.00121580  0.00010802  0.0077803 0.0000
                      *** Initiating the SOSCF procedure ***
                           *** Shutting down DIIS ***
                      *** Re-Reading the Fockian *** 
                      *** Removing any level shift *** 
ITER      Energy       Delta-E        Grad      Rot      Max-DP    RMS-DP
  5    -75.91566061  -0.0001211219  0.000940  0.000940  0.000591  0.000042
               *** Restarting incremental Fock matrix formation ***
  6    -75.91566821  -0.0000076041  0.000373  0.000752  0.000218  0.000020
  7    -75.91566855  -0.0000003390  0.000194  0.000191  0.000171  0.000010
                 **** Energy Check signals convergence ****
              ***Rediagonalizing the Fockian in SOSCF/NRSCF***

               *****************************************************
               *                     SUCCESS                       *
               *           SCF CONVERGED AFTER   8 CYCLES          *
               *****************************************************


----------------
TOTAL SCF ENERGY
----------------

Total Energy       :          -75.91566882 Eh           -2065.77037 eV

Components:
Nuclear Repulsion  :           15.36320927 Eh             418.05418 eV
Electronic Energy  :          -91.27887809 Eh           -2483.82455 eV
One Electron Energy:         -131.49363101 Eh           -3578.12361 eV
Two Electron Energy:           40.21475292 Eh            1094.29906 eV

Virial components:
Potential Energy   :         -151.56662408 Eh           -4124.33752 eV
Kinetic Energy     :           75.65095526 Eh            2058.56715 eV
Virial Ratio       :            2.00349914


DFT components:
N(Alpha)           :        6.000001313826 electrons
N(Beta)            :        6.000001313826 electrons
N(Total)           :       12.000002627653 electrons
E(X)               :       -9.209277523211 Eh       
E(C)               :       -0.362972794648 Eh       
E(XC)              :       -9.572250317858 Eh       
DFET-embed. en.    :        0.000000000000 Eh       

---------------
SCF CONVERGENCE
---------------

  Last Energy change         ...   -2.6932e-07  Tolerance :   1.0000e-06
  Last MAX-Density change    ...    2.5769e-05  Tolerance :   1.0000e-05
  Last RMS-Density change    ...    1.4049e-06  Tolerance :   1.0000e-06
  Last Orbital Gradient      ...    1.5335e-05  Tolerance :   5.0000e-05
  Last Orbital Rotation      ...    1.3717e-05  Tolerance :   5.0000e-05

             **** THE GBW FILE WAS UPDATED (c2.gbw) ****
             **** DENSITY FILE WAS UPDATED (c2.scfp) ****
             **** ENERGY FILE WAS UPDATED (c2.en.tmp) ****
             **** THE GBW FILE WAS UPDATED (c2.gbw) ****
             **** DENSITY FILE WAS UPDATED (c2.scfp) ****
----------------
ORBITAL ENERGIES
----------------

  NO   OCC          E(Eh)            E(eV) 
   0   2.0000     -10.220309      -278.1088 
   1   2.0000     -10.218715      -278.0654 
   2   2.0000      -0.771738       -21.0001 
   3   2.0000      -0.400190       -10.8897 
   4   2.0000      -0.315763        -8.5924 
   5   2.0000      -0.315763        -8.5924 
   6   0.0000      -0.276169        -7.5149 
   7   0.0000      -0.011552        -0.3143 
   8   0.0000      -0.011552        -0.3143 
   9   0.0000       0.038070         1.0359 
  10   0.0000       0.059804         1.6273 
  11   0.0000       0.149645         4.0720 
  12   0.0000       0.182759         4.9731 
  13   0.0000       0.182759         4.9731 
  14   0.0000       0.187983         5.1153 
  15   0.0000       0.187983         5.1153 
  16   0.0000       0.203440         5.5359 
  17   0.0000       0.203441         5.5359 
  18   0.0000       0.228855         6.2275 
  19   0.0000       0.298363         8.1189 
  20   0.0000       0.298363         8.1189 
  21   0.0000       0.316032         8.5997 
  22   0.0000       0.316032         8.5997 
  23   0.0000       0.342547         9.3212 
  24   0.0000       0.345197         9.3933 
  25   0.0000       0.478257        13.0140 
  26   0.0000       0.510279        13.8854 
  27   0.0000       0.537823        14.6349 
  28   0.0000       0.537823        14.6349 
  29   0.0000       0.743969        20.2444 
  30   0.0000       0.743970        20.2444 
  31   0.0000       0.780248        21.2316 
  32   0.0000       0.847082        23.0503 
  33   0.0000       0.847082        23.0503 
  34   0.0000       1.004143        27.3241 
  35   0.0000       1.004143        27.3241 
  36   0.0000       1.015633        27.6368 
  37   0.0000       1.135031        30.8858 
  38   0.0000       1.135031        30.8858 
  39   0.0000       1.268435        34.5159 
  40   0.0000       1.397268        38.0216 
  41   0.0000       1.397268        38.0216 
  42   0.0000       1.451589        39.4998 
  43   0.0000       1.676922        45.6314 
  44   0.0000       1.775214        48.3060 
  45   0.0000       1.775214        48.3060 
  46   0.0000       1.889911        51.4271 
  47   0.0000       2.001392        54.4606 
  48   0.0000       2.475679        67.3667 
  49   0.0000       2.475688        67.3669 
  50   0.0000       2.521562        68.6152 
  51   0.0000       2.521562        68.6152 
  52   0.0000       2.586394        70.3794 
  53   0.0000       2.586394        70.3794 
  54   0.0000       2.857147        77.7469 
  55   0.0000       2.913229        79.2730 
  56   0.0000       2.913229        79.2730 
  57   0.0000       3.045167        82.8632 
  58   0.0000       3.045167        82.8632 
  59   0.0000       3.051496        83.0354 
  60   0.0000       3.051507        83.0357 
  61   0.0000       3.140424        85.4553 
  62   0.0000       3.140435        85.4556 
  63   0.0000       3.512204        95.5719 
  64   0.0000       3.512204        95.5719 
  65   0.0000       3.553277        96.6896 
  66   0.0000       3.553285        96.6898 
  67   0.0000       3.559565        96.8607 
  68   0.0000       4.421963       120.3277 
  69   0.0000       4.542562       123.6094 
  70   0.0000       4.542562       123.6094 
  71   0.0000       4.599145       125.1491 
  72   0.0000      21.633538       588.6785 
  73   0.0000      22.437984       610.5686 

                    ********************************
                    * MULLIKEN POPULATION ANALYSIS *
                    ********************************

-----------------------
MULLIKEN ATOMIC CHARGES
-----------------------
   0 C :    0.000001
   1 C :   -0.000001
Sum of atomic charges:   -0.0000000

--------------------------------
MULLIKEN REDUCED ORBITAL CHARGES
--------------------------------
  0 C s       :     3.423691  s :     3.423691
      pz      :     0.562805  p :     2.529411
      px      :     0.983303
      py      :     0.983303
      dz2     :     0.012878  d :     0.040712
      dxz     :     0.013917
      dyz     :     0.013917
      dx2y2   :     0.000000
      dxy     :    -0.000000
      f0      :     0.000625  f :     0.006185
      f+1     :     0.002780
      f-1     :     0.002780
      f+2     :     0.000000
      f-2     :     0.000000
      f+3     :     0.000000
      f-3     :     0.000000
  1 C s       :     3.423693  s :     3.423693
      pz      :     0.562805  p :     2.529412
      px      :     0.983303
      py      :     0.983303
      dz2     :     0.012878  d :     0.040712
      dxz     :     0.013917
      dyz     :     0.013917
      dx2y2   :     0.000000
      dxy     :     0.000000
      f0      :     0.000625  f :     0.006185
      f+1     :     0.002780
      f-1     :     0.002780
      f+2     :    -0.000000
      f-2     :    -0.000000
      f+3     :     0.000000
      f-3     :     0.000000


                     *******************************
                     * LOEWDIN POPULATION ANALYSIS *
                     *******************************

----------------------
LOEWDIN ATOMIC CHARGES
----------------------
   0 C :    0.000000
   1 C :   -0.000000

-------------------------------
LOEWDIN REDUCED ORBITAL CHARGES
-------------------------------
  0 C s       :     3.076621  s :     3.076621
      pz      :     0.801137  p :     2.674541
      px      :     0.936702
      py      :     0.936702
      dz2     :     0.110235  d :     0.215597
      dxz     :     0.052681
      dyz     :     0.052681
      dx2y2   :     0.000000
      dxy     :     0.000000
      f0      :     0.012006  f :     0.033240
      f+1     :     0.010617
      f-1     :     0.010617
      f+2     :     0.000000
      f-2     :     0.000000
      f+3     :     0.000000
      f-3     :     0.000000
  1 C s       :     3.076621  s :     3.076621
      pz      :     0.801137  p :     2.674541
      px      :     0.936702
      py      :     0.936702
      dz2     :     0.110235  d :     0.215597
      dxz     :     0.052681
      dyz     :     0.052681
      dx2y2   :     0.000000
      dxy     :     0.000000
      f0      :     0.012006  f :     0.033240
      f+1     :     0.010617
      f-1     :     0.010617
      f+2     :     0.000000
      f-2     :     0.000000
      f+3     :     0.000000
      f-3     :     0.000000


                      *****************************
                      * MAYER POPULATION ANALYSIS *
                      *****************************

  NA   - Mulliken gross atomic population
  ZA   - Total nuclear charge
  QA   - Mulliken gross atomic charge
  VA   - Mayer's total valence
  BVA  - Mayer's bonded valence
  FA   - Mayer's free valence

  ATOM       NA         ZA         QA         VA         BVA        FA
  0 C      6.0000     6.0000     0.0000     3.5201     3.5201    -0.0000
  1 C      6.0000     6.0000    -0.0000     3.5201     3.5201    -0.0000

  Mayer bond orders larger than 0.100000
B(  0-C ,  1-C ) :   3.5201 

-------
TIMINGS
-------

Total SCF time: 0 days 0 hours 0 min 40 sec 

Total time                  ....      40.679 sec
Sum of individual times     ....      40.074 sec  ( 98.5%)

Fock matrix formation       ....      38.817 sec  ( 95.4%)
  XC integration            ....      37.069 sec  ( 95.5% of F)
    Basis function eval.    ....       0.008 sec  (  0.0% of XC)
    Density eval.           ....       0.011 sec  (  0.0% of XC)
    XC-Functional eval.     ....       0.014 sec  (  0.0% of XC)
    XC-Potential eval.      ....       0.022 sec  (  0.1% of XC)
Diagonalization             ....       0.329 sec  (  0.8%)
Density matrix formation    ....       0.005 sec  (  0.0%)
Population analysis         ....       0.123 sec  (  0.3%)
Initial guess               ....       0.116 sec  (  0.3%)
Orbital Transformation      ....       0.000 sec  (  0.0%)
Orbital Orthonormalization  ....       0.000 sec  (  0.0%)
DIIS solution               ....       0.034 sec  (  0.1%)
SOSCF solution              ....       0.042 sec  (  0.1%)
Grid generation             ....       0.608 sec  (  1.5%)


-------------------------------------------------------------------------------
                          DFT DISPERSION CORRECTION                            
                                                                               
                              DFTD3 V3.1  Rev 1                                
                          USING Becke-Johnson damping                          
-------------------------------------------------------------------------------
The TPSSH functional is recognized
Active option DFTDOPT                   ...         4   

molecular C6(AA) [au] = 172.276308 


            DFT-D V3
 parameters
 s6 scaling factor         :     1.0000 
 a1 scaling factor         :     0.4529 
 s8 scaling factor         :     2.2382 
 a2 scaling factor         :     4.6550 
 ad hoc parameters k1-k3   :    16.0000     1.3333    -4.0000 

 Edisp/kcal,au: -0.486129512135  -0.000774696607 
 E6   /kcal   :  -0.212375799 
 E8   /kcal   :  -0.273753713 
 % E8         :  56.312917920 

-------------------------   ----------------
Dispersion correction           -0.000774697
-------------------------   ----------------


-------------------------   --------------------
FINAL SINGLE POINT ENERGY       -75.916443514314
-------------------------   --------------------


                            ***************************************
                            *     ORCA property calculations      *
                            ***************************************

                                    ---------------------
                                    Active property flags
                                    ---------------------
   (+) Dipole Moment


------------------------------------------------------------------------------
                       ORCA ELECTRIC PROPERTIES CALCULATION
------------------------------------------------------------------------------

Dipole Moment Calculation                       ... on
Quadrupole Moment Calculation                   ... off
Polarizability Calculation                      ... off
GBWName                                         ... c2.gbw
Electron density file                           ... c2.scfp
The origin for moment calculation is the CENTER OF MASS  = ( 0.000000,  0.000000  0.000000)

-------------
DIPOLE MOMENT
-------------
                                X             Y             Z
Electronic contribution:      0.00000      -0.00000       0.00000
Nuclear contribution   :      0.00000       0.00000       0.00000
                        -----------------------------------------
Total Dipole Moment    :      0.00000      -0.00000       0.00000
                        -----------------------------------------
Magnitude (a.u.)       :      0.00000
Magnitude (Debye)      :      0.00000



--------------------
Rotational spectrum 
--------------------
 
Rotational constants in cm-1:     0.000000     1.825595     1.825595 
Rotational constants in MHz :     0.000000 54729.951378 54729.951378 

 Dipole components along the rotational axes: 
x,y,z [a.u.] :     0.000000    -0.000000     0.000000 
x,y,z [Debye]:     0.000000    -0.000000     0.000000 

 

Timings for individual modules:

Sum of individual times         ...       47.801 sec (=   0.797 min)
GTO integral calculation        ...        4.186 sec (=   0.070 min)   8.8 %
SCF iterations                  ...       43.615 sec (=   0.727 min)  91.2 %
                             ****ORCA TERMINATED NORMALLY****
TOTAL RUN TIME: 0 days 0 hours 1 minutes 3 seconds 246 msec
