
                                 *****************
                                 * O   R   C   A *
                                 *****************

           --- An Ab Initio, DFT and Semiempirical electronic structure package ---

                  #######################################################
                  #                        -***-                        #
                  #          Department of theory and spectroscopy      #
                  #               Directorship: Frank Neese             #
                  #        Max Planck Institute fuer Kohlenforschung    #
                  #                Kaiser Wilhelm Platz 1               #
                  #                 D-45470 Muelheim/Ruhr               #
                  #                      Germany                        #
                  #                                                     #
                  #                  All rights reserved                #
                  #                        -***-                        #
                  #######################################################


                         Program Version 4.2.0 -  RELEASE  -


 With contributions from (in alphabetic order):
   Daniel Aravena         : Magnetic Suceptibility
   Michael Atanasov       : Ab Initio Ligand Field Theory (pilot matlab implementation)
   Alexander A. Auer      : GIAO ZORA, VPT2
   Ute Becker             : Parallelization
   Giovanni Bistoni       : ED, misc. LED, open-shell LED, HFLED
   Martin Brehm           : Molecular dynamics
   Dmytro Bykov           : SCF Hessian
   Vijay G. Chilkuri      : MRCI spin determinant printing, contributions to CSF-ICE
   Dipayan Datta          : RHF DLPNO-CCSD density
   Achintya Kumar Dutta   : EOM-CC, STEOM-CC
   Dmitry Ganyushin       : Spin-Orbit,Spin-Spin,Magnetic field MRCI
   Miquel Garcia          : C-PCM Hessian, Gaussian charge scheme
   Yang Guo               : DLPNO-NEVPT2, CIM, IAO-localization
   Andreas Hansen         : Spin unrestricted coupled pair/coupled cluster methods
   Benjamin Helmich-Paris : CASSCF linear response (MC-RPA)
   Lee Huntington         : MR-EOM, pCC
   Robert Izsak           : Overlap fitted RIJCOSX, COSX-SCS-MP3, EOM
   Christian Kollmar      : KDIIS, OOCD, Brueckner-CCSD(T), CCSD density
   Simone Kossmann        : Meta GGA functionals, TD-DFT gradient, OOMP2, MP2 Hessian
   Martin Krupicka        : AUTO-CI
   Lucas Lang             : DCDCAS
   Dagmar Lenk            : GEPOL surface, SMD
   Dimitrios Liakos       : Extrapolation schemes; Compound Job, initial MDCI parallelization
   Dimitrios Manganas     : Further ROCIS development; embedding schemes
   Dimitrios Pantazis     : SARC Basis sets
   Taras Petrenko         : DFT Hessian,TD-DFT gradient, ASA, ECA, R-Raman, ABS, FL, XAS/XES, NRVS
   Peter Pinski           : DLPNO-MP2, DLPNO-MP2 Gradient
   Christoph Reimann      : Effective Core Potentials
   Marius Retegan         : Local ZFS, SOC
   Christoph Riplinger    : Optimizer, TS searches, QM/MM, DLPNO-CCSD(T), (RO)-DLPNO pert. Triples
   Tobias Risthaus        : Range-separated hybrids, TD-DFT gradient, RPA, STAB
   Michael Roemelt        : Original ROCIS implementation
   Masaaki Saitow         : Open-shell DLPNO-CCSD energy and density
   Barbara Sandhoefer     : DKH picture change effects
   Avijit Sen             : IP-ROCIS
   Kantharuban Sivalingam : CASSCF convergence, NEVPT2, FIC-MRCI
   Bernardo de Souza      : ESD, SOC TD-DFT
   Georgi Stoychev        : AutoAux, RI-MP2 NMR
   Willem Van den Heuvel  : Paramagnetic NMR
   Boris Wezisla          : Elementary symmetry handling
   Frank Wennmohs         : Technical directorship


 We gratefully acknowledge several colleagues who have allowed us to
 interface, adapt or use parts of their codes:
   Stefan Grimme, W. Hujo, H. Kruse,             : VdW corrections, initial TS optimization,
                  C. Bannwarth                     DFT functionals, gCP, sTDA/sTD-DF
   Ed Valeev, F. Pavosevic, A. Kumar             : LibInt (2-el integral package), F12 methods
   Garnet Chan, S. Sharma, J. Yang, R. Olivares  : DMRG
   Ulf Ekstrom                                   : XCFun DFT Library
   Mihaly Kallay                                 : mrcc  (arbitrary order and MRCC methods)
   Andreas Klamt, Michael Diedenhofen            : otool_cosmo (COSMO solvation model)
   Jiri Pittner, Ondrej Demel                    : Mk-CCSD
   Frank Weinhold                                : gennbo (NPA and NBO analysis)
   Christopher J. Cramer and Donald G. Truhlar   : smd solvation model
   Lars Goerigk                                  : TD-DFT with DH, B97 family of functionals
   V. Asgeirsson, H. Jonsson                     : NEB implementation
   FAccTs GmbH                                   : IRC, NEB, NEB-TS, Multilevel, MM, QM/MM, CI optimization
   S Lehtola, MJT Oliveira, MAL Marques          : LibXC Library


 Your calculation uses the libint2 library for the computation of 2-el integrals
 For citations please refer to: http://libint.valeyev.net

 Your ORCA version has been built with support for libXC version: 4.2.3
 For citations please refer to: https://tddft.org/programs/libxc/

 This ORCA versions uses:
   CBLAS   interface :  Fast vector & matrix operations
   LAPACKE interface :  Fast linear algebra routines
   SCALAPACK package :  Parallel linear algebra routines


Your calculation utilizes the atom-pairwise dispersion correction
with the Becke-Johnson damping scheme (D3BJ)
Cite in your paper:
S.Grimme, S.Ehrlich, L.Goerigk, J Comput Chem, (2011), 32, 1456–1465 
S.Grimme, J.Antony, S.Ehrlich and H.Krieg, J.Chem.Phys., 132, (2010), 154104 
   

----- Orbital basis set information -----
Your calculation utilizes the basis: def2-TZVPPD
   F. Weigend and R. Ahlrichs, Phys. Chem. Chem. Phys. 7, 3297 (2005).
   D. Rappoport and F. Furche, J. Chem. Phys. 133 134105 (2010).

----- AuxJK basis set information -----
Your calculation utilizes the auxiliary basis: def2/JK
   H-Ba, Hf-Rn: F. Weigend, J. Comput. Chem. 29, 167 (2008).

================================================================================
                                        WARNINGS
                       Please study these warnings very carefully!
================================================================================


WARNING: your system is open-shell and RHF/RKS was chosen
  ===> : WILL SWITCH to UHF/UKS


INFO   : the flag for use of LIBINT has been found!

================================================================================
                                       INPUT FILE
================================================================================
NAME = Fe.in
|  1> #
|  2> # Fe TPSSh-D3BJ/Def2-TZVPPD
|  3> #
|  4> ! tpssh d3bj def2-tzvppd def2/jk grid4 nofinalgrid
|  5> 
|  6> *xyz 0 5
|  7> Fe         0.00000        0.00000        0.00000
|  8> *
|  9> 
| 10> %maxcore 5000
| 11> 
| 12> %pal
| 13> nprocs = 28
| 14> end
| 15> 
| 16> 
| 17>                          ****END OF INPUT****
================================================================================

                       ****************************
                       * Single Point Calculation *
                       ****************************

---------------------------------
CARTESIAN COORDINATES (ANGSTROEM)
---------------------------------
  Fe     0.000000    0.000000    0.000000

----------------------------
CARTESIAN COORDINATES (A.U.)
----------------------------
  NO LB      ZA    FRAG     MASS         X           Y           Z
   0 Fe   26.0000    0    55.850    0.000000    0.000000    0.000000

--------------------------------
INTERNAL COORDINATES (ANGSTROEM)
--------------------------------
 Fe     0   0   0     0.000000000000     0.00000000     0.00000000

---------------------------
INTERNAL COORDINATES (A.U.)
---------------------------
 Fe     0   0   0     0.000000000000     0.00000000     0.00000000

---------------------
BASIS SET INFORMATION
---------------------
There are 1 groups of distinct atoms

 Group   1 Type Fe  : 17s13p7d2f1g contracted to 6s6p4d2f1g pattern {842111/631111/4111/11/1}

Atom   0Fe   basis set group =>   1
----------------------------------
AUXILIARY/JK BASIS SET INFORMATION
----------------------------------
There are 1 groups of distinct atoms

 Group   1 Type Fe  : 19s14p12d10f7g3h1i contracted to 16s13p11d9f5g3h1i pattern {4111111111111111/2111111111111/21111111111/211111111/31111/111/1}

Atom   0Fe   basis set group =>   1


           ************************************************************
           *        Program running with 28 parallel MPI-processes    *
           *              working on a common directory               *
           ************************************************************
------------------------------------------------------------------------------
                           ORCA GTO INTEGRAL CALCULATION
------------------------------------------------------------------------------

                         BASIS SET STATISTICS AND STARTUP INFO

 # of primitive gaussian shells          ...   40
 # of primitive gaussian functions       ...  114
 # of contracted shells                  ...   19
 # of contracted basis functions         ...   67
 Highest angular momentum                ...    4
 Maximum contraction depth               ...    8
 Integral package used                   ... LIBINT
 Integral threshhold            Thresh   ...  1.000e-10
 Primitive cut-off              TCut     ...  1.000e-11


------------------------------ INTEGRAL EVALUATION ----------------------------


 * One electron integrals 
 Pre-screening matrix                    ... done
 Shell pair data                         ... done (   0.000 sec)



           ************************************************************
           *        Program running with 28 parallel MPI-processes    *
           *              working on a common directory               *
           ************************************************************
-------------------------------------------------------------------------------
                                 ORCA SCF
-------------------------------------------------------------------------------

------------
SCF SETTINGS
------------
Hamiltonian:
 Density Functional     Method          .... DFT(GTOs)
 Exchange Functional    Exchange        .... TPSS
 Correlation Functional Correlation     .... TPSS
 LDA part of GGA corr.  LDAOpt          .... PW91-LDA
 Gradients option       PostSCFGGA      .... off
 Hybrid DFT is turned on
   Fraction HF Exchange ScalHFX         ....  0.100000
   Scaling of DF-GGA-X  ScalDFX         ....  0.900000
   Scaling of DF-GGA-C  ScalDFC         ....  1.000000
   Scaling of DF-LDA-C  ScalLDAC        ....  1.000000
   Perturbative correction              ....  0.000000
   Density functional embedding theory  .... OFF
   NL short-range parameter             ....  5.200000


General Settings:
 Integral files         IntName         .... Fe
 Hartree-Fock type      HFTyp           .... UHF
 Total Charge           Charge          ....    0
 Multiplicity           Mult            ....    5
 Number of Electrons    NEL             ....   26
 Basis Dimension        Dim             ....   67
 Nuclear Repulsion      ENuc            ....      0.0000000000 Eh

Convergence Acceleration:
 DIIS                   CNVDIIS         .... on
   Start iteration      DIISMaxIt       ....    12
   Startup error        DIISStart       ....  0.200000
   # of expansion vecs  DIISMaxEq       ....     5
   Bias factor          DIISBfac        ....   1.050
   Max. coefficient     DIISMaxC        ....  10.000
 Newton-Raphson         CNVNR           .... off
 SOSCF                  CNVSOSCF        .... off
 Level Shifting         CNVShift        .... on
   Level shift para.    LevelShift      ....    0.2500
   Turn off err/grad.   ShiftErr        ....    0.0010
 Zerner damping         CNVZerner       .... off
 Static damping         CNVDamp         .... on
   Fraction old density DampFac         ....    0.7000
   Max. Damping (<1)    DampMax         ....    0.9800
   Min. Damping (>=0)   DampMin         ....    0.0000
   Turn off err/grad.   DampErr         ....    0.1000
 Fernandez-Rico         CNVRico         .... off

SCF Procedure:
 Maximum # iterations   MaxIter         ....   125
 SCF integral mode      SCFMode         .... Direct
   Integral package                     .... LIBINT
 Reset frequency        DirectResetFreq ....    20
 Integral Threshold     Thresh          ....  1.000e-10 Eh
 Primitive CutOff       TCut            ....  1.000e-11 Eh

Convergence Tolerance:
 Convergence Check Mode ConvCheckMode   .... Total+1el-Energy
 Convergence forced     ConvForced      .... 0
 Energy Change          TolE            ....  1.000e-06 Eh
 1-El. energy change                    ....  1.000e-03 Eh
 DIIS Error             TolErr          ....  1.000e-06


Diagonalization of the overlap matrix:
Smallest eigenvalue                        ... 4.159e-02
Time for diagonalization                   ...    0.009 sec
Threshold for overlap eigenvalues          ... 1.000e-08
Number of eigenvalues below threshold      ... 0
Time for construction of square roots      ...    0.015 sec
Total time needed                          ...    0.024 sec

-------------------
DFT GRID GENERATION
-------------------

General Integration Accuracy     IntAcc      ...  4.670
Radial Grid Type                 RadialGrid  ... Gauss-Chebyshev
Angular Grid (max. acc.)         AngularGrid ... Lebedev-302
Angular grid pruning method      GridPruning ... 3 (G Style)
Weight generation scheme         WeightScheme... Becke
Basis function cutoff            BFCut       ...    1.0000e-10
Integration weight cutoff        WCut        ...    1.0000e-14
Grids for H and He will be reduced by one unit

# of grid points (after initial pruning)     ...   9640 (   0.0 sec)
# of grid points (after weights+screening)   ...   9640 (   0.0 sec)
Grid point division into batches done        ...    0.1 sec
Reduced shell lists constructed in    0.1 sec

Total number of grid points                  ...     9640
Total number of batches                      ...      151
Average number of points per batch           ...       63
Average number of grid points per atom       ...     9640
Average number of shells per batch           ...     3.43 (18.05%)
Average number of basis functions per batch  ...    10.29 (15.35%)
Average number of large shells per batch     ...     1.71 (50.00%)
Average number of large basis fcns per batch ...     3.43 (33.33%)
Maximum spatial batch extension              ...  22.27, 22.27, 22.27 au
Average spatial batch extension              ...   0.78,  0.77,  0.74 au

Time for grid setup =    0.555 sec

------------------------------
INITIAL GUESS: MODEL POTENTIAL
------------------------------
Loading Hartree-Fock densities                     ... done
Calculating cut-offs                               ... done
Setting up the integral package                    ... done
Initializing the effective Hamiltonian             ... done
Starting the Coulomb interaction                   ... done (   0.0 sec)
Reading the grid                                   ... done
Mapping shells                                     ... done
Starting the XC term evaluation                    ... done (   0.0 sec)
  promolecular density results
     # of electrons  =     25.999994076
     EX              =    -54.062020226
     EC              =     -1.134426117
     EX+EC           =    -55.196446344
Transforming the Hamiltonian                       ... done (   0.0 sec)
Diagonalizing the Hamiltonian                      ... done (   0.0 sec)
Back transforming the eigenvectors                 ... done (   0.0 sec)
Now organizing SCF variables                       ... done
                      ------------------
                      INITIAL GUESS DONE (   0.8 sec)
                      ------------------
--------------
SCF ITERATIONS
--------------
ITER       Energy         Delta-E        Max-DP      RMS-DP      [F,P]     Damp
               ***  Starting incremental Fock matrix formation  ***
  0  -1263.6214178340   0.000000000000 0.03661888  0.00107057  0.2250802 0.7000
  1  -1263.6422418493  -0.020824015244 0.02719571  0.00054499  0.0479285 0.7000
                               ***Turning on DIIS***
  2  -1263.6480399977  -0.005798148431 0.03943451  0.00094598  0.0184328 0.0000
  3  -1263.6669882787  -0.018948281034 0.01261356  0.00034369  0.0111328 0.0000
  4  -1263.6684031056  -0.001414826918 0.00727056  0.00020413  0.0136653 0.0000
  5  -1263.6693771440  -0.000974038399 0.00855981  0.00022535  0.0087187 0.0000
  6  -1263.6703293538  -0.000952209746 0.00998881  0.00024889  0.0078442 0.0000
  7  -1263.6712801327  -0.000950778964 0.00788131  0.00019306  0.0067494 0.0000
  8  -1263.6719290592  -0.000648926420 0.01382919  0.00032824  0.0057996 0.0000
  9  -1263.6727984121  -0.000869352887 0.00416332  0.00010708  0.0054863 0.0000
 10  -1263.6730706803  -0.000272268275 0.00978238  0.00022867  0.0038437 0.0000
 11  -1263.6734813012  -0.000410620856 0.00749943  0.00017412  0.0042356 0.0000
 12  -1263.6737269569  -0.000245655699 0.00473854  0.00011299  0.0038541 0.0000
 13  -1263.6738520795  -0.000125122587 0.00316047  0.00007733  0.0022681 0.0000
 14  -1263.6739144453  -0.000062365813 0.00267177  0.00006589  0.0014020 0.0000
 15  -1263.6739498348  -0.000035389520 0.00186593  0.00004671  0.0014080 0.0000
 16  -1263.6739694637  -0.000019628867 0.00165814  0.00004154  0.0010474 0.0000
 17  -1263.6739796766  -0.000010212915 0.00110048  0.00002789  0.0011992 0.0000
 18  -1263.6739845863  -0.000004909747 0.00244386  0.00006579  0.0008373 0.0000
 19  -1263.6739864659  -0.000001879554 0.00100812  0.00002268  0.0002042 0.0000
               *** Restarting incremental Fock matrix formation ***
                                   *** Resetting DIIS ***
 20  -1263.6739878635  -0.000001397601 0.00122427  0.00002504  0.0001545 0.0000
 21  -1263.6739891415  -0.000001277989 0.00186341  0.00003724  0.0001329 0.0000
 22  -1263.6739913371  -0.000002195645 0.00118250  0.00002346  0.0001891 0.0000
 23  -1263.6739930638  -0.000001726653 0.00235781  0.00004668  0.0002245 0.0000
 24  -1263.6739899742   0.000003089529 0.00193080  0.00003826  0.0001536 0.0000
 25  -1263.6739883789   0.000001595380 0.00279670  0.00005541  0.0000955 0.0000
 26  -1263.6739873958   0.000000983030 0.00052501  0.00001044  0.0000409 0.0000
                 **** Energy Check signals convergence ****

               *****************************************************
               *                     SUCCESS                       *
               *           SCF CONVERGED AFTER  27 CYCLES          *
               *****************************************************


----------------
TOTAL SCF ENERGY
----------------

Total Energy       :        -1263.67398739 Eh          -34386.31736 eV

Components:
Nuclear Repulsion  :            0.00000000 Eh               0.00000 eV
Electronic Energy  :        -1263.67398739 Eh          -34386.31736 eV
One Electron Energy:        -1748.16524440 Eh          -47569.99471 eV
Two Electron Energy:          484.49125701 Eh           13183.67735 eV

Virial components:
Potential Energy   :        -2525.29049844 Eh          -68716.64795 eV
Kinetic Energy     :         1261.61651105 Eh           34330.33059 eV
Virial Ratio       :            2.00163083


DFT components:
N(Alpha)           :       15.000000429405 electrons
N(Beta)            :       11.000000479442 electrons
N(Total)           :       26.000000908847 electrons
E(X)               :      -49.167258757129 Eh       
E(C)               :       -1.129055514391 Eh       
E(XC)              :      -50.296314271520 Eh       
DFET-embed. en.    :        0.000000000000 Eh       

---------------
SCF CONVERGENCE
---------------

  Last Energy change         ...    7.5249e-09  Tolerance :   1.0000e-06
  Last MAX-Density change    ...    8.8898e-05  Tolerance :   1.0000e-05
  Last RMS-Density change    ...    1.8191e-06  Tolerance :   1.0000e-06
  Last DIIS Error            ...    6.2046e-06  Tolerance :   1.0000e-06

             **** THE GBW FILE WAS UPDATED (Fe.gbw) ****
             **** DENSITY FILE WAS UPDATED (Fe.scfp) ****
             **** ENERGY FILE WAS UPDATED (Fe.en.tmp) ****
----------------------
UHF SPIN CONTAMINATION
----------------------

Warning: in a DFT calculation there is little theoretical justification to 
         calculate <S**2> as in Hartree-Fock theory. We will do it anyways
         but you should keep in mind that the values have only limited relevance

Expectation value of <S**2>     :     6.000872
Ideal value S*(S+1) for S=2.0   :     6.000000
Deviation                       :     0.000872

             **** THE GBW FILE WAS UPDATED (Fe.gbw) ****
             **** DENSITY FILE WAS UPDATED (Fe.scfp) ****
----------------
ORBITAL ENERGIES
----------------
                 SPIN UP ORBITALS
  NO   OCC          E(Eh)            E(eV) 
   0   1.0000    -255.761098     -6959.6133 
   1   1.0000     -29.783329      -810.4456 
   2   1.0000     -25.617933      -697.0994 
   3   1.0000     -25.617928      -697.0993 
   4   1.0000     -25.617923      -697.0991 
   5   1.0000      -3.360364       -91.4402 
   6   1.0000      -2.138646       -58.1955 
   7   1.0000      -2.138634       -58.1952 
   8   1.0000      -2.138625       -58.1950 
   9   1.0000      -0.213885        -5.8201 
  10   1.0000      -0.213883        -5.8201 
  11   1.0000      -0.213878        -5.8199 
  12   1.0000      -0.175455        -4.7744 
  13   1.0000      -0.175450        -4.7742 
  14   1.0000      -0.175299        -4.7701 
  15   0.0000      -0.027321        -0.7434 
  16   0.0000      -0.027317        -0.7433 
  17   0.0000      -0.027315        -0.7433 
  18   0.0000       0.101309         2.7568 
  19   0.0000       0.101313         2.7569 
  20   0.0000       0.101315         2.7569 
  21   0.0000       0.112063         3.0494 
  22   0.0000       0.182336         4.9616 
  23   0.0000       0.182336         4.9616 
  24   0.0000       0.182338         4.9617 
  25   0.0000       0.184633         5.0241 
  26   0.0000       0.184636         5.0242 
  27   0.0000       0.546780        14.8786 
  28   0.0000       0.546788        14.8789 
  29   0.0000       0.546791        14.8789 
  30   0.0000       0.884473        24.0677 
  31   0.0000       0.884474        24.0678 
  32   0.0000       0.884481        24.0680 
  33   0.0000       0.897179        24.4135 
  34   0.0000       0.897188        24.4137 
  35   0.0000       2.330380        63.4129 
  36   0.0000       2.344503        63.7972 
  37   0.0000       2.344510        63.7973 
  38   0.0000       2.344515        63.7975 
  39   0.0000       2.355363        64.0927 
  40   0.0000       2.355371        64.0929 
  41   0.0000       2.355373        64.0929 
  42   0.0000       2.404132        65.4198 
  43   0.0000       2.404145        65.4201 
  44   0.0000       2.404148        65.4202 
  45   0.0000       2.524791        68.7031 
  46   0.0000       3.462565        94.2212 
  47   0.0000       3.462568        94.2213 
  48   0.0000       3.462573        94.2214 
  49   0.0000       3.491526        95.0092 
  50   0.0000       3.491533        95.0094 
  51   0.0000       8.537905       232.3282 
  52   0.0000       8.537910       232.3284 
  53   0.0000       8.537914       232.3284 
  54   0.0000       8.560292       232.9374 
  55   0.0000       8.560295       232.9375 
  56   0.0000       8.567770       233.1409 
  57   0.0000       8.567770       233.1409 
  58   0.0000       8.567777       233.1411 
  59   0.0000       8.578538       233.4339 
  60   0.0000       9.155538       249.1349 
  61   0.0000       9.188143       250.0221 
  62   0.0000       9.188152       250.0223 
  63   0.0000       9.188163       250.0226 
  64   0.0000       9.214366       250.7356 
  65   0.0000       9.214373       250.7358 
  66   0.0000       9.214377       250.7359 

                 SPIN DOWN ORBITALS
  NO   OCC          E(Eh)            E(eV) 
   0   1.0000    -255.759460     -6959.5687 
   1   1.0000     -29.735251      -809.1373 
   2   1.0000     -25.577686      -696.0042 
   3   1.0000     -25.577684      -696.0042 
   4   1.0000     -25.577681      -696.0041 
   5   1.0000      -3.231085       -87.9223 
   6   1.0000      -2.003623       -54.5214 
   7   1.0000      -2.003620       -54.5213 
   8   1.0000      -2.003618       -54.5212 
   9   1.0000      -0.125883        -3.4255 
  10   1.0000      -0.125881        -3.4254 
  11   0.0000      -0.095570        -2.6006 
  12   0.0000       0.007374         0.2007 
  13   0.0000       0.007394         0.2012 
  14   0.0000       0.007423         0.2020 
  15   0.0000       0.007447         0.2026 
  16   0.0000       0.007472         0.2033 
  17   0.0000       0.007617         0.2073 
  18   0.0000       0.139210         3.7881 
  19   0.0000       0.139225         3.7885 
  20   0.0000       0.139354         3.7920 
  21   0.0000       0.154819         4.2128 
  22   0.0000       0.205021         5.5789 
  23   0.0000       0.205037         5.5793 
  24   0.0000       0.225238         6.1290 
  25   0.0000       0.225302         6.1308 
  26   0.0000       0.225660         6.1405 
  27   0.0000       0.594878        16.1874 
  28   0.0000       0.594894        16.1879 
  29   0.0000       0.594994        16.1906 
  30   0.0000       0.938115        25.5274 
  31   0.0000       0.938127        25.5277 
  32   0.0000       0.974120        26.5072 
  33   0.0000       0.974156        26.5081 
  34   0.0000       0.974290        26.5118 
  35   0.0000       2.414778        65.7095 
  36   0.0000       2.414782        65.7096 
  37   0.0000       2.414793        65.7099 
  38   0.0000       2.442726        66.4699 
  39   0.0000       2.442729        66.4700 
  40   0.0000       2.442735        66.4702 
  41   0.0000       2.476880        67.3993 
  42   0.0000       2.489042        67.7303 
  43   0.0000       2.489049        67.7305 
  44   0.0000       2.489107        67.7321 
  45   0.0000       2.623395        71.3862 
  46   0.0000       3.541843        96.3784 
  47   0.0000       3.541847        96.3786 
  48   0.0000       3.590091        97.6913 
  49   0.0000       3.590107        97.6918 
  50   0.0000       3.590160        97.6932 
  51   0.0000       8.660752       235.6710 
  52   0.0000       8.660756       235.6711 
  53   0.0000       8.660762       235.6713 
  54   0.0000       8.662659       235.7229 
  55   0.0000       8.664454       235.7718 
  56   0.0000       8.664456       235.7718 
  57   0.0000       8.676939       236.1115 
  58   0.0000       8.676941       236.1116 
  59   0.0000       8.676942       236.1116 
  60   0.0000       9.331898       253.9339 
  61   0.0000       9.331901       253.9339 
  62   0.0000       9.331906       253.9341 
  63   0.0000       9.361361       254.7356 
  64   0.0000       9.361362       254.7356 
  65   0.0000       9.361364       254.7357 
  66   0.0000       9.387106       255.4362 

                    ********************************
                    * MULLIKEN POPULATION ANALYSIS *
                    ********************************

--------------------------------------------
MULLIKEN ATOMIC CHARGES AND SPIN POPULATIONS
--------------------------------------------
   0 Fe:   -0.000000    4.000000
Sum of atomic charges         :   -0.0000000
Sum of atomic spin populations:    4.0000000

-----------------------------------------------------
MULLIKEN REDUCED ORBITAL CHARGES AND SPIN POPULATIONS
-----------------------------------------------------
CHARGE
  0 Fes       :     6.999974  s :     6.999974
      pz      :     3.999913  p :    11.999739
      px      :     3.999913
      py      :     3.999913
      dz2     :     1.970329  d :     6.999965
      dxz     :     1.018477
      dyz     :     1.021051
      dx2y2   :     1.984502
      dxy     :     1.005605
      f0      :     0.000084  f :     0.000261
      f+1     :     0.000033
      f-1     :     0.000034
      f+2     :     0.000003
      f-2     :     0.000000
      f+3     :     0.000054
      f-3     :     0.000053
      g0      :     0.000020  g :     0.000061
      g+1     :     0.000001
      g-1     :     0.000002
      g+2     :     0.000014
      g-2     :     0.000002
      g+3     :     0.000002
      g-3     :     0.000002
      g+4     :     0.000019
      g-4     :     0.000000

SPIN
  0 Fes       :     1.000008  s :     1.000008
      pz      :     0.000055  p :     0.000164
      px      :     0.000055
      py      :     0.000055
      dz2     :     0.029659  d :     3.000002
      dxz     :     0.981520
      dyz     :     0.978945
      dx2y2   :     0.015486
      dxy     :     0.994392
      f0      :    -0.000053  f :    -0.000164
      f+1     :    -0.000021
      f-1     :    -0.000021
      f+2     :    -0.000002
      f-2     :    -0.000000
      f+3     :    -0.000034
      f-3     :    -0.000034
      g0      :    -0.000006  g :    -0.000011
      g+1     :    -0.000000
      g-1     :    -0.000000
      g+2     :    -0.000003
      g-2     :     0.000001
      g+3     :     0.000001
      g-3     :     0.000001
      g+4     :    -0.000005
      g-4     :    -0.000000


                     *******************************
                     * LOEWDIN POPULATION ANALYSIS *
                     *******************************

-------------------------------------------
LOEWDIN ATOMIC CHARGES AND SPIN POPULATIONS
-------------------------------------------
   0 Fe:   -0.000000    4.000000

----------------------------------------------------
LOEWDIN REDUCED ORBITAL CHARGES AND SPIN POPULATIONS
----------------------------------------------------
CHARGE
  0 Fes       :     6.999974  s :     6.999974
      pz      :     3.999913  p :    11.999739
      px      :     3.999913
      py      :     3.999913
      dz2     :     1.970329  d :     6.999965
      dxz     :     1.018477
      dyz     :     1.021051
      dx2y2   :     1.984502
      dxy     :     1.005605
      f0      :     0.000084  f :     0.000261
      f+1     :     0.000033
      f-1     :     0.000034
      f+2     :     0.000003
      f-2     :     0.000000
      f+3     :     0.000054
      f-3     :     0.000053
      g0      :     0.000020  g :     0.000061
      g+1     :     0.000001
      g-1     :     0.000002
      g+2     :     0.000014
      g-2     :     0.000002
      g+3     :     0.000002
      g-3     :     0.000002
      g+4     :     0.000019
      g-4     :     0.000000

SPIN
  0 Fes       :     1.000008  s :     1.000008
      pz      :     0.000055  p :     0.000164
      px      :     0.000055
      py      :     0.000055
      dz2     :     0.029659  d :     3.000002
      dxz     :     0.981520
      dyz     :     0.978945
      dx2y2   :     0.015486
      dxy     :     0.994392
      f0      :    -0.000053  f :    -0.000164
      f+1     :    -0.000021
      f-1     :    -0.000021
      f+2     :    -0.000002
      f-2     :    -0.000000
      f+3     :    -0.000034
      f-3     :    -0.000034
      g0      :    -0.000006  g :    -0.000011
      g+1     :    -0.000000
      g-1     :    -0.000000
      g+2     :    -0.000003
      g-2     :     0.000001
      g+3     :     0.000001
      g-3     :     0.000001
      g+4     :    -0.000005
      g-4     :    -0.000000


                      *****************************
                      * MAYER POPULATION ANALYSIS *
                      *****************************

  NA   - Mulliken gross atomic population
  ZA   - Total nuclear charge
  QA   - Mulliken gross atomic charge
  VA   - Mayer's total valence
  BVA  - Mayer's bonded valence
  FA   - Mayer's free valence

  ATOM       NA         ZA         QA         VA         BVA        FA
  0 Fe    26.0000    26.0000    -0.0000     4.0017     0.0000     4.0017

  Mayer bond orders larger than 0.100000


-------
TIMINGS
-------

Total SCF time: 0 days 0 hours 1 min 0 sec 

Total time                  ....      60.275 sec
Sum of individual times     ....      59.495 sec  ( 98.7%)

Fock matrix formation       ....      57.408 sec  ( 95.2%)
  XC integration            ....      51.372 sec  ( 89.5% of F)
    Basis function eval.    ....       0.019 sec  (  0.0% of XC)
    Density eval.           ....       0.051 sec  (  0.1% of XC)
    XC-Functional eval.     ....       0.042 sec  (  0.1% of XC)
    XC-Potential eval.      ....       0.074 sec  (  0.1% of XC)
Diagonalization             ....       0.893 sec  (  1.5%)
Density matrix formation    ....       0.009 sec  (  0.0%)
Population analysis         ....       0.105 sec  (  0.2%)
Initial guess               ....       0.275 sec  (  0.5%)
Orbital Transformation      ....       0.000 sec  (  0.0%)
Orbital Orthonormalization  ....       0.000 sec  (  0.0%)
DIIS solution               ....       0.252 sec  (  0.4%)
Grid generation             ....       0.555 sec  (  0.9%)


-------------------------------------------------------------------------------
                          DFT DISPERSION CORRECTION                            
                                                                               
                              DFTD3 V3.1  Rev 1                                
                          USING Becke-Johnson damping                          
-------------------------------------------------------------------------------
The TPSSH functional is recognized
Active option DFTDOPT                   ...         4   

molecular C6(AA) [au] = 491.327720 


            DFT-D V3
 parameters
 s6 scaling factor         :     1.0000 
 a1 scaling factor         :     0.4529 
 s8 scaling factor         :     2.2382 
 a2 scaling factor         :     4.6550 
 ad hoc parameters k1-k3   :    16.0000     1.3333    -4.0000 

 Edisp/kcal,au: -0.000000000000  -0.000000000000 
 E6   /kcal   :  -0.000000000 
 E8   /kcal   :  -0.000000000 
 % E8         :          -nan 

-------------------------   ----------------
Dispersion correction            0.000000000
-------------------------   ----------------


-------------------------   --------------------
FINAL SINGLE POINT ENERGY     -1263.673987388307
-------------------------   --------------------


                            ***************************************
                            *     ORCA property calculations      *
                            ***************************************

                                    ---------------------
                                    Active property flags
                                    ---------------------
   (+) Dipole Moment


------------------------------------------------------------------------------
                       ORCA ELECTRIC PROPERTIES CALCULATION
------------------------------------------------------------------------------

Dipole Moment Calculation                       ... on
Quadrupole Moment Calculation                   ... off
Polarizability Calculation                      ... off
GBWName                                         ... Fe.gbw
Electron density file                           ... Fe.scfp
The origin for moment calculation is the CENTER OF MASS  = ( 0.000000,  0.000000  0.000000)

-------------
DIPOLE MOMENT
-------------
                                X             Y             Z
Electronic contribution:     -0.00000      -0.00000       0.00000
Nuclear contribution   :      0.00000       0.00000       0.00000
                        -----------------------------------------
Total Dipole Moment    :     -0.00000      -0.00000       0.00000
                        -----------------------------------------
Magnitude (a.u.)       :      0.00000
Magnitude (Debye)      :      0.00000



--------------------
Rotational spectrum 
--------------------
 
Rotational constants in cm-1:     0.000000     0.000000     0.000000 
Rotational constants in MHz :     0.000000     0.000000     0.000000 

 Dipole components along the rotational axes: 
x,y,z [a.u.] :    -0.000000    -0.000000     0.000000 
x,y,z [Debye]:    -0.000000    -0.000000     0.000000 

 

Timings for individual modules:

Sum of individual times         ...       68.170 sec (=   1.136 min)
GTO integral calculation        ...        5.002 sec (=   0.083 min)   7.3 %
SCF iterations                  ...       63.168 sec (=   1.053 min)  92.7 %
                             ****ORCA TERMINATED NORMALLY****
TOTAL RUN TIME: 0 days 0 hours 1 minutes 12 seconds 180 msec
