
                                 *****************
                                 * O   R   C   A *
                                 *****************

           --- An Ab Initio, DFT and Semiempirical electronic structure package ---

                  #######################################################
                  #                        -***-                        #
                  #          Department of theory and spectroscopy      #
                  #               Directorship: Frank Neese             #
                  #        Max Planck Institute fuer Kohlenforschung    #
                  #                Kaiser Wilhelm Platz 1               #
                  #                 D-45470 Muelheim/Ruhr               #
                  #                      Germany                        #
                  #                                                     #
                  #                  All rights reserved                #
                  #                        -***-                        #
                  #######################################################


                         Program Version 4.2.0 -  RELEASE  -


 With contributions from (in alphabetic order):
   Daniel Aravena         : Magnetic Suceptibility
   Michael Atanasov       : Ab Initio Ligand Field Theory (pilot matlab implementation)
   Alexander A. Auer      : GIAO ZORA, VPT2
   Ute Becker             : Parallelization
   Giovanni Bistoni       : ED, misc. LED, open-shell LED, HFLED
   Martin Brehm           : Molecular dynamics
   Dmytro Bykov           : SCF Hessian
   Vijay G. Chilkuri      : MRCI spin determinant printing, contributions to CSF-ICE
   Dipayan Datta          : RHF DLPNO-CCSD density
   Achintya Kumar Dutta   : EOM-CC, STEOM-CC
   Dmitry Ganyushin       : Spin-Orbit,Spin-Spin,Magnetic field MRCI
   Miquel Garcia          : C-PCM Hessian, Gaussian charge scheme
   Yang Guo               : DLPNO-NEVPT2, CIM, IAO-localization
   Andreas Hansen         : Spin unrestricted coupled pair/coupled cluster methods
   Benjamin Helmich-Paris : CASSCF linear response (MC-RPA)
   Lee Huntington         : MR-EOM, pCC
   Robert Izsak           : Overlap fitted RIJCOSX, COSX-SCS-MP3, EOM
   Christian Kollmar      : KDIIS, OOCD, Brueckner-CCSD(T), CCSD density
   Simone Kossmann        : Meta GGA functionals, TD-DFT gradient, OOMP2, MP2 Hessian
   Martin Krupicka        : AUTO-CI
   Lucas Lang             : DCDCAS
   Dagmar Lenk            : GEPOL surface, SMD
   Dimitrios Liakos       : Extrapolation schemes; Compound Job, initial MDCI parallelization
   Dimitrios Manganas     : Further ROCIS development; embedding schemes
   Dimitrios Pantazis     : SARC Basis sets
   Taras Petrenko         : DFT Hessian,TD-DFT gradient, ASA, ECA, R-Raman, ABS, FL, XAS/XES, NRVS
   Peter Pinski           : DLPNO-MP2, DLPNO-MP2 Gradient
   Christoph Reimann      : Effective Core Potentials
   Marius Retegan         : Local ZFS, SOC
   Christoph Riplinger    : Optimizer, TS searches, QM/MM, DLPNO-CCSD(T), (RO)-DLPNO pert. Triples
   Tobias Risthaus        : Range-separated hybrids, TD-DFT gradient, RPA, STAB
   Michael Roemelt        : Original ROCIS implementation
   Masaaki Saitow         : Open-shell DLPNO-CCSD energy and density
   Barbara Sandhoefer     : DKH picture change effects
   Avijit Sen             : IP-ROCIS
   Kantharuban Sivalingam : CASSCF convergence, NEVPT2, FIC-MRCI
   Bernardo de Souza      : ESD, SOC TD-DFT
   Georgi Stoychev        : AutoAux, RI-MP2 NMR
   Willem Van den Heuvel  : Paramagnetic NMR
   Boris Wezisla          : Elementary symmetry handling
   Frank Wennmohs         : Technical directorship


 We gratefully acknowledge several colleagues who have allowed us to
 interface, adapt or use parts of their codes:
   Stefan Grimme, W. Hujo, H. Kruse,             : VdW corrections, initial TS optimization,
                  C. Bannwarth                     DFT functionals, gCP, sTDA/sTD-DF
   Ed Valeev, F. Pavosevic, A. Kumar             : LibInt (2-el integral package), F12 methods
   Garnet Chan, S. Sharma, J. Yang, R. Olivares  : DMRG
   Ulf Ekstrom                                   : XCFun DFT Library
   Mihaly Kallay                                 : mrcc  (arbitrary order and MRCC methods)
   Andreas Klamt, Michael Diedenhofen            : otool_cosmo (COSMO solvation model)
   Jiri Pittner, Ondrej Demel                    : Mk-CCSD
   Frank Weinhold                                : gennbo (NPA and NBO analysis)
   Christopher J. Cramer and Donald G. Truhlar   : smd solvation model
   Lars Goerigk                                  : TD-DFT with DH, B97 family of functionals
   V. Asgeirsson, H. Jonsson                     : NEB implementation
   FAccTs GmbH                                   : IRC, NEB, NEB-TS, Multilevel, MM, QM/MM, CI optimization
   S Lehtola, MJT Oliveira, MAL Marques          : LibXC Library


 Your calculation uses the libint2 library for the computation of 2-el integrals
 For citations please refer to: http://libint.valeyev.net

 Your ORCA version has been built with support for libXC version: 4.2.3
 For citations please refer to: https://tddft.org/programs/libxc/

 This ORCA versions uses:
   CBLAS   interface :  Fast vector & matrix operations
   LAPACKE interface :  Fast linear algebra routines
   SCALAPACK package :  Parallel linear algebra routines


Your calculation utilizes the atom-pairwise dispersion correction
with the Becke-Johnson damping scheme (D3BJ)
Cite in your paper:
S.Grimme, S.Ehrlich, L.Goerigk, J Comput Chem, (2011), 32, 1456–1465 
S.Grimme, J.Antony, S.Ehrlich and H.Krieg, J.Chem.Phys., 132, (2010), 154104 
   

----- Orbital basis set information -----
Your calculation utilizes the basis: def2-TZVPPD
   F. Weigend and R. Ahlrichs, Phys. Chem. Chem. Phys. 7, 3297 (2005).
   D. Rappoport and F. Furche, J. Chem. Phys. 133 134105 (2010).

----- AuxJK basis set information -----
Your calculation utilizes the auxiliary basis: def2/JK
   H-Ba, Hf-Rn: F. Weigend, J. Comput. Chem. 29, 167 (2008).

================================================================================
                                        WARNINGS
                       Please study these warnings very carefully!
================================================================================


WARNING: your system is open-shell and RHF/RKS was chosen
  ===> : WILL SWITCH to UHF/UKS


INFO   : the flag for use of LIBINT has been found!

================================================================================
                                       INPUT FILE
================================================================================
NAME = Ni+.in
|  1> #
|  2> # Ni+ TPSSh-D3BJ/Def2-TZVPPD
|  3> #
|  4> ! tpssh d3bj def2-tzvppd def2/jk grid4 nofinalgrid
|  5> 
|  6> *xyz 1 2
|  7> Ni         0.00000        0.00000        0.00000
|  8> *
|  9> 
| 10> %maxcore 5000
| 11> 
| 12> %pal
| 13> nprocs = 28
| 14> end
| 15> 
| 16> 
| 17>                          ****END OF INPUT****
================================================================================

                       ****************************
                       * Single Point Calculation *
                       ****************************

---------------------------------
CARTESIAN COORDINATES (ANGSTROEM)
---------------------------------
  Ni     0.000000    0.000000    0.000000

----------------------------
CARTESIAN COORDINATES (A.U.)
----------------------------
  NO LB      ZA    FRAG     MASS         X           Y           Z
   0 Ni   28.0000    0    58.700    0.000000    0.000000    0.000000

--------------------------------
INTERNAL COORDINATES (ANGSTROEM)
--------------------------------
 Ni     0   0   0     0.000000000000     0.00000000     0.00000000

---------------------------
INTERNAL COORDINATES (A.U.)
---------------------------
 Ni     0   0   0     0.000000000000     0.00000000     0.00000000

---------------------
BASIS SET INFORMATION
---------------------
There are 1 groups of distinct atoms

 Group   1 Type Ni  : 17s13p7d2f1g contracted to 6s6p4d2f1g pattern {842111/631111/4111/11/1}

Atom   0Ni   basis set group =>   1
----------------------------------
AUXILIARY/JK BASIS SET INFORMATION
----------------------------------
There are 1 groups of distinct atoms

 Group   1 Type Ni  : 19s14p12d10f7g3h1i contracted to 16s13p11d9f5g3h1i pattern {4111111111111111/2111111111111/21111111111/211111111/31111/111/1}

Atom   0Ni   basis set group =>   1


           ************************************************************
           *        Program running with 28 parallel MPI-processes    *
           *              working on a common directory               *
           ************************************************************
------------------------------------------------------------------------------
                           ORCA GTO INTEGRAL CALCULATION
------------------------------------------------------------------------------

                         BASIS SET STATISTICS AND STARTUP INFO

 # of primitive gaussian shells          ...   40
 # of primitive gaussian functions       ...  114
 # of contracted shells                  ...   19
 # of contracted basis functions         ...   67
 Highest angular momentum                ...    4
 Maximum contraction depth               ...    8
 Integral package used                   ... LIBINT
 Integral threshhold            Thresh   ...  1.000e-10
 Primitive cut-off              TCut     ...  1.000e-11


------------------------------ INTEGRAL EVALUATION ----------------------------


 * One electron integrals 
 Pre-screening matrix                    ... done
 Shell pair data                         ... done (   0.000 sec)



           ************************************************************
           *        Program running with 28 parallel MPI-processes    *
           *              working on a common directory               *
           ************************************************************
-------------------------------------------------------------------------------
                                 ORCA SCF
-------------------------------------------------------------------------------

------------
SCF SETTINGS
------------
Hamiltonian:
 Density Functional     Method          .... DFT(GTOs)
 Exchange Functional    Exchange        .... TPSS
 Correlation Functional Correlation     .... TPSS
 LDA part of GGA corr.  LDAOpt          .... PW91-LDA
 Gradients option       PostSCFGGA      .... off
 Hybrid DFT is turned on
   Fraction HF Exchange ScalHFX         ....  0.100000
   Scaling of DF-GGA-X  ScalDFX         ....  0.900000
   Scaling of DF-GGA-C  ScalDFC         ....  1.000000
   Scaling of DF-LDA-C  ScalLDAC        ....  1.000000
   Perturbative correction              ....  0.000000
   Density functional embedding theory  .... OFF
   NL short-range parameter             ....  5.200000


General Settings:
 Integral files         IntName         .... Ni+
 Hartree-Fock type      HFTyp           .... UHF
 Total Charge           Charge          ....    1
 Multiplicity           Mult            ....    2
 Number of Electrons    NEL             ....   27
 Basis Dimension        Dim             ....   67
 Nuclear Repulsion      ENuc            ....      0.0000000000 Eh

Convergence Acceleration:
 DIIS                   CNVDIIS         .... on
   Start iteration      DIISMaxIt       ....    12
   Startup error        DIISStart       ....  0.200000
   # of expansion vecs  DIISMaxEq       ....     5
   Bias factor          DIISBfac        ....   1.050
   Max. coefficient     DIISMaxC        ....  10.000
 Newton-Raphson         CNVNR           .... off
 SOSCF                  CNVSOSCF        .... off
 Level Shifting         CNVShift        .... on
   Level shift para.    LevelShift      ....    0.2500
   Turn off err/grad.   ShiftErr        ....    0.0010
 Zerner damping         CNVZerner       .... off
 Static damping         CNVDamp         .... on
   Fraction old density DampFac         ....    0.7000
   Max. Damping (<1)    DampMax         ....    0.9800
   Min. Damping (>=0)   DampMin         ....    0.0000
   Turn off err/grad.   DampErr         ....    0.1000
 Fernandez-Rico         CNVRico         .... off

SCF Procedure:
 Maximum # iterations   MaxIter         ....   125
 SCF integral mode      SCFMode         .... Direct
   Integral package                     .... LIBINT
 Reset frequency        DirectResetFreq ....    20
 Integral Threshold     Thresh          ....  1.000e-10 Eh
 Primitive CutOff       TCut            ....  1.000e-11 Eh

Convergence Tolerance:
 Convergence Check Mode ConvCheckMode   .... Total+1el-Energy
 Convergence forced     ConvForced      .... 0
 Energy Change          TolE            ....  1.000e-06 Eh
 1-El. energy change                    ....  1.000e-03 Eh
 DIIS Error             TolErr          ....  1.000e-06


Diagonalization of the overlap matrix:
Smallest eigenvalue                        ... 4.474e-02
Time for diagonalization                   ...    0.002 sec
Threshold for overlap eigenvalues          ... 1.000e-08
Number of eigenvalues below threshold      ... 0
Time for construction of square roots      ...    0.026 sec
Total time needed                          ...    0.028 sec

-------------------
DFT GRID GENERATION
-------------------

General Integration Accuracy     IntAcc      ...  4.670
Radial Grid Type                 RadialGrid  ... Gauss-Chebyshev
Angular Grid (max. acc.)         AngularGrid ... Lebedev-302
Angular grid pruning method      GridPruning ... 3 (G Style)
Weight generation scheme         WeightScheme... Becke
Basis function cutoff            BFCut       ...    1.0000e-10
Integration weight cutoff        WCut        ...    1.0000e-14
Grids for H and He will be reduced by one unit

# of grid points (after initial pruning)     ...   9664 (   0.0 sec)
# of grid points (after weights+screening)   ...   9664 (   0.0 sec)
Grid point division into batches done        ...    0.1 sec
Reduced shell lists constructed in    0.1 sec

Total number of grid points                  ...     9664
Total number of batches                      ...      152
Average number of points per batch           ...       63
Average number of grid points per atom       ...     9664
Average number of shells per batch           ...     3.43 (18.05%)
Average number of basis functions per batch  ...    10.29 (15.35%)
Average number of large shells per batch     ...     1.71 (50.00%)
Average number of large basis fcns per batch ...     3.43 (33.33%)
Maximum spatial batch extension              ...  20.42, 20.42, 20.42 au
Average spatial batch extension              ...   0.71,  0.70,  0.68 au

Time for grid setup =    0.959 sec

------------------------------
INITIAL GUESS: MODEL POTENTIAL
------------------------------
Loading Hartree-Fock densities                     ... done
Calculating cut-offs                               ... done
Setting up the integral package                    ... done
Initializing the effective Hamiltonian             ... done
Starting the Coulomb interaction                   ... done (   0.0 sec)
Reading the grid                                   ... done
Mapping shells                                     ... done
Starting the XC term evaluation                    ... done (   0.0 sec)
  promolecular density results
     # of electrons  =     28.000038162
     EX              =    -61.494585536
     EC              =     -1.267234068
     EX+EC           =    -62.761819604
Transforming the Hamiltonian                       ... done (   0.0 sec)
Diagonalizing the Hamiltonian                      ... done (   0.0 sec)
Back transforming the eigenvectors                 ... done (   0.0 sec)
Now organizing SCF variables                       ... done
                      ------------------
                      INITIAL GUESS DONE (   1.2 sec)
                      ------------------
--------------
SCF ITERATIONS
--------------
ITER       Energy         Delta-E        Max-DP      RMS-DP      [F,P]     Damp
               ***  Starting incremental Fock matrix formation  ***
  0  -1507.9759975957   0.000000000000 0.01716300  0.00075575  0.2011710 0.7000
  1  -1507.9891767680  -0.013179172300 0.00515918  0.00019494  0.0386771 0.7000
                               ***Turning on DIIS***
  2  -1507.9935092972  -0.004332529186 0.00623869  0.00028308  0.0244675 0.0000
  3  -1508.0059128333  -0.012403536113 0.00290775  0.00013720  0.0140051 0.0000
  4  -1508.0060341791  -0.000121345823 0.00127485  0.00006070  0.0089030 0.0000
  5  -1508.0061040406  -0.000069861502 0.00137824  0.00003285  0.0017305 0.0000
  6  -1508.0061159795  -0.000011938859 0.00450323  0.00009759  0.0001284 0.0000
  7  -1508.0061412558  -0.000025276297 0.00003058  0.00000065  0.0003026 0.0000
                 **** Energy Check signals convergence ****

               *****************************************************
               *                     SUCCESS                       *
               *           SCF CONVERGED AFTER   8 CYCLES          *
               *****************************************************


----------------
TOTAL SCF ENERGY
----------------

Total Energy       :        -1508.00614111 Eh          -41034.93328 eV

Components:
Nuclear Repulsion  :            0.00000000 Eh               0.00000 eV
Electronic Energy  :        -1508.00614111 Eh          -41034.93328 eV
One Electron Energy:        -2088.77497502 Eh          -56838.45668 eV
Two Electron Energy:          580.76883390 Eh           15803.52341 eV

Virial components:
Potential Energy   :        -3013.51752072 Eh          -82001.98064 eV
Kinetic Energy     :         1505.51137960 Eh           40967.04736 eV
Virial Ratio       :            2.00165709


DFT components:
N(Alpha)           :       14.000000552095 electrons
N(Beta)            :       13.000000552189 electrons
N(Total)           :       27.000001104284 electrons
E(X)               :      -55.648724735808 Eh       
E(C)               :       -1.260353764370 Eh       
E(XC)              :      -56.909078500177 Eh       
DFET-embed. en.    :        0.000000000000 Eh       

---------------
SCF CONVERGENCE
---------------

  Last Energy change         ...    1.4178e-07  Tolerance :   1.0000e-06
  Last MAX-Density change    ...    2.7241e-05  Tolerance :   1.0000e-05
  Last RMS-Density change    ...    5.7685e-07  Tolerance :   1.0000e-06
  Last DIIS Error            ...    3.0326e-04  Tolerance :   1.0000e-06

             **** THE GBW FILE WAS UPDATED (Ni+.gbw) ****
             **** DENSITY FILE WAS UPDATED (Ni+.scfp) ****
             **** ENERGY FILE WAS UPDATED (Ni+.en.tmp) ****
----------------------
UHF SPIN CONTAMINATION
----------------------

Warning: in a DFT calculation there is little theoretical justification to 
         calculate <S**2> as in Hartree-Fock theory. We will do it anyways
         but you should keep in mind that the values have only limited relevance

Expectation value of <S**2>     :     0.753586
Ideal value S*(S+1) for S=0.5   :     0.750000
Deviation                       :     0.003586

             **** THE GBW FILE WAS UPDATED (Ni+.gbw) ****
             **** DENSITY FILE WAS UPDATED (Ni+.scfp) ****
----------------
ORBITAL ENERGIES
----------------
                 SPIN UP ORBITALS
  NO   OCC          E(Eh)            E(eV) 
   0   1.0000    -299.861515     -8159.6467 
   1   1.0000     -35.851705      -975.5745 
   2   1.0000     -31.263912      -850.7343 
   3   1.0000     -31.261313      -850.6636 
   4   1.0000     -31.227654      -849.7477 
   5   1.0000      -4.232783      -115.1799 
   6   1.0000      -2.849939       -77.5508 
   7   1.0000      -2.844677       -77.4076 
   8   1.0000      -2.777152       -75.5702 
   9   1.0000      -0.574783       -15.6406 
  10   1.0000      -0.529271       -14.4022 
  11   1.0000      -0.505712       -13.7611 
  12   1.0000      -0.503912       -13.7121 
  13   1.0000      -0.496084       -13.4991 
  14   0.0000      -0.385439       -10.4883 
  15   0.0000      -0.216740        -5.8978 
  16   0.0000      -0.216202        -5.8831 
  17   0.0000      -0.207999        -5.6599 
  18   0.0000      -0.051649        -1.4055 
  19   0.0000      -0.028925        -0.7871 
  20   0.0000      -0.028655        -0.7797 
  21   0.0000      -0.024297        -0.6612 
  22   0.0000       0.015609         0.4247 
  23   0.0000       0.017734         0.4826 
  24   0.0000       0.022049         0.6000 
  25   0.0000       0.022327         0.6076 
  26   0.0000       0.023732         0.6458 
  27   0.0000       0.425068        11.5667 
  28   0.0000       0.426052        11.5935 
  29   0.0000       0.440608        11.9896 
  30   0.0000       0.786626        21.4052 
  31   0.0000       0.797845        21.7105 
  32   0.0000       0.809821        22.0364 
  33   0.0000       0.810648        22.0588 
  34   0.0000       0.814647        22.1677 
  35   0.0000       2.616384        71.1954 
  36   0.0000       2.619742        71.2868 
  37   0.0000       2.658350        72.3374 
  38   0.0000       2.709543        73.7304 
  39   0.0000       2.709719        73.7352 
  40   0.0000       2.728969        74.2590 
  41   0.0000       2.732348        74.3510 
  42   0.0000       2.745804        74.7171 
  43   0.0000       2.752408        74.8968 
  44   0.0000       2.753366        74.9229 
  45   0.0000       2.756769        75.0155 
  46   0.0000       3.812088       103.7322 
  47   0.0000       3.844535       104.6151 
  48   0.0000       3.865392       105.1827 
  49   0.0000       3.866963       105.2254 
  50   0.0000       3.874453       105.4292 
  51   0.0000      11.151816       303.4563 
  52   0.0000      11.153374       303.4987 
  53   0.0000      11.183660       304.3229 
  54   0.0000      11.185689       304.3781 
  55   0.0000      11.195892       304.6557 
  56   0.0000      11.223225       305.3995 
  57   0.0000      11.224126       305.4240 
  58   0.0000      11.224450       305.4328 
  59   0.0000      11.225062       305.4495 
  60   0.0000      11.444260       311.4142 
  61   0.0000      11.445839       311.4571 
  62   0.0000      11.476500       312.2914 
  63   0.0000      11.514349       313.3214 
  64   0.0000      11.518983       313.4475 
  65   0.0000      11.519926       313.4731 
  66   0.0000      11.522231       313.5358 

                 SPIN DOWN ORBITALS
  NO   OCC          E(Eh)            E(eV) 
   0   1.0000    -299.861268     -8159.6399 
   1   1.0000     -35.832134      -975.0419 
   2   1.0000     -31.241285      -850.1186 
   3   1.0000     -31.239971      -850.0828 
   4   1.0000     -31.222237      -849.6003 
   5   1.0000      -4.183618      -113.8420 
   6   1.0000      -2.779402       -75.6314 
   7   1.0000      -2.778545       -75.6081 
   8   1.0000      -2.761824       -75.1531 
   9   1.0000      -0.522977       -14.2309 
  10   1.0000      -0.481645       -13.1062 
  11   1.0000      -0.478652       -13.0248 
  12   1.0000      -0.465264       -12.6605 
  13   0.0000      -0.376771       -10.2524 
  14   0.0000      -0.375531       -10.2187 
  15   0.0000      -0.209772        -5.7082 
  16   0.0000      -0.209595        -5.7034 
  17   0.0000      -0.209355        -5.6968 
  18   0.0000      -0.047213        -1.2847 
  19   0.0000      -0.025342        -0.6896 
  20   0.0000      -0.025323        -0.6891 
  21   0.0000      -0.025256        -0.6872 
  22   0.0000       0.018452         0.5021 
  23   0.0000       0.023304         0.6341 
  24   0.0000       0.023718         0.6454 
  25   0.0000       0.025616         0.6970 
  26   0.0000       0.031457         0.8560 
  27   0.0000       0.440228        11.9792 
  28   0.0000       0.440323        11.9818 
  29   0.0000       0.440765        11.9938 
  30   0.0000       0.800488        21.7824 
  31   0.0000       0.817219        22.2377 
  32   0.0000       0.818600        22.2752 
  33   0.0000       0.823804        22.4168 
  34   0.0000       0.839151        22.8345 
  35   0.0000       2.653477        72.2048 
  36   0.0000       2.654188        72.2241 
  37   0.0000       2.667874        72.5966 
  38   0.0000       2.746760        74.7432 
  39   0.0000       2.752525        74.9000 
  40   0.0000       2.753868        74.9366 
  41   0.0000       2.764688        75.2310 
  42   0.0000       2.772860        75.4533 
  43   0.0000       2.776148        75.5428 
  44   0.0000       2.779830        75.6430 
  45   0.0000       2.780671        75.6659 
  46   0.0000       3.856194       104.9324 
  47   0.0000       3.885086       105.7186 
  48   0.0000       3.887189       105.7758 
  49   0.0000       3.897391       106.0534 
  50   0.0000       3.903451       106.2183 
  51   0.0000      11.221722       305.3586 
  52   0.0000      11.223297       305.4014 
  53   0.0000      11.233016       305.6659 
  54   0.0000      11.233465       305.6781 
  55   0.0000      11.241122       305.8865 
  56   0.0000      11.248940       306.0992 
  57   0.0000      11.251903       306.1798 
  58   0.0000      11.253689       306.2285 
  59   0.0000      11.255278       306.2717 
  60   0.0000      11.529201       313.7255 
  61   0.0000      11.530500       313.7609 
  62   0.0000      11.531245       313.7811 
  63   0.0000      11.560051       314.5650 
  64   0.0000      11.562356       314.6277 
  65   0.0000      11.563472       314.6581 
  66   0.0000      11.564239       314.6789 

                    ********************************
                    * MULLIKEN POPULATION ANALYSIS *
                    ********************************

--------------------------------------------
MULLIKEN ATOMIC CHARGES AND SPIN POPULATIONS
--------------------------------------------
   0 Ni:    1.000000    1.000000
Sum of atomic charges         :    1.0000000
Sum of atomic spin populations:    1.0000000

-----------------------------------------------------
MULLIKEN REDUCED ORBITAL CHARGES AND SPIN POPULATIONS
-----------------------------------------------------
CHARGE
  0 Nis       :     6.001311  s :     6.001311
      pz      :     3.999940  p :    11.999850
      px      :     3.999957
      py      :     3.999954
      dz2     :     1.954842  d :     8.998632
      dxz     :     1.576860
      dyz     :     1.475031
      dx2y2   :     1.999503
      dxy     :     1.992397
      f0      :     0.000022  f :     0.000150
      f+1     :     0.000025
      f-1     :     0.000028
      f+2     :     0.000001
      f-2     :     0.000036
      f+3     :     0.000019
      f-3     :     0.000019
      g0      :     0.000007  g :     0.000057
      g+1     :     0.000004
      g-1     :     0.000004
      g+2     :     0.000004
      g-2     :     0.000011
      g+3     :     0.000007
      g-3     :     0.000006
      g+4     :     0.000007
      g-4     :     0.000007

SPIN
  0 Nis       :    -0.000180  s :    -0.000180
      pz      :    -0.000005  p :    -0.000025
      px      :    -0.000011
      py      :    -0.000009
      dz2     :     0.044866  d :     1.000153
      dxz     :     0.423124
      dyz     :     0.524952
      dx2y2   :     0.000469
      dxy     :     0.006742
      f0      :    -0.000019  f :     0.000025
      f+1     :     0.000001
      f-1     :    -0.000001
      f+2     :     0.000000
      f-2     :     0.000021
      f+3     :     0.000011
      f-3     :     0.000011
      g0      :    -0.000002  g :     0.000027
      g+1     :     0.000000
      g-1     :     0.000000
      g+2     :     0.000004
      g-2     :     0.000007
      g+3     :     0.000006
      g-3     :     0.000006
      g+4     :     0.000003
      g-4     :     0.000003


                     *******************************
                     * LOEWDIN POPULATION ANALYSIS *
                     *******************************

-------------------------------------------
LOEWDIN ATOMIC CHARGES AND SPIN POPULATIONS
-------------------------------------------
   0 Ni:    1.000000    1.000000

----------------------------------------------------
LOEWDIN REDUCED ORBITAL CHARGES AND SPIN POPULATIONS
----------------------------------------------------
CHARGE
  0 Nis       :     6.001311  s :     6.001311
      pz      :     3.999940  p :    11.999850
      px      :     3.999957
      py      :     3.999954
      dz2     :     1.954842  d :     8.998632
      dxz     :     1.576860
      dyz     :     1.475031
      dx2y2   :     1.999503
      dxy     :     1.992397
      f0      :     0.000022  f :     0.000150
      f+1     :     0.000025
      f-1     :     0.000028
      f+2     :     0.000001
      f-2     :     0.000036
      f+3     :     0.000019
      f-3     :     0.000019
      g0      :     0.000007  g :     0.000057
      g+1     :     0.000004
      g-1     :     0.000004
      g+2     :     0.000004
      g-2     :     0.000011
      g+3     :     0.000007
      g-3     :     0.000006
      g+4     :     0.000007
      g-4     :     0.000007

SPIN
  0 Nis       :    -0.000180  s :    -0.000180
      pz      :    -0.000005  p :    -0.000025
      px      :    -0.000011
      py      :    -0.000009
      dz2     :     0.044866  d :     1.000153
      dxz     :     0.423124
      dyz     :     0.524952
      dx2y2   :     0.000469
      dxy     :     0.006742
      f0      :    -0.000019  f :     0.000025
      f+1     :     0.000001
      f-1     :    -0.000001
      f+2     :     0.000000
      f-2     :     0.000021
      f+3     :     0.000011
      f-3     :     0.000011
      g0      :    -0.000002  g :     0.000027
      g+1     :     0.000000
      g-1     :     0.000000
      g+2     :     0.000004
      g-2     :     0.000007
      g+3     :     0.000006
      g-3     :     0.000006
      g+4     :     0.000003
      g-4     :     0.000003


                      *****************************
                      * MAYER POPULATION ANALYSIS *
                      *****************************

  NA   - Mulliken gross atomic population
  ZA   - Total nuclear charge
  QA   - Mulliken gross atomic charge
  VA   - Mayer's total valence
  BVA  - Mayer's bonded valence
  FA   - Mayer's free valence

  ATOM       NA         ZA         QA         VA         BVA        FA
  0 Ni    27.0000    28.0000     1.0000     1.0072     0.0000     1.0072

  Mayer bond orders larger than 0.100000


-------
TIMINGS
-------

Total SCF time: 0 days 0 hours 0 min 57 sec 

Total time                  ....      57.106 sec
Sum of individual times     ....      56.372 sec  ( 98.7%)

Fock matrix formation       ....      53.918 sec  ( 94.4%)
  XC integration            ....      51.474 sec  ( 95.5% of F)
    Basis function eval.    ....       0.006 sec  (  0.0% of XC)
    Density eval.           ....       0.013 sec  (  0.0% of XC)
    XC-Functional eval.     ....       0.013 sec  (  0.0% of XC)
    XC-Potential eval.      ....       0.024 sec  (  0.0% of XC)
Diagonalization             ....       0.850 sec  (  1.5%)
Density matrix formation    ....       0.004 sec  (  0.0%)
Population analysis         ....       0.295 sec  (  0.5%)
Initial guess               ....       0.290 sec  (  0.5%)
Orbital Transformation      ....       0.000 sec  (  0.0%)
Orbital Orthonormalization  ....       0.000 sec  (  0.0%)
DIIS solution               ....       0.057 sec  (  0.1%)
Grid generation             ....       0.959 sec  (  1.7%)


-------------------------------------------------------------------------------
                          DFT DISPERSION CORRECTION                            
                                                                               
                              DFTD3 V3.1  Rev 1                                
                          USING Becke-Johnson damping                          
-------------------------------------------------------------------------------
The TPSSH functional is recognized
Active option DFTDOPT                   ...         4   

molecular C6(AA) [au] = 574.742232 


            DFT-D V3
 parameters
 s6 scaling factor         :     1.0000 
 a1 scaling factor         :     0.4529 
 s8 scaling factor         :     2.2382 
 a2 scaling factor         :     4.6550 
 ad hoc parameters k1-k3   :    16.0000     1.3333    -4.0000 

 Edisp/kcal,au: -0.000000000000  -0.000000000000 
 E6   /kcal   :  -0.000000000 
 E8   /kcal   :  -0.000000000 
 % E8         :          -nan 

-------------------------   ----------------
Dispersion correction            0.000000000
-------------------------   ----------------


-------------------------   --------------------
FINAL SINGLE POINT ENERGY     -1508.006141113985
-------------------------   --------------------


                            ***************************************
                            *     ORCA property calculations      *
                            ***************************************

                                    ---------------------
                                    Active property flags
                                    ---------------------
   (+) Dipole Moment


------------------------------------------------------------------------------
                       ORCA ELECTRIC PROPERTIES CALCULATION
------------------------------------------------------------------------------

Dipole Moment Calculation                       ... on
Quadrupole Moment Calculation                   ... off
Polarizability Calculation                      ... off
GBWName                                         ... Ni+.gbw
Electron density file                           ... Ni+.scfp
The origin for moment calculation is the CENTER OF MASS  = ( 0.000000,  0.000000  0.000000)

-------------
DIPOLE MOMENT
-------------
                                X             Y             Z
Electronic contribution:      0.00000      -0.00000       0.00000
Nuclear contribution   :      0.00000       0.00000       0.00000
                        -----------------------------------------
Total Dipole Moment    :      0.00000      -0.00000       0.00000
                        -----------------------------------------
Magnitude (a.u.)       :      0.00000
Magnitude (Debye)      :      0.00000



--------------------
Rotational spectrum 
--------------------
 
Rotational constants in cm-1:     0.000000     0.000000     0.000000 
Rotational constants in MHz :     0.000000     0.000000     0.000000 

 Dipole components along the rotational axes: 
x,y,z [a.u.] :     0.000000    -0.000000     0.000000 
x,y,z [Debye]:     0.000000    -0.000000     0.000000 

 

Timings for individual modules:

Sum of individual times         ...       60.179 sec (=   1.003 min)
GTO integral calculation        ...        2.450 sec (=   0.041 min)   4.1 %
SCF iterations                  ...       57.729 sec (=   0.962 min)  95.9 %
                             ****ORCA TERMINATED NORMALLY****
TOTAL RUN TIME: 0 days 0 hours 1 minutes 29 seconds 187 msec
