
                                 *****************
                                 * O   R   C   A *
                                 *****************

           --- An Ab Initio, DFT and Semiempirical electronic structure package ---

                  #######################################################
                  #                        -***-                        #
                  #          Department of theory and spectroscopy      #
                  #               Directorship: Frank Neese             #
                  #        Max Planck Institute fuer Kohlenforschung    #
                  #                Kaiser Wilhelm Platz 1               #
                  #                 D-45470 Muelheim/Ruhr               #
                  #                      Germany                        #
                  #                                                     #
                  #                  All rights reserved                #
                  #                        -***-                        #
                  #######################################################


                         Program Version 4.2.0 -  RELEASE  -


 With contributions from (in alphabetic order):
   Daniel Aravena         : Magnetic Suceptibility
   Michael Atanasov       : Ab Initio Ligand Field Theory (pilot matlab implementation)
   Alexander A. Auer      : GIAO ZORA, VPT2
   Ute Becker             : Parallelization
   Giovanni Bistoni       : ED, misc. LED, open-shell LED, HFLED
   Martin Brehm           : Molecular dynamics
   Dmytro Bykov           : SCF Hessian
   Vijay G. Chilkuri      : MRCI spin determinant printing, contributions to CSF-ICE
   Dipayan Datta          : RHF DLPNO-CCSD density
   Achintya Kumar Dutta   : EOM-CC, STEOM-CC
   Dmitry Ganyushin       : Spin-Orbit,Spin-Spin,Magnetic field MRCI
   Miquel Garcia          : C-PCM Hessian, Gaussian charge scheme
   Yang Guo               : DLPNO-NEVPT2, CIM, IAO-localization
   Andreas Hansen         : Spin unrestricted coupled pair/coupled cluster methods
   Benjamin Helmich-Paris : CASSCF linear response (MC-RPA)
   Lee Huntington         : MR-EOM, pCC
   Robert Izsak           : Overlap fitted RIJCOSX, COSX-SCS-MP3, EOM
   Christian Kollmar      : KDIIS, OOCD, Brueckner-CCSD(T), CCSD density
   Simone Kossmann        : Meta GGA functionals, TD-DFT gradient, OOMP2, MP2 Hessian
   Martin Krupicka        : AUTO-CI
   Lucas Lang             : DCDCAS
   Dagmar Lenk            : GEPOL surface, SMD
   Dimitrios Liakos       : Extrapolation schemes; Compound Job, initial MDCI parallelization
   Dimitrios Manganas     : Further ROCIS development; embedding schemes
   Dimitrios Pantazis     : SARC Basis sets
   Taras Petrenko         : DFT Hessian,TD-DFT gradient, ASA, ECA, R-Raman, ABS, FL, XAS/XES, NRVS
   Peter Pinski           : DLPNO-MP2, DLPNO-MP2 Gradient
   Christoph Reimann      : Effective Core Potentials
   Marius Retegan         : Local ZFS, SOC
   Christoph Riplinger    : Optimizer, TS searches, QM/MM, DLPNO-CCSD(T), (RO)-DLPNO pert. Triples
   Tobias Risthaus        : Range-separated hybrids, TD-DFT gradient, RPA, STAB
   Michael Roemelt        : Original ROCIS implementation
   Masaaki Saitow         : Open-shell DLPNO-CCSD energy and density
   Barbara Sandhoefer     : DKH picture change effects
   Avijit Sen             : IP-ROCIS
   Kantharuban Sivalingam : CASSCF convergence, NEVPT2, FIC-MRCI
   Bernardo de Souza      : ESD, SOC TD-DFT
   Georgi Stoychev        : AutoAux, RI-MP2 NMR
   Willem Van den Heuvel  : Paramagnetic NMR
   Boris Wezisla          : Elementary symmetry handling
   Frank Wennmohs         : Technical directorship


 We gratefully acknowledge several colleagues who have allowed us to
 interface, adapt or use parts of their codes:
   Stefan Grimme, W. Hujo, H. Kruse,             : VdW corrections, initial TS optimization,
                  C. Bannwarth                     DFT functionals, gCP, sTDA/sTD-DF
   Ed Valeev, F. Pavosevic, A. Kumar             : LibInt (2-el integral package), F12 methods
   Garnet Chan, S. Sharma, J. Yang, R. Olivares  : DMRG
   Ulf Ekstrom                                   : XCFun DFT Library
   Mihaly Kallay                                 : mrcc  (arbitrary order and MRCC methods)
   Andreas Klamt, Michael Diedenhofen            : otool_cosmo (COSMO solvation model)
   Jiri Pittner, Ondrej Demel                    : Mk-CCSD
   Frank Weinhold                                : gennbo (NPA and NBO analysis)
   Christopher J. Cramer and Donald G. Truhlar   : smd solvation model
   Lars Goerigk                                  : TD-DFT with DH, B97 family of functionals
   V. Asgeirsson, H. Jonsson                     : NEB implementation
   FAccTs GmbH                                   : IRC, NEB, NEB-TS, Multilevel, MM, QM/MM, CI optimization
   S Lehtola, MJT Oliveira, MAL Marques          : LibXC Library


 Your calculation uses the libint2 library for the computation of 2-el integrals
 For citations please refer to: http://libint.valeyev.net

 Your ORCA version has been built with support for libXC version: 4.2.3
 For citations please refer to: https://tddft.org/programs/libxc/

 This ORCA versions uses:
   CBLAS   interface :  Fast vector & matrix operations
   LAPACKE interface :  Fast linear algebra routines
   SCALAPACK package :  Parallel linear algebra routines


Your calculation utilizes the atom-pairwise dispersion correction
with the Becke-Johnson damping scheme (D3BJ)
Cite in your paper:
S.Grimme, S.Ehrlich, L.Goerigk, J Comput Chem, (2011), 32, 1456–1465 
S.Grimme, J.Antony, S.Ehrlich and H.Krieg, J.Chem.Phys., 132, (2010), 154104 
   

----- Orbital basis set information -----
Your calculation utilizes the basis: def2-TZVPPD
   F. Weigend and R. Ahlrichs, Phys. Chem. Chem. Phys. 7, 3297 (2005).
   D. Rappoport and F. Furche, J. Chem. Phys. 133 134105 (2010).

----- AuxJK basis set information -----
Your calculation utilizes the auxiliary basis: def2/JK
   H-Ba, Hf-Rn: F. Weigend, J. Comput. Chem. 29, 167 (2008).

================================================================================
                                        WARNINGS
                       Please study these warnings very carefully!
================================================================================


WARNING: your system is open-shell and RHF/RKS was chosen
  ===> : WILL SWITCH to UHF/UKS


INFO   : the flag for use of LIBINT has been found!

================================================================================
                                       INPUT FILE
================================================================================
NAME = NiCH2+.in
|  1> #
|  2> # NiCH2+ TPSSh-D3BJ/Def2-TZVPPD
|  3> #
|  4> ! tpssh d3bj def2-tzvppd def2/jk grid4 nofinalgrid
|  5> 
|  6> *xyz 1 2
|  7> C          0.00000        0.00000        0.00000
|  8> Ni         0.00000        0.00000        1.78130
|  9> H          0.93287        0.00000       -0.58718
| 10> H         -0.93287        0.00000       -0.58718
| 11> *
| 12> 
| 13> %maxcore 5000
| 14> 
| 15> %pal
| 16> nprocs = 28
| 17> end
| 18> 
| 19> 
| 20>                          ****END OF INPUT****
================================================================================

                       ****************************
                       * Single Point Calculation *
                       ****************************

---------------------------------
CARTESIAN COORDINATES (ANGSTROEM)
---------------------------------
  C      0.000000    0.000000    0.000000
  Ni     0.000000    0.000000    1.781300
  H      0.932870    0.000000   -0.587180
  H     -0.932870    0.000000   -0.587180

----------------------------
CARTESIAN COORDINATES (A.U.)
----------------------------
  NO LB      ZA    FRAG     MASS         X           Y           Z
   0 C     6.0000    0    12.011    0.000000    0.000000    0.000000
   1 Ni   28.0000    0    58.700    0.000000    0.000000    3.366169
   2 H     1.0000    0     1.008    1.762869    0.000000   -1.109609
   3 H     1.0000    0     1.008   -1.762869    0.000000   -1.109609

--------------------------------
INTERNAL COORDINATES (ANGSTROEM)
--------------------------------
 C      0   0   0     0.000000000000     0.00000000     0.00000000
 Ni     1   0   0     1.781300000000     0.00000000     0.00000000
 H      1   2   0     1.102282536059   122.18770232     0.00000000
 H      1   2   3     1.102282536059   122.18770232   180.00000000

---------------------------
INTERNAL COORDINATES (A.U.)
---------------------------
 C      0   0   0     0.000000000000     0.00000000     0.00000000
 Ni     1   0   0     3.366169162354     0.00000000     0.00000000
 H      1   2   0     2.083012115355   122.18770232     0.00000000
 H      1   2   3     2.083012115355   122.18770232   180.00000000

---------------------
BASIS SET INFORMATION
---------------------
There are 3 groups of distinct atoms

 Group   1 Type C   : 12s6p3d1f contracted to 6s3p3d1f pattern {621111/411/111/1}
 Group   2 Type Ni  : 17s13p7d2f1g contracted to 6s6p4d2f1g pattern {842111/631111/4111/11/1}
 Group   3 Type H   : 5s3p1d contracted to 3s3p1d pattern {311/111/1}

Atom   0C    basis set group =>   1
Atom   1Ni   basis set group =>   2
Atom   2H    basis set group =>   3
Atom   3H    basis set group =>   3
----------------------------------
AUXILIARY/JK BASIS SET INFORMATION
----------------------------------
There are 3 groups of distinct atoms

 Group   1 Type C   : 14s10p6d2f1g contracted to 10s8p5d1f1g pattern {5111111111/31111111/21111/2/1}
 Group   2 Type Ni  : 19s14p12d10f7g3h1i contracted to 16s13p11d9f5g3h1i pattern {4111111111111111/2111111111111/21111111111/211111111/31111/111/1}
 Group   3 Type H   : 4s2p2d contracted to 2s2p2d pattern {31/11/11}

Atom   0C    basis set group =>   1
Atom   1Ni   basis set group =>   2
Atom   2H    basis set group =>   3
Atom   3H    basis set group =>   3


           ************************************************************
           *        Program running with 28 parallel MPI-processes    *
           *              working on a common directory               *
           ************************************************************
------------------------------------------------------------------------------
                           ORCA GTO INTEGRAL CALCULATION
------------------------------------------------------------------------------

                         BASIS SET STATISTICS AND STARTUP INFO

 # of primitive gaussian shells          ...   80
 # of primitive gaussian functions       ...  204
 # of contracted shells                  ...   46
 # of contracted basis functions         ...  138
 Highest angular momentum                ...    4
 Maximum contraction depth               ...    8
 Integral package used                   ... LIBINT
 Integral threshhold            Thresh   ...  1.000e-10
 Primitive cut-off              TCut     ...  1.000e-11


------------------------------ INTEGRAL EVALUATION ----------------------------


 * One electron integrals 
 Pre-screening matrix                    ... done
 Shell pair data                         ... done (   0.000 sec)



           ************************************************************
           *        Program running with 28 parallel MPI-processes    *
           *              working on a common directory               *
           ************************************************************
-------------------------------------------------------------------------------
                                 ORCA SCF
-------------------------------------------------------------------------------

------------
SCF SETTINGS
------------
Hamiltonian:
 Density Functional     Method          .... DFT(GTOs)
 Exchange Functional    Exchange        .... TPSS
 Correlation Functional Correlation     .... TPSS
 LDA part of GGA corr.  LDAOpt          .... PW91-LDA
 Gradients option       PostSCFGGA      .... off
 Hybrid DFT is turned on
   Fraction HF Exchange ScalHFX         ....  0.100000
   Scaling of DF-GGA-X  ScalDFX         ....  0.900000
   Scaling of DF-GGA-C  ScalDFC         ....  1.000000
   Scaling of DF-LDA-C  ScalLDAC        ....  1.000000
   Perturbative correction              ....  0.000000
   Density functional embedding theory  .... OFF
   NL short-range parameter             ....  5.200000


General Settings:
 Integral files         IntName         .... NiCH2+
 Hartree-Fock type      HFTyp           .... UHF
 Total Charge           Charge          ....    1
 Multiplicity           Mult            ....    2
 Number of Electrons    NEL             ....   35
 Basis Dimension        Dim             ....  138
 Nuclear Repulsion      ENuc            ....     67.5942370709 Eh

Convergence Acceleration:
 DIIS                   CNVDIIS         .... on
   Start iteration      DIISMaxIt       ....    12
   Startup error        DIISStart       ....  0.200000
   # of expansion vecs  DIISMaxEq       ....     5
   Bias factor          DIISBfac        ....   1.050
   Max. coefficient     DIISMaxC        ....  10.000
 Newton-Raphson         CNVNR           .... off
 SOSCF                  CNVSOSCF        .... off
 Level Shifting         CNVShift        .... on
   Level shift para.    LevelShift      ....    0.2500
   Turn off err/grad.   ShiftErr        ....    0.0010
 Zerner damping         CNVZerner       .... off
 Static damping         CNVDamp         .... on
   Fraction old density DampFac         ....    0.7000
   Max. Damping (<1)    DampMax         ....    0.9800
   Min. Damping (>=0)   DampMin         ....    0.0000
   Turn off err/grad.   DampErr         ....    0.1000
 Fernandez-Rico         CNVRico         .... off

SCF Procedure:
 Maximum # iterations   MaxIter         ....   125
 SCF integral mode      SCFMode         .... Direct
   Integral package                     .... LIBINT
 Reset frequency        DirectResetFreq ....    20
 Integral Threshold     Thresh          ....  1.000e-10 Eh
 Primitive CutOff       TCut            ....  1.000e-11 Eh

Convergence Tolerance:
 Convergence Check Mode ConvCheckMode   .... Total+1el-Energy
 Convergence forced     ConvForced      .... 0
 Energy Change          TolE            ....  1.000e-06 Eh
 1-El. energy change                    ....  1.000e-03 Eh
 DIIS Error             TolErr          ....  1.000e-06


Diagonalization of the overlap matrix:
Smallest eigenvalue                        ... 7.188e-05
Time for diagonalization                   ...    0.049 sec
Threshold for overlap eigenvalues          ... 1.000e-08
Number of eigenvalues below threshold      ... 0
Time for construction of square roots      ...    0.040 sec
Total time needed                          ...    0.088 sec

-------------------
DFT GRID GENERATION
-------------------

General Integration Accuracy     IntAcc      ...  4.670
Radial Grid Type                 RadialGrid  ... Gauss-Chebyshev
Angular Grid (max. acc.)         AngularGrid ... Lebedev-302
Angular grid pruning method      GridPruning ... 3 (G Style)
Weight generation scheme         WeightScheme... Becke
Basis function cutoff            BFCut       ...    1.0000e-10
Integration weight cutoff        WCut        ...    1.0000e-14
Grids for H and He will be reduced by one unit

# of grid points (after initial pruning)     ...  22664 (   0.0 sec)
# of grid points (after weights+screening)   ...  22309 (   0.0 sec)
nearest neighbour list constructed           ...    0.0 sec
Grid point re-assignment to atoms done       ...    0.0 sec
Grid point division into batches done        ...    0.1 sec
Reduced shell lists constructed in    0.1 sec

Total number of grid points                  ...    22309
Total number of batches                      ...      350
Average number of points per batch           ...       63
Average number of grid points per atom       ...     5577
Average number of shells per batch           ...    35.14 (76.40%)
Average number of basis functions per batch  ...   105.57 (76.50%)
Average number of large shells per batch     ...    31.71 (90.24%)
Average number of large basis fcns per batch ...    94.00 (89.04%)
Maximum spatial batch extension              ...   3.82, 18.07,  3.21 au
Average spatial batch extension              ...   0.08,  0.17,  0.08 au

Time for grid setup =    0.816 sec

------------------------------
INITIAL GUESS: MODEL POTENTIAL
------------------------------
Loading Hartree-Fock densities                     ... done
Calculating cut-offs                               ... done
Setting up the integral package                    ... done
Initializing the effective Hamiltonian             ... done
Starting the Coulomb interaction                   ... done (   0.0 sec)
Reading the grid                                   ... done
Mapping shells                                     ... done
Starting the XC term evaluation                    ... done (   0.0 sec)
  promolecular density results
     # of electrons  =     35.999068982
     EX              =    -67.184531551
     EC              =     -1.518719673
     EX+EC           =    -68.703251224
Transforming the Hamiltonian                       ... done (   0.0 sec)
Diagonalizing the Hamiltonian                      ... done (   0.0 sec)
Back transforming the eigenvectors                 ... done (   0.0 sec)
Now organizing SCF variables                       ... done
                      ------------------
                      INITIAL GUESS DONE (   1.0 sec)
                      ------------------
--------------
SCF ITERATIONS
--------------
ITER       Energy         Delta-E        Max-DP      RMS-DP      [F,P]     Damp
               ***  Starting incremental Fock matrix formation  ***
  0  -1547.2597955561   0.000000000000 0.04018240  0.00053904  0.1493757 0.7000
  1  -1547.2785609773  -0.018765421260 0.01066798  0.00031916  0.0743455 0.7000
                               ***Turning on DIIS***
  2  -1547.2845119837  -0.005951006426 0.01980683  0.00066346  0.0530845 0.0000
  3  -1547.2944123496  -0.009900365840 0.01036647  0.00027449  0.0903191 0.0000
  4  -1547.3011437174  -0.006731367849 0.00520881  0.00010531  0.0080040 0.0000
  5  -1547.3017640838  -0.000620366404 0.00526279  0.00008824  0.0058824 0.0000
  6  -1547.3021680542  -0.000403970338 0.00576491  0.00008274  0.0052398 0.0000
  7  -1547.3025530340  -0.000384979872 0.00638210  0.00008913  0.0030869 0.0000
  8  -1547.3028965328  -0.000343498802 0.00573484  0.00007578  0.0030900 0.0000
  9  -1547.3031768201  -0.000280287285 0.00569968  0.00007950  0.0029483 0.0000
 10  -1547.3034479830  -0.000271162913 0.00569756  0.00008183  0.0029952 0.0000
 11  -1547.3037175724  -0.000269589329 0.00511894  0.00007457  0.0028285 0.0000
 12  -1547.3039603771  -0.000242804751 0.00667819  0.00011335  0.0027863 0.0000
 13  -1547.3042767481  -0.000316370940 0.00264494  0.00004061  0.0027356 0.0000
 14  -1547.3044014292  -0.000124681093 0.00439218  0.00007737  0.0025147 0.0000
 15  -1547.3046141814  -0.000212752212 0.00586609  0.00011387  0.0025990 0.0000
 16  -1547.3048967151  -0.000282533740 0.00494102  0.00009094  0.0024671 0.0000
 17  -1547.3051385193  -0.000241804194 0.00507196  0.00010136  0.0023212 0.0000
 18  -1547.3053783849  -0.000239865619 0.00394170  0.00005222  0.0022879 0.0000
 19  -1547.3053830747  -0.000004689798 0.00656378  0.00010945  0.0034940 0.0000
               *** Restarting incremental Fock matrix formation ***
                                   *** Resetting DIIS ***
 20  -1547.3055964261  -0.000213351346 0.00234357  0.00003663  0.0020409 0.0000
 21  -1547.3056835347  -0.000087108616 0.00195700  0.00003103  0.0018593 0.0000
 22  -1547.3057518710  -0.000068336371 0.00203350  0.00003226  0.0017696 0.0000
 23  -1547.3058173241  -0.000065453039 0.00149080  0.00002246  0.0017887 0.0000
 24  -1547.3058623108  -0.000044986748 0.00116453  0.00001649  0.0017115 0.0000
 25  -1547.3058936249  -0.000031314046 0.00063004  0.00000960  0.0017144 0.0000
 26  -1547.3058957762  -0.000002151309 0.00109078  0.00001861  0.0035888 0.0000
 27  -1547.3059249007  -0.000029124489 0.00075663  0.00001159  0.0040460 0.0000
 28  -1547.3059444355  -0.000019534795 0.00104008  0.00001810  0.0041698 0.0000
 29  -1547.3059765005  -0.000032065004 0.00170622  0.00002757  0.0038928 0.0000
 30  -1547.3060273383  -0.000050837815 0.00365659  0.00005546  0.0022330 0.0000
 31  -1547.3061087886  -0.000081450351 0.00187978  0.00002656  0.0014397 0.0000
 32  -1547.3061525445  -0.000043755877 0.00225361  0.00003605  0.0014566 0.0000
 33  -1547.3062042680  -0.000051723462 0.00302441  0.00005038  0.0014383 0.0000
 34  -1547.3062671025  -0.000062834467 0.00232700  0.00003430  0.0012597 0.0000
 35  -1547.3063114563  -0.000044353836 0.00725918  0.00010527  0.0011461 0.0000
 36  -1547.3063801874  -0.000068731100 0.00460166  0.00005243  0.0043755 0.0000
 37  -1547.3063959374  -0.000015749978 0.00119598  0.00001751  0.0017357 0.0000
 38  -1547.3064122198  -0.000016282468 0.00126530  0.00002039  0.0018214 0.0000
 39  -1547.3064308418  -0.000018621925 0.00724138  0.00009443  0.0009715 0.0000
               *** Restarting incremental Fock matrix formation ***
                                   *** Resetting DIIS ***
 40  -1547.3065000985  -0.000069256774 0.00148262  0.00002044  0.0018793 0.0000
 41  -1547.3064968350   0.000003263576 0.00089650  0.00001158  0.0036647 0.0000
 42  -1547.3065132710  -0.000016436044 0.00310843  0.00003628  0.0005824 0.0000
 43  -1547.3065260878  -0.000012816811 0.00049057  0.00000564  0.0024295 0.0000
 44  -1547.3065302074  -0.000004119586 0.00045307  0.00000627  0.0019125 0.0000
 45  -1547.3065340495  -0.000003842143 0.00026311  0.00000345  0.0014048 0.0000
 46  -1547.3065358343  -0.000001784792 0.00020371  0.00000236  0.0012313 0.0000
 47  -1547.3065367704  -0.000000936101 0.00099293  0.00001449  0.0012715 0.0000
 48  -1547.3065426802  -0.000005909790 0.00206815  0.00002359  0.0004010 0.0000
 49  -1547.3065501739  -0.000007493713 0.00099857  0.00001222  0.0008899 0.0000
 50  -1547.3065532755  -0.000003101523 0.00057032  0.00000809  0.0010489 0.0000
 51  -1547.3065557088  -0.000002433364 0.00400563  0.00004844  0.0003759 0.0000
 52  -1547.3065640867  -0.000008377872 0.00122474  0.00001481  0.0002320 0.0000
 53  -1547.3065651844  -0.000001097702 0.00120639  0.00001474  0.0002690 0.0000
 54  -1547.3065657031  -0.000000518691 0.00027994  0.00000325  0.0000280 0.0000
                 **** Energy Check signals convergence ****

               *****************************************************
               *                     SUCCESS                       *
               *           SCF CONVERGED AFTER  55 CYCLES          *
               *****************************************************


----------------
TOTAL SCF ENERGY
----------------

Total Energy       :        -1547.30656572 Eh          -42104.35220 eV

Components:
Nuclear Repulsion  :           67.59423707 Eh            1839.33270 eV
Electronic Energy  :        -1614.90080279 Eh          -43943.68490 eV
One Electron Energy:        -2273.02967302 Eh          -61852.28191 eV
Two Electron Energy:          658.12887023 Eh           17908.59701 eV

Virial components:
Potential Energy   :        -3091.98883370 Eh          -84137.29362 eV
Kinetic Energy     :         1544.68226798 Eh           42032.94143 eV
Virial Ratio       :            2.00169892


DFT components:
N(Alpha)           :       18.000003762756 electrons
N(Beta)            :       17.000003436456 electrons
N(Total)           :       35.000007199213 electrons
E(X)               :      -60.841310742273 Eh       
E(C)               :       -1.505741480622 Eh       
E(XC)              :      -62.347052222894 Eh       
DFET-embed. en.    :        0.000000000000 Eh       

---------------
SCF CONVERGENCE
---------------

  Last Energy change         ...   -1.9423e-08  Tolerance :   1.0000e-06
  Last MAX-Density change    ...    7.1756e-05  Tolerance :   1.0000e-05
  Last RMS-Density change    ...    9.7109e-07  Tolerance :   1.0000e-06
  Last DIIS Error            ...    1.5135e-05  Tolerance :   1.0000e-06

             **** THE GBW FILE WAS UPDATED (NiCH2+.gbw) ****
             **** DENSITY FILE WAS UPDATED (NiCH2+.scfp) ****
             **** ENERGY FILE WAS UPDATED (NiCH2+.en.tmp) ****
----------------------
UHF SPIN CONTAMINATION
----------------------

Warning: in a DFT calculation there is little theoretical justification to 
         calculate <S**2> as in Hartree-Fock theory. We will do it anyways
         but you should keep in mind that the values have only limited relevance

Expectation value of <S**2>     :     0.896291
Ideal value S*(S+1) for S=0.5   :     0.750000
Deviation                       :     0.146291

             **** THE GBW FILE WAS UPDATED (NiCH2+.gbw) ****
             **** DENSITY FILE WAS UPDATED (NiCH2+.scfp) ****
----------------
ORBITAL ENERGIES
----------------
                 SPIN UP ORBITALS
  NO   OCC          E(Eh)            E(eV) 
   0   1.0000    -299.887543     -8160.3549 
   1   1.0000     -35.898273      -976.8417 
   2   1.0000     -31.307228      -851.9130 
   3   1.0000     -31.296001      -851.6075 
   4   1.0000     -31.282244      -851.2331 
   5   1.0000     -10.407135      -283.1926 
   6   1.0000      -4.267908      -116.1357 
   7   1.0000      -2.882353       -78.4328 
   8   1.0000      -2.858694       -77.7890 
   9   1.0000      -2.826870       -76.9231 
  10   1.0000      -0.877765       -23.8852 
  11   1.0000      -0.649584       -17.6761 
  12   1.0000      -0.620810       -16.8931 
  13   1.0000      -0.556965       -15.1558 
  14   1.0000      -0.540222       -14.7002 
  15   1.0000      -0.537251       -14.6193 
  16   1.0000      -0.524023       -14.2594 
  17   1.0000      -0.491627       -13.3779 
  18   0.0000      -0.361151        -9.8274 
  19   0.0000      -0.306833        -8.3494 
  20   0.0000      -0.205491        -5.5917 
  21   0.0000      -0.171253        -4.6600 
  22   0.0000      -0.139420        -3.7938 
  23   0.0000      -0.087249        -2.3742 
  24   0.0000      -0.072071        -1.9611 
  25   0.0000      -0.060694        -1.6516 
  26   0.0000      -0.051250        -1.3946 
  27   0.0000      -0.042855        -1.1662 
  28   0.0000      -0.016931        -0.4607 
  29   0.0000      -0.007369        -0.2005 
  30   0.0000       0.023891         0.6501 
  31   0.0000       0.036305         0.9879 
  32   0.0000       0.036332         0.9886 
  33   0.0000       0.056410         1.5350 
  34   0.0000       0.072329         1.9682 
  35   0.0000       0.080230         2.1832 
  36   0.0000       0.083624         2.2755 
  37   0.0000       0.116542         3.1713 
  38   0.0000       0.119501         3.2518 
  39   0.0000       0.171956         4.6791 
  40   0.0000       0.182701         4.9715 
  41   0.0000       0.191155         5.2016 
  42   0.0000       0.217007         5.9051 
  43   0.0000       0.235824         6.4171 
  44   0.0000       0.262437         7.1413 
  45   0.0000       0.269910         7.3446 
  46   0.0000       0.272277         7.4090 
  47   0.0000       0.307663         8.3719 
  48   0.0000       0.308019         8.3816 
  49   0.0000       0.357293         9.7224 
  50   0.0000       0.450647        12.2627 
  51   0.0000       0.480273        13.0689 
  52   0.0000       0.502182        13.6651 
  53   0.0000       0.503370        13.6974 
  54   0.0000       0.527989        14.3673 
  55   0.0000       0.534394        14.5416 
  56   0.0000       0.602050        16.3826 
  57   0.0000       0.723379        19.6841 
  58   0.0000       0.737565        20.0702 
  59   0.0000       0.775144        21.0928 
  60   0.0000       0.802206        21.8291 
  61   0.0000       0.811588        22.0844 
  62   0.0000       0.831504        22.6264 
  63   0.0000       0.880710        23.9653 
  64   0.0000       1.030064        28.0295 
  65   0.0000       1.049008        28.5450 
  66   0.0000       1.077946        29.3324 
  67   0.0000       1.180469        32.1222 
  68   0.0000       1.187331        32.3089 
  69   0.0000       1.216111        33.0921 
  70   0.0000       1.280288        34.8384 
  71   0.0000       1.415400        38.5150 
  72   0.0000       1.503898        40.9232 
  73   0.0000       1.581998        43.0484 
  74   0.0000       1.748167        47.5700 
  75   0.0000       2.275615        61.9226 
  76   0.0000       2.328959        63.3742 
  77   0.0000       2.378425        64.7202 
  78   0.0000       2.498525        67.9883 
  79   0.0000       2.518069        68.5201 
  80   0.0000       2.585370        70.3515 
  81   0.0000       2.602283        70.8117 
  82   0.0000       2.683021        73.0087 
  83   0.0000       2.687546        73.1318 
  84   0.0000       2.745236        74.7017 
  85   0.0000       2.751965        74.8848 
  86   0.0000       2.755772        74.9884 
  87   0.0000       2.803143        76.2774 
  88   0.0000       2.814372        76.5830 
  89   0.0000       2.860835        77.8473 
  90   0.0000       2.901292        78.9482 
  91   0.0000       2.902662        78.9855 
  92   0.0000       2.912598        79.2558 
  93   0.0000       2.967312        80.7447 
  94   0.0000       3.156990        85.9061 
  95   0.0000       3.203522        87.1723 
  96   0.0000       3.258399        88.6655 
  97   0.0000       3.359950        91.4289 
  98   0.0000       3.401858        92.5693 
  99   0.0000       3.488212        94.9191 
 100   0.0000       3.559621        96.8622 
 101   0.0000       3.577479        97.3481 
 102   0.0000       3.672320        99.9289 
 103   0.0000       3.754259       102.1586 
 104   0.0000       3.807155       103.5980 
 105   0.0000       3.834798       104.3502 
 106   0.0000       3.881664       105.6255 
 107   0.0000       3.883375       105.6720 
 108   0.0000       3.900452       106.1367 
 109   0.0000       3.928697       106.9053 
 110   0.0000       3.966552       107.9354 
 111   0.0000       3.999691       108.8371 
 112   0.0000       4.360294       118.6496 
 113   0.0000       4.506181       122.6194 
 114   0.0000       4.580590       124.6442 
 115   0.0000       4.626494       125.8933 
 116   0.0000       4.724793       128.5682 
 117   0.0000       4.978173       135.4630 
 118   0.0000       5.196961       141.4165 
 119   0.0000       5.271217       143.4371 
 120   0.0000       5.401074       146.9707 
 121   0.0000      11.158085       303.6269 
 122   0.0000      11.166549       303.8572 
 123   0.0000      11.167547       303.8844 
 124   0.0000      11.171293       303.9863 
 125   0.0000      11.179866       304.2196 
 126   0.0000      11.191922       304.5477 
 127   0.0000      11.199565       304.7557 
 128   0.0000      11.202373       304.8321 
 129   0.0000      11.204254       304.8833 
 130   0.0000      11.471925       312.1669 
 131   0.0000      11.473052       312.1976 
 132   0.0000      11.485163       312.5272 
 133   0.0000      11.498439       312.8884 
 134   0.0000      11.572384       314.9006 
 135   0.0000      11.622117       316.2539 
 136   0.0000      11.827342       321.8383 
 137   0.0000      22.573571       614.2581 

                 SPIN DOWN ORBITALS
  NO   OCC          E(Eh)            E(eV) 
   0   1.0000    -299.886892     -8160.3372 
   1   1.0000     -35.874984      -976.2079 
   2   1.0000     -31.284032      -851.2818 
   3   1.0000     -31.272717      -850.9739 
   4   1.0000     -31.269938      -850.8983 
   5   1.0000     -10.411838      -283.3205 
   6   1.0000      -4.211450      -114.5994 
   7   1.0000      -2.806120       -76.3584 
   8   1.0000      -2.796413       -76.0943 
   9   1.0000      -2.790676       -75.9381 
  10   1.0000      -0.889937       -24.2164 
  11   1.0000      -0.650147       -17.6914 
  12   1.0000      -0.585334       -15.9278 
  13   1.0000      -0.524321       -14.2675 
  14   1.0000      -0.504195       -13.7198 
  15   1.0000      -0.496354       -13.5065 
  16   1.0000      -0.480059       -13.0631 
  17   0.0000      -0.380592       -10.3564 
  18   0.0000      -0.376055       -10.2330 
  19   0.0000      -0.293184        -7.9780 
  20   0.0000      -0.186974        -5.0878 
  21   0.0000      -0.170712        -4.6453 
  22   0.0000      -0.139468        -3.7951 
  23   0.0000      -0.086187        -2.3453 
  24   0.0000      -0.067150        -1.8272 
  25   0.0000      -0.055849        -1.5197 
  26   0.0000      -0.053470        -1.4550 
  27   0.0000      -0.043146        -1.1741 
  28   0.0000      -0.016893        -0.4597 
  29   0.0000       0.001342         0.0365 
  30   0.0000       0.027654         0.7525 
  31   0.0000       0.031129         0.8471 
  32   0.0000       0.043148         1.1741 
  33   0.0000       0.057788         1.5725 
  34   0.0000       0.078895         2.1468 
  35   0.0000       0.082738         2.2514 
  36   0.0000       0.087244         2.3740 
  37   0.0000       0.115523         3.1435 
  38   0.0000       0.120886         3.2895 
  39   0.0000       0.170454         4.6383 
  40   0.0000       0.186524         5.0756 
  41   0.0000       0.189607         5.1595 
  42   0.0000       0.216622         5.8946 
  43   0.0000       0.239824         6.5259 
  44   0.0000       0.256541         6.9808 
  45   0.0000       0.270185         7.3521 
  46   0.0000       0.271048         7.3756 
  47   0.0000       0.311998         8.4899 
  48   0.0000       0.314193         8.5496 
  49   0.0000       0.359598         9.7852 
  50   0.0000       0.453293        12.3347 
  51   0.0000       0.497879        13.5480 
  52   0.0000       0.498246        13.5580 
  53   0.0000       0.501805        13.6548 
  54   0.0000       0.525120        14.2892 
  55   0.0000       0.534159        14.5352 
  56   0.0000       0.598373        16.2826 
  57   0.0000       0.728724        19.8296 
  58   0.0000       0.739936        20.1347 
  59   0.0000       0.774358        21.0714 
  60   0.0000       0.812370        22.1057 
  61   0.0000       0.817201        22.2372 
  62   0.0000       0.838024        22.8038 
  63   0.0000       0.899489        24.4763 
  64   0.0000       1.028117        27.9765 
  65   0.0000       1.054825        28.7033 
  66   0.0000       1.099422        29.9168 
  67   0.0000       1.181958        32.1627 
  68   0.0000       1.201204        32.6864 
  69   0.0000       1.211959        32.9791 
  70   0.0000       1.281292        34.8657 
  71   0.0000       1.388973        37.7959 
  72   0.0000       1.492989        40.6263 
  73   0.0000       1.570975        42.7484 
  74   0.0000       1.744806        47.4786 
  75   0.0000       2.272908        61.8490 
  76   0.0000       2.330251        63.4094 
  77   0.0000       2.374555        64.6149 
  78   0.0000       2.476932        67.4007 
  79   0.0000       2.511084        68.3301 
  80   0.0000       2.578418        70.1623 
  81   0.0000       2.578880        70.1749 
  82   0.0000       2.705023        73.6074 
  83   0.0000       2.710150        73.7469 
  84   0.0000       2.739864        74.5555 
  85   0.0000       2.790263        75.9269 
  86   0.0000       2.792847        75.9972 
  87   0.0000       2.811562        76.5065 
  88   0.0000       2.813455        76.5580 
  89   0.0000       2.860808        77.8465 
  90   0.0000       2.878172        78.3191 
  91   0.0000       2.886420        78.5435 
  92   0.0000       2.923717        79.5584 
  93   0.0000       2.972617        80.8890 
  94   0.0000       3.160471        86.0008 
  95   0.0000       3.197848        87.0179 
  96   0.0000       3.270102        88.9840 
  97   0.0000       3.348347        91.1131 
  98   0.0000       3.396865        92.4334 
  99   0.0000       3.488992        94.9403 
 100   0.0000       3.557749        96.8113 
 101   0.0000       3.584219        97.5316 
 102   0.0000       3.669403        99.8495 
 103   0.0000       3.786966       103.0486 
 104   0.0000       3.805994       103.5664 
 105   0.0000       3.836703       104.4020 
 106   0.0000       3.889848       105.8481 
 107   0.0000       3.911131       106.4273 
 108   0.0000       3.920608       106.6852 
 109   0.0000       3.950117       107.4881 
 110   0.0000       4.002022       108.9005 
 111   0.0000       4.007756       109.0566 
 112   0.0000       4.384531       119.3091 
 113   0.0000       4.484195       122.0212 
 114   0.0000       4.564786       124.2141 
 115   0.0000       4.607490       125.3762 
 116   0.0000       4.698256       127.8460 
 117   0.0000       4.953880       134.8019 
 118   0.0000       5.172586       140.7532 
 119   0.0000       5.241010       142.6151 
 120   0.0000       5.371599       146.1686 
 121   0.0000      11.220209       305.3174 
 122   0.0000      11.223018       305.3938 
 123   0.0000      11.224256       305.4275 
 124   0.0000      11.225333       305.4568 
 125   0.0000      11.233315       305.6740 
 126   0.0000      11.238114       305.8046 
 127   0.0000      11.238208       305.8072 
 128   0.0000      11.238712       305.8209 
 129   0.0000      11.241881       305.9071 
 130   0.0000      11.524108       313.5869 
 131   0.0000      11.530573       313.7628 
 132   0.0000      11.531081       313.7767 
 133   0.0000      11.558756       314.5298 
 134   0.0000      11.657140       317.2069 
 135   0.0000      11.681637       317.8735 
 136   0.0000      11.914204       324.2020 
 137   0.0000      22.564434       614.0095 

                    ********************************
                    * MULLIKEN POPULATION ANALYSIS *
                    ********************************

--------------------------------------------
MULLIKEN ATOMIC CHARGES AND SPIN POPULATIONS
--------------------------------------------
   0 C :    0.211628   -0.320449
   1 Ni:    0.519814    1.335239
   2 H :    0.134276   -0.007395
   3 H :    0.134282   -0.007395
Sum of atomic charges         :    1.0000000
Sum of atomic spin populations:    1.0000000

-----------------------------------------------------
MULLIKEN REDUCED ORBITAL CHARGES AND SPIN POPULATIONS
-----------------------------------------------------
CHARGE
  0 C s       :     3.203499  s :     3.203499
      pz      :     1.077874  p :     2.570618
      px      :     1.092211
      py      :     0.400532
      dz2     :    -0.013476  d :     0.009308
      dxz     :     0.004903
      dyz     :     0.009791
      dx2y2   :     0.005522
      dxy     :     0.002568
      f0      :     0.001362  f :     0.004947
      f+1     :     0.001453
      f-1     :     0.001074
      f+2     :     0.000734
      f-2     :     0.000136
      f+3     :     0.000197
      f-3     :    -0.000009
  1 Nis       :     6.712836  s :     6.712836
      pz      :     4.121077  p :    12.133873
      px      :     4.003294
      py      :     4.009502
      dz2     :     1.392240  d :     8.632444
      dxz     :     1.977187
      dyz     :     1.568611
      dx2y2   :     1.696734
      dxy     :     1.997672
      f0      :     0.000595  f :     0.000991
      f+1     :     0.000283
      f-1     :     0.000024
      f+2     :     0.000039
      f-2     :     0.000028
      f+3     :     0.000017
      f-3     :     0.000005
      g0      :     0.000013  g :     0.000042
      g+1     :     0.000003
      g-1     :     0.000009
      g+2     :     0.000007
      g-2     :     0.000001
      g+3     :     0.000001
      g-3     :     0.000001
      g+4     :     0.000004
      g-4     :     0.000003
  2 H s       :     0.848829  s :     0.848829
      pz      :    -0.012215  p :     0.015454
      px      :     0.022914
      py      :     0.004755
      dz2     :     0.000552  d :     0.001441
      dxz     :     0.000431
      dyz     :     0.000111
      dx2y2   :     0.000188
      dxy     :     0.000159
  3 H s       :     0.848824  s :     0.848824
      pz      :    -0.012215  p :     0.015453
      px      :     0.022913
      py      :     0.004755
      dz2     :     0.000552  d :     0.001441
      dxz     :     0.000431
      dyz     :     0.000111
      dx2y2   :     0.000188
      dxy     :     0.000159

SPIN
  0 C s       :     0.016188  s :     0.016188
      pz      :    -0.019522  p :    -0.326574
      px      :    -0.032426
      py      :    -0.274626
      dz2     :    -0.005938  d :    -0.010818
      dxz     :    -0.001599
      dyz     :    -0.002429
      dx2y2   :    -0.000609
      dxy     :    -0.000243
      f0      :     0.000323  f :     0.000756
      f+1     :    -0.000051
      f-1     :     0.000021
      f+2     :     0.000249
      f-2     :    -0.000012
      f+3     :     0.000213
      f-3     :     0.000013
  1 Nis       :     0.224051  s :     0.224051
      pz      :     0.019441  p :     0.012451
      px      :     0.001708
      py      :    -0.008697
      dz2     :     0.504166  d :     1.098750
      dxz     :     0.000835
      dyz     :     0.292478
      dx2y2   :     0.301026
      dxy     :     0.000245
      f0      :     0.000051  f :    -0.000027
      f+1     :    -0.000039
      f-1     :    -0.000042
      f+2     :    -0.000009
      f-2     :     0.000001
      f+3     :     0.000009
      f-3     :     0.000002
      g0      :     0.000006  g :     0.000014
      g+1     :    -0.000001
      g-1     :     0.000007
      g+2     :    -0.000002
      g-2     :    -0.000000
      g+3     :    -0.000000
      g-3     :    -0.000001
      g+4     :     0.000003
      g-4     :     0.000003
  2 H s       :     0.008984  s :     0.008984
      pz      :    -0.011321  p :    -0.016069
      px      :    -0.001590
      py      :    -0.003158
      dz2     :    -0.000055  d :    -0.000310
      dxz     :    -0.000041
      dyz     :    -0.000066
      dx2y2   :    -0.000013
      dxy     :    -0.000135
  3 H s       :     0.008985  s :     0.008985
      pz      :    -0.011321  p :    -0.016069
      px      :    -0.001590
      py      :    -0.003158
      dz2     :    -0.000055  d :    -0.000310
      dxz     :    -0.000041
      dyz     :    -0.000066
      dx2y2   :    -0.000013
      dxy     :    -0.000135


                     *******************************
                     * LOEWDIN POPULATION ANALYSIS *
                     *******************************

-------------------------------------------
LOEWDIN ATOMIC CHARGES AND SPIN POPULATIONS
-------------------------------------------
   0 C :    0.320307   -0.161773
   1 Ni:    0.822669    1.168200
   2 H :   -0.071488   -0.003214
   3 H :   -0.071488   -0.003214

----------------------------------------------------
LOEWDIN REDUCED ORBITAL CHARGES AND SPIN POPULATIONS
----------------------------------------------------
CHARGE
  0 C s       :     2.906860  s :     2.906860
      pz      :     1.142651  p :     2.526327
      px      :     1.053272
      py      :     0.330404
      dz2     :     0.078781  d :     0.224176
      dxz     :     0.081478
      dyz     :     0.026038
      dx2y2   :     0.032760
      dxy     :     0.005119
      f0      :     0.007831  f :     0.022330
      f+1     :     0.005530
      f-1     :     0.003444
      f+2     :     0.003430
      f-2     :     0.000532
      f+3     :     0.001331
      f-3     :     0.000232
  1 Nis       :     6.262363  s :     6.262363
      pz      :     4.137545  p :    12.182680
      px      :     4.035542
      py      :     4.009593
      dz2     :     1.473659  d :     8.729294
      dxz     :     2.001983
      dyz     :     1.565384
      dx2y2   :     1.694125
      dxy     :     1.994143
      f0      :     0.002005  f :     0.002949
      f+1     :     0.000724
      f-1     :     0.000115
      f+2     :     0.000047
      f-2     :     0.000036
      f+3     :     0.000017
      f-3     :     0.000005
      g0      :     0.000019  g :     0.000046
      g+1     :     0.000003
      g-1     :     0.000007
      g+2     :     0.000006
      g-2     :     0.000001
      g+3     :     0.000001
      g-3     :     0.000001
      g+4     :     0.000004
      g-4     :     0.000003
  2 H s       :     0.739629  s :     0.739629
      pz      :     0.138400  p :     0.305212
      px      :     0.137903
      py      :     0.028909
      dz2     :     0.006457  d :     0.026646
      dxz     :     0.010105
      dyz     :     0.001146
      dx2y2   :     0.006520
      dxy     :     0.002418
  3 H s       :     0.739629  s :     0.739629
      pz      :     0.138400  p :     0.305212
      px      :     0.137903
      py      :     0.028909
      dz2     :     0.006457  d :     0.026646
      dxz     :     0.010105
      dyz     :     0.001146
      dx2y2   :     0.006520
      dxy     :     0.002418

SPIN
  0 C s       :     0.008336  s :     0.008336
      pz      :     0.048670  p :    -0.176351
      px      :    -0.004518
      py      :    -0.220503
      dz2     :     0.007241  d :     0.003677
      dxz     :    -0.000220
      dyz     :    -0.002540
      dx2y2   :    -0.000504
      dxy     :    -0.000300
      f0      :     0.001533  f :     0.002565
      f+1     :     0.000059
      f-1     :     0.000606
      f+2     :     0.000391
      f-2     :    -0.000019
      f+3     :     0.000184
      f-3     :    -0.000189
  1 Nis       :     0.096364  s :     0.096364
      pz      :     0.001439  p :    -0.009217
      px      :     0.001223
      py      :    -0.011879
      dz2     :     0.499994  d :     1.081159
      dxz     :     0.000683
      dyz     :     0.279720
      dx2y2   :     0.300432
      dxy     :     0.000330
      f0      :     0.000000  f :    -0.000118
      f+1     :    -0.000037
      f-1     :    -0.000084
      f+2     :    -0.000008
      f-2     :     0.000001
      f+3     :     0.000009
      f-3     :     0.000002
      g0      :     0.000004  g :     0.000011
      g+1     :    -0.000001
      g-1     :     0.000005
      g+2     :    -0.000002
      g-2     :    -0.000000
      g+3     :    -0.000000
      g-3     :    -0.000001
      g+4     :     0.000003
      g-4     :     0.000003
  2 H s       :     0.006104  s :     0.006104
      pz      :     0.013879  p :    -0.006638
      px      :    -0.000524
      py      :    -0.019993
      dz2     :     0.000076  d :    -0.002679
      dxz     :    -0.000234
      dyz     :    -0.000809
      dx2y2   :     0.000062
      dxy     :    -0.001774
  3 H s       :     0.006104  s :     0.006104
      pz      :     0.013879  p :    -0.006638
      px      :    -0.000524
      py      :    -0.019993
      dz2     :     0.000076  d :    -0.002679
      dxz     :    -0.000234
      dyz     :    -0.000809
      dx2y2   :     0.000062
      dxy     :    -0.001774


                      *****************************
                      * MAYER POPULATION ANALYSIS *
                      *****************************

  NA   - Mulliken gross atomic population
  ZA   - Total nuclear charge
  QA   - Mulliken gross atomic charge
  VA   - Mayer's total valence
  BVA  - Mayer's bonded valence
  FA   - Mayer's free valence

  ATOM       NA         ZA         QA         VA         BVA        FA
  0 C      5.7884     6.0000     0.2116     3.5673     3.4902     0.0771
  1 Ni    27.4802    28.0000     0.5198     2.5854     1.5356     1.0498
  2 H      0.8657     1.0000     0.1343     0.9539     0.9533     0.0006
  3 H      0.8657     1.0000     0.1343     0.9539     0.9533     0.0006

  Mayer bond orders larger than 0.100000
B(  0-C ,  1-Ni) :   1.5723 B(  0-C ,  2-H ) :   0.9589 B(  0-C ,  3-H ) :   0.9589 


-------
TIMINGS
-------

Total SCF time: 0 days 0 hours 1 min 16 sec 

Total time                  ....      76.382 sec
Sum of individual times     ....      74.928 sec  ( 98.1%)

Fock matrix formation       ....      71.595 sec  ( 93.7%)
  XC integration            ....      54.181 sec  ( 75.7% of F)
    Basis function eval.    ....       0.150 sec  (  0.3% of XC)
    Density eval.           ....       0.398 sec  (  0.7% of XC)
    XC-Functional eval.     ....       0.127 sec  (  0.2% of XC)
    XC-Potential eval.      ....       0.901 sec  (  1.7% of XC)
Diagonalization             ....       1.514 sec  (  2.0%)
Density matrix formation    ....       0.040 sec  (  0.1%)
Population analysis         ....       0.070 sec  (  0.1%)
Initial guess               ....       0.158 sec  (  0.2%)
Orbital Transformation      ....       0.000 sec  (  0.0%)
Orbital Orthonormalization  ....       0.000 sec  (  0.0%)
DIIS solution               ....       0.735 sec  (  1.0%)
Grid generation             ....       0.816 sec  (  1.1%)


-------------------------------------------------------------------------------
                          DFT DISPERSION CORRECTION                            
                                                                               
                              DFTD3 V3.1  Rev 1                                
                          USING Becke-Johnson damping                          
-------------------------------------------------------------------------------
The TPSSH functional is recognized
Active option DFTDOPT                   ...         4   

molecular C6(AA) [au] = 551.249722 


            DFT-D V3
 parameters
 s6 scaling factor         :     1.0000 
 a1 scaling factor         :     0.4529 
 s8 scaling factor         :     2.2382 
 a2 scaling factor         :     4.6550 
 ad hoc parameters k1-k3   :    16.0000     1.3333    -4.0000 

 Edisp/kcal,au: -1.384620411004  -0.002206532842 
 E6   /kcal   :  -0.574066652 
 E8   /kcal   :  -0.810553759 
 % E8         :  58.539781222 

-------------------------   ----------------
Dispersion correction           -0.002206533
-------------------------   ----------------


-------------------------   --------------------
FINAL SINGLE POINT ENERGY     -1547.308772255353
-------------------------   --------------------


                            ***************************************
                            *     ORCA property calculations      *
                            ***************************************

                                    ---------------------
                                    Active property flags
                                    ---------------------
   (+) Dipole Moment


------------------------------------------------------------------------------
                       ORCA ELECTRIC PROPERTIES CALCULATION
------------------------------------------------------------------------------

Dipole Moment Calculation                       ... on
Quadrupole Moment Calculation                   ... off
Polarizability Calculation                      ... off
GBWName                                         ... NiCH2+.gbw
Electron density file                           ... NiCH2+.scfp
The origin for moment calculation is the CENTER OF MASS  = ( 0.000000,  0.000000  2.686171)

-------------
DIPOLE MOMENT
-------------
                                X             Y             Z
Electronic contribution:      0.00000      -0.00000       4.58271
Nuclear contribution   :      0.00000       0.00000      -4.66864
                        -----------------------------------------
Total Dipole Moment    :      0.00000      -0.00000      -0.08593
                        -----------------------------------------
Magnitude (a.u.)       :      0.08593
Magnitude (Debye)      :      0.21841



--------------------
Rotational spectrum 
--------------------
 
Rotational constants in cm-1:     9.608689     0.421405     0.403700 
Rotational constants in MHz : 288061.237701 12633.415954 12102.634323 

 Dipole components along the rotational axes: 
x,y,z [a.u.] :    -0.085926     0.000000    -0.000000 
x,y,z [Debye]:    -0.218405     0.000000    -0.000000 

 

Timings for individual modules:

Sum of individual times         ...       84.341 sec (=   1.406 min)
GTO integral calculation        ...        5.100 sec (=   0.085 min)   6.0 %
SCF iterations                  ...       79.242 sec (=   1.321 min)  94.0 %
                             ****ORCA TERMINATED NORMALLY****
TOTAL RUN TIME: 0 days 0 hours 1 minutes 27 seconds 944 msec
