
                                 *****************
                                 * O   R   C   A *
                                 *****************

           --- An Ab Initio, DFT and Semiempirical electronic structure package ---

                  #######################################################
                  #                        -***-                        #
                  #          Department of theory and spectroscopy      #
                  #               Directorship: Frank Neese             #
                  #        Max Planck Institute fuer Kohlenforschung    #
                  #                Kaiser Wilhelm Platz 1               #
                  #                 D-45470 Muelheim/Ruhr               #
                  #                      Germany                        #
                  #                                                     #
                  #                  All rights reserved                #
                  #                        -***-                        #
                  #######################################################


                         Program Version 4.2.0 -  RELEASE  -


 With contributions from (in alphabetic order):
   Daniel Aravena         : Magnetic Suceptibility
   Michael Atanasov       : Ab Initio Ligand Field Theory (pilot matlab implementation)
   Alexander A. Auer      : GIAO ZORA, VPT2
   Ute Becker             : Parallelization
   Giovanni Bistoni       : ED, misc. LED, open-shell LED, HFLED
   Martin Brehm           : Molecular dynamics
   Dmytro Bykov           : SCF Hessian
   Vijay G. Chilkuri      : MRCI spin determinant printing, contributions to CSF-ICE
   Dipayan Datta          : RHF DLPNO-CCSD density
   Achintya Kumar Dutta   : EOM-CC, STEOM-CC
   Dmitry Ganyushin       : Spin-Orbit,Spin-Spin,Magnetic field MRCI
   Miquel Garcia          : C-PCM Hessian, Gaussian charge scheme
   Yang Guo               : DLPNO-NEVPT2, CIM, IAO-localization
   Andreas Hansen         : Spin unrestricted coupled pair/coupled cluster methods
   Benjamin Helmich-Paris : CASSCF linear response (MC-RPA)
   Lee Huntington         : MR-EOM, pCC
   Robert Izsak           : Overlap fitted RIJCOSX, COSX-SCS-MP3, EOM
   Christian Kollmar      : KDIIS, OOCD, Brueckner-CCSD(T), CCSD density
   Simone Kossmann        : Meta GGA functionals, TD-DFT gradient, OOMP2, MP2 Hessian
   Martin Krupicka        : AUTO-CI
   Lucas Lang             : DCDCAS
   Dagmar Lenk            : GEPOL surface, SMD
   Dimitrios Liakos       : Extrapolation schemes; Compound Job, initial MDCI parallelization
   Dimitrios Manganas     : Further ROCIS development; embedding schemes
   Dimitrios Pantazis     : SARC Basis sets
   Taras Petrenko         : DFT Hessian,TD-DFT gradient, ASA, ECA, R-Raman, ABS, FL, XAS/XES, NRVS
   Peter Pinski           : DLPNO-MP2, DLPNO-MP2 Gradient
   Christoph Reimann      : Effective Core Potentials
   Marius Retegan         : Local ZFS, SOC
   Christoph Riplinger    : Optimizer, TS searches, QM/MM, DLPNO-CCSD(T), (RO)-DLPNO pert. Triples
   Tobias Risthaus        : Range-separated hybrids, TD-DFT gradient, RPA, STAB
   Michael Roemelt        : Original ROCIS implementation
   Masaaki Saitow         : Open-shell DLPNO-CCSD energy and density
   Barbara Sandhoefer     : DKH picture change effects
   Avijit Sen             : IP-ROCIS
   Kantharuban Sivalingam : CASSCF convergence, NEVPT2, FIC-MRCI
   Bernardo de Souza      : ESD, SOC TD-DFT
   Georgi Stoychev        : AutoAux, RI-MP2 NMR
   Willem Van den Heuvel  : Paramagnetic NMR
   Boris Wezisla          : Elementary symmetry handling
   Frank Wennmohs         : Technical directorship


 We gratefully acknowledge several colleagues who have allowed us to
 interface, adapt or use parts of their codes:
   Stefan Grimme, W. Hujo, H. Kruse,             : VdW corrections, initial TS optimization,
                  C. Bannwarth                     DFT functionals, gCP, sTDA/sTD-DF
   Ed Valeev, F. Pavosevic, A. Kumar             : LibInt (2-el integral package), F12 methods
   Garnet Chan, S. Sharma, J. Yang, R. Olivares  : DMRG
   Ulf Ekstrom                                   : XCFun DFT Library
   Mihaly Kallay                                 : mrcc  (arbitrary order and MRCC methods)
   Andreas Klamt, Michael Diedenhofen            : otool_cosmo (COSMO solvation model)
   Jiri Pittner, Ondrej Demel                    : Mk-CCSD
   Frank Weinhold                                : gennbo (NPA and NBO analysis)
   Christopher J. Cramer and Donald G. Truhlar   : smd solvation model
   Lars Goerigk                                  : TD-DFT with DH, B97 family of functionals
   V. Asgeirsson, H. Jonsson                     : NEB implementation
   FAccTs GmbH                                   : IRC, NEB, NEB-TS, Multilevel, MM, QM/MM, CI optimization
   S Lehtola, MJT Oliveira, MAL Marques          : LibXC Library


 Your calculation uses the libint2 library for the computation of 2-el integrals
 For citations please refer to: http://libint.valeyev.net

 Your ORCA version has been built with support for libXC version: 4.2.3
 For citations please refer to: https://tddft.org/programs/libxc/

 This ORCA versions uses:
   CBLAS   interface :  Fast vector & matrix operations
   LAPACKE interface :  Fast linear algebra routines
   SCALAPACK package :  Parallel linear algebra routines


Your calculation utilizes the atom-pairwise dispersion correction
with the Becke-Johnson damping scheme (D3BJ)
Cite in your paper:
S.Grimme, S.Ehrlich, L.Goerigk, J Comput Chem, (2011), 32, 1456–1465 
S.Grimme, J.Antony, S.Ehrlich and H.Krieg, J.Chem.Phys., 132, (2010), 154104 
   

----- Orbital basis set information -----
Your calculation utilizes the basis: def2-TZVPPD
   F. Weigend and R. Ahlrichs, Phys. Chem. Chem. Phys. 7, 3297 (2005).
   D. Rappoport and F. Furche, J. Chem. Phys. 133 134105 (2010).

----- AuxJK basis set information -----
Your calculation utilizes the auxiliary basis: def2/JK
   H-Ba, Hf-Rn: F. Weigend, J. Comput. Chem. 29, 167 (2008).

================================================================================
                                        WARNINGS
                       Please study these warnings very carefully!
================================================================================


WARNING: your system is open-shell and RHF/RKS was chosen
  ===> : WILL SWITCH to UHF/UKS


INFO   : the flag for use of LIBINT has been found!

================================================================================
                                       INPUT FILE
================================================================================
NAME = o2.in
|  1> #
|  2> # o2 TPSSh-D3BJ/Def2-TZVPPD
|  3> #
|  4> ! tpssh d3bj def2-tzvppd def2/jk grid4 nofinalgrid
|  5> 
|  6> *xyz 0 3
|  7> O          0.00000        0.00000        0.00000
|  8> O          0.00000        0.00000        1.20780
|  9> *
| 10> 
| 11> %maxcore 5000
| 12> 
| 13> %pal
| 14> nprocs = 28
| 15> end
| 16> 
| 17> 
| 18>                          ****END OF INPUT****
================================================================================

                       ****************************
                       * Single Point Calculation *
                       ****************************

---------------------------------
CARTESIAN COORDINATES (ANGSTROEM)
---------------------------------
  O      0.000000    0.000000    0.000000
  O      0.000000    0.000000    1.207800

----------------------------
CARTESIAN COORDINATES (A.U.)
----------------------------
  NO LB      ZA    FRAG     MASS         X           Y           Z
   0 O     8.0000    0    15.999    0.000000    0.000000    0.000000
   1 O     8.0000    0    15.999    0.000000    0.000000    2.282411

--------------------------------
INTERNAL COORDINATES (ANGSTROEM)
--------------------------------
 O      0   0   0     0.000000000000     0.00000000     0.00000000
 O      1   0   0     1.207800000000     0.00000000     0.00000000

---------------------------
INTERNAL COORDINATES (A.U.)
---------------------------
 O      0   0   0     0.000000000000     0.00000000     0.00000000
 O      1   0   0     2.282411224550     0.00000000     0.00000000

---------------------
BASIS SET INFORMATION
---------------------
There are 1 groups of distinct atoms

 Group   1 Type O   : 12s7p3d1f contracted to 6s4p3d1f pattern {621111/4111/111/1}

Atom   0O    basis set group =>   1
Atom   1O    basis set group =>   1
----------------------------------
AUXILIARY/JK BASIS SET INFORMATION
----------------------------------
There are 1 groups of distinct atoms

 Group   1 Type O   : 14s10p6d2f1g contracted to 10s8p4d2f1g pattern {5111111111/31111111/3111/11/1}

Atom   0O    basis set group =>   1
Atom   1O    basis set group =>   1


           ************************************************************
           *        Program running with 28 parallel MPI-processes    *
           *              working on a common directory               *
           ************************************************************
------------------------------------------------------------------------------
                           ORCA GTO INTEGRAL CALCULATION
------------------------------------------------------------------------------

                         BASIS SET STATISTICS AND STARTUP INFO

 # of primitive gaussian shells          ...   46
 # of primitive gaussian functions       ...  110
 # of contracted shells                  ...   28
 # of contracted basis functions         ...   80
 Highest angular momentum                ...    3
 Maximum contraction depth               ...    6
 Integral package used                   ... LIBINT
 Integral threshhold            Thresh   ...  1.000e-10
 Primitive cut-off              TCut     ...  1.000e-11


------------------------------ INTEGRAL EVALUATION ----------------------------


 * One electron integrals 
 Pre-screening matrix                    ... done
 Shell pair data                         ... done (   0.000 sec)



           ************************************************************
           *        Program running with 28 parallel MPI-processes    *
           *              working on a common directory               *
           ************************************************************
-------------------------------------------------------------------------------
                                 ORCA SCF
-------------------------------------------------------------------------------

------------
SCF SETTINGS
------------
Hamiltonian:
 Density Functional     Method          .... DFT(GTOs)
 Exchange Functional    Exchange        .... TPSS
 Correlation Functional Correlation     .... TPSS
 LDA part of GGA corr.  LDAOpt          .... PW91-LDA
 Gradients option       PostSCFGGA      .... off
 Hybrid DFT is turned on
   Fraction HF Exchange ScalHFX         ....  0.100000
   Scaling of DF-GGA-X  ScalDFX         ....  0.900000
   Scaling of DF-GGA-C  ScalDFC         ....  1.000000
   Scaling of DF-LDA-C  ScalLDAC        ....  1.000000
   Perturbative correction              ....  0.000000
   Density functional embedding theory  .... OFF
   NL short-range parameter             ....  5.200000


General Settings:
 Integral files         IntName         .... o2
 Hartree-Fock type      HFTyp           .... UHF
 Total Charge           Charge          ....    0
 Multiplicity           Mult            ....    3
 Number of Electrons    NEL             ....   16
 Basis Dimension        Dim             ....   80
 Nuclear Repulsion      ENuc            ....     28.0405210558 Eh

Convergence Acceleration:
 DIIS                   CNVDIIS         .... on
   Start iteration      DIISMaxIt       ....    12
   Startup error        DIISStart       ....  0.200000
   # of expansion vecs  DIISMaxEq       ....     5
   Bias factor          DIISBfac        ....   1.050
   Max. coefficient     DIISMaxC        ....  10.000
 Newton-Raphson         CNVNR           .... off
 SOSCF                  CNVSOSCF        .... off
 Level Shifting         CNVShift        .... on
   Level shift para.    LevelShift      ....    0.2500
   Turn off err/grad.   ShiftErr        ....    0.0010
 Zerner damping         CNVZerner       .... off
 Static damping         CNVDamp         .... on
   Fraction old density DampFac         ....    0.7000
   Max. Damping (<1)    DampMax         ....    0.9800
   Min. Damping (>=0)   DampMin         ....    0.0000
   Turn off err/grad.   DampErr         ....    0.1000
 Fernandez-Rico         CNVRico         .... off

SCF Procedure:
 Maximum # iterations   MaxIter         ....   125
 SCF integral mode      SCFMode         .... Direct
   Integral package                     .... LIBINT
 Reset frequency        DirectResetFreq ....    20
 Integral Threshold     Thresh          ....  1.000e-10 Eh
 Primitive CutOff       TCut            ....  1.000e-11 Eh

Convergence Tolerance:
 Convergence Check Mode ConvCheckMode   .... Total+1el-Energy
 Convergence forced     ConvForced      .... 0
 Energy Change          TolE            ....  1.000e-06 Eh
 1-El. energy change                    ....  1.000e-03 Eh
 DIIS Error             TolErr          ....  1.000e-06


Diagonalization of the overlap matrix:
Smallest eigenvalue                        ... 2.492e-04
Time for diagonalization                   ...    0.006 sec
Threshold for overlap eigenvalues          ... 1.000e-08
Number of eigenvalues below threshold      ... 0
Time for construction of square roots      ...    0.039 sec
Total time needed                          ...    0.045 sec

-------------------
DFT GRID GENERATION
-------------------

General Integration Accuracy     IntAcc      ...  4.670
Radial Grid Type                 RadialGrid  ... Gauss-Chebyshev
Angular Grid (max. acc.)         AngularGrid ... Lebedev-302
Angular grid pruning method      GridPruning ... 3 (G Style)
Weight generation scheme         WeightScheme... Becke
Basis function cutoff            BFCut       ...    1.0000e-10
Integration weight cutoff        WCut        ...    1.0000e-14
Grids for H and He will be reduced by one unit

# of grid points (after initial pruning)     ...  12424 (   0.0 sec)
# of grid points (after weights+screening)   ...  12396 (   0.0 sec)
nearest neighbour list constructed           ...    0.0 sec
Grid point re-assignment to atoms done       ...    0.0 sec
Grid point division into batches done        ...    0.1 sec
Reduced shell lists constructed in    0.1 sec

Total number of grid points                  ...    12396
Total number of batches                      ...      194
Average number of points per batch           ...       63
Average number of grid points per atom       ...     6198
Average number of shells per batch           ...     8.00 (28.57%)
Average number of basis functions per batch  ...    21.25 (26.56%)
Average number of large shells per batch     ...     4.62 (57.81%)
Average number of large basis fcns per batch ...    13.12 (61.76%)
Maximum spatial batch extension              ...  19.94, 19.94, 11.06 au
Average spatial batch extension              ...   0.55,  0.50,  0.34 au

Time for grid setup =    0.437 sec

------------------------------
INITIAL GUESS: MODEL POTENTIAL
------------------------------
Loading Hartree-Fock densities                     ... done
Calculating cut-offs                               ... done
Setting up the integral package                    ... done
Initializing the effective Hamiltonian             ... done
Starting the Coulomb interaction                   ... done (   0.0 sec)
Reading the grid                                   ... done
Mapping shells                                     ... done
Starting the XC term evaluation                    ... done (   0.0 sec)
  promolecular density results
     # of electrons  =     15.999999817
     EX              =    -16.216225074
     EC              =     -0.534270212
     EX+EC           =    -16.750495286
Transforming the Hamiltonian                       ... done (   0.0 sec)
Diagonalizing the Hamiltonian                      ... done (   0.0 sec)
Back transforming the eigenvectors                 ... done (   0.0 sec)
Now organizing SCF variables                       ... done
                      ------------------
                      INITIAL GUESS DONE (   0.6 sec)
                      ------------------
--------------
SCF ITERATIONS
--------------
ITER       Energy         Delta-E        Max-DP      RMS-DP      [F,P]     Damp
               ***  Starting incremental Fock matrix formation  ***
  0   -150.3813990533   0.000000000000 0.00535456  0.00026027  0.0565404 0.7000
  1   -150.3846162673  -0.003217213977 0.00421575  0.00021317  0.0340421 0.7000
                               ***Turning on DIIS***
  2   -150.3867438673  -0.002127599999 0.00953905  0.00049943  0.0213809 0.0000
  3   -150.3915047876  -0.004760920359 0.00202618  0.00010153  0.0097964 0.0000
  4   -150.3917327469  -0.000227959269 0.00103612  0.00006082  0.0007370 0.0000
  5   -150.3917628473  -0.000030100412 0.00025614  0.00001149  0.0002920 0.0000
  6   -150.3917639457  -0.000001098412 0.00006335  0.00000250  0.0001718 0.0000
                 **** Energy Check signals convergence ****

               *****************************************************
               *                     SUCCESS                       *
               *           SCF CONVERGED AFTER   7 CYCLES          *
               *****************************************************


----------------
TOTAL SCF ENERGY
----------------

Total Energy       :         -150.39176403 Eh           -4092.36795 eV

Components:
Nuclear Repulsion  :           28.04052106 Eh             763.02137 eV
Electronic Energy  :         -178.43228508 Eh           -4855.38932 eV
One Electron Energy:         -261.87703102 Eh           -7126.03629 eV
Two Electron Energy:           83.44474594 Eh            2270.64697 eV

Virial components:
Potential Energy   :         -300.29007671 Eh           -8171.30841 eV
Kinetic Energy     :          149.89831268 Eh            4078.94046 eV
Virial Ratio       :            2.00329191


DFT components:
N(Alpha)           :        9.000001286774 electrons
N(Beta)            :        7.000001631317 electrons
N(Total)           :       16.000002918091 electrons
E(X)               :      -14.879185654597 Eh       
E(C)               :       -0.534678502398 Eh       
E(XC)              :      -15.413864156995 Eh       
DFET-embed. en.    :        0.000000000000 Eh       

---------------
SCF CONVERGENCE
---------------

  Last Energy change         ...   -8.1271e-08  Tolerance :   1.0000e-06
  Last MAX-Density change    ...    1.4950e-05  Tolerance :   1.0000e-05
  Last RMS-Density change    ...    5.7930e-07  Tolerance :   1.0000e-06
  Last DIIS Error            ...    2.2104e-05  Tolerance :   1.0000e-06

             **** THE GBW FILE WAS UPDATED (o2.gbw) ****
             **** DENSITY FILE WAS UPDATED (o2.scfp) ****
             **** ENERGY FILE WAS UPDATED (o2.en.tmp) ****
----------------------
UHF SPIN CONTAMINATION
----------------------

Warning: in a DFT calculation there is little theoretical justification to 
         calculate <S**2> as in Hartree-Fock theory. We will do it anyways
         but you should keep in mind that the values have only limited relevance

Expectation value of <S**2>     :     2.008213
Ideal value S*(S+1) for S=1.0   :     2.000000
Deviation                       :     0.008213

             **** THE GBW FILE WAS UPDATED (o2.gbw) ****
             **** DENSITY FILE WAS UPDATED (o2.scfp) ****
----------------
ORBITAL ENERGIES
----------------
                 SPIN UP ORBITALS
  NO   OCC          E(Eh)            E(eV) 
   0   1.0000     -19.214599      -522.8558 
   1   1.0000     -19.214489      -522.8528 
   2   1.0000      -1.278707       -34.7954 
   3   1.0000      -0.821018       -22.3410 
   4   1.0000      -0.542650       -14.7662 
   5   1.0000      -0.542650       -14.7662 
   6   1.0000      -0.530327       -14.4309 
   7   1.0000      -0.289332        -7.8731 
   8   1.0000      -0.289332        -7.8731 
   9   0.0000       0.042333         1.1519 
  10   0.0000       0.050269         1.3679 
  11   0.0000       0.071892         1.9563 
  12   0.0000       0.071892         1.9563 
  13   0.0000       0.119851         3.2613 
  14   0.0000       0.123477         3.3600 
  15   0.0000       0.123477         3.3600 
  16   0.0000       0.173654         4.7254 
  17   0.0000       0.275657         7.5010 
  18   0.0000       0.308423         8.3926 
  19   0.0000       0.308424         8.3926 
  20   0.0000       0.406985        11.0746 
  21   0.0000       0.454238        12.3604 
  22   0.0000       0.456829        12.4309 
  23   0.0000       0.456829        12.4309 
  24   0.0000       0.464067        12.6279 
  25   0.0000       0.464067        12.6279 
  26   0.0000       0.481257        13.0957 
  27   0.0000       0.481258        13.0957 
  28   0.0000       0.527309        14.3488 
  29   0.0000       0.527309        14.3488 
  30   0.0000       0.609432        16.5835 
  31   0.0000       0.772952        21.0331 
  32   0.0000       0.884492        24.0682 
  33   0.0000       0.884492        24.0682 
  34   0.0000       0.890771        24.2391 
  35   0.0000       1.206713        32.8363 
  36   0.0000       1.443021        39.2666 
  37   0.0000       1.443021        39.2666 
  38   0.0000       1.443758        39.2867 
  39   0.0000       1.443758        39.2867 
  40   0.0000       1.763339        47.9829 
  41   0.0000       1.763340        47.9829 
  42   0.0000       1.910418        51.9851 
  43   0.0000       2.108548        57.3765 
  44   0.0000       2.108548        57.3765 
  45   0.0000       2.366259        64.3892 
  46   0.0000       2.487773        67.6958 
  47   0.0000       2.487773        67.6958 
  48   0.0000       2.780954        75.6736 
  49   0.0000       2.989428        81.3465 
  50   0.0000       2.989428        81.3465 
  51   0.0000       3.099344        84.3374 
  52   0.0000       3.206044        87.2409 
  53   0.0000       4.242669       115.4489 
  54   0.0000       4.575844       124.5150 
  55   0.0000       4.575847       124.5151 
  56   0.0000       4.689296       127.6022 
  57   0.0000       4.689296       127.6022 
  58   0.0000       4.911991       133.6621 
  59   0.0000       4.911991       133.6621 
  60   0.0000       4.979695       135.5044 
  61   0.0000       5.155756       140.2952 
  62   0.0000       5.155756       140.2952 
  63   0.0000       5.702357       155.1690 
  64   0.0000       5.702359       155.1691 
  65   0.0000       6.163858       167.7271 
  66   0.0000       6.163912       167.7286 
  67   0.0000       6.264561       170.4674 
  68   0.0000       6.264561       170.4674 
  69   0.0000       6.342661       172.5926 
  70   0.0000       6.342711       172.5939 
  71   0.0000       6.469821       176.0528 
  72   0.0000       6.479194       176.3078 
  73   0.0000       6.479194       176.3078 
  74   0.0000       7.244032       197.1201 
  75   0.0000       7.244032       197.1201 
  76   0.0000       7.444463       202.5741 
  77   0.0000       8.674624       236.0485 
  78   0.0000      43.413104      1181.3306 
  79   0.0000      44.054709      1198.7896 

                 SPIN DOWN ORBITALS
  NO   OCC          E(Eh)            E(eV) 
   0   1.0000     -19.182583      -521.9846 
   1   1.0000     -19.182398      -521.9796 
   2   1.0000      -1.226173       -33.3659 
   3   1.0000      -0.736153       -20.0317 
   4   1.0000      -0.496766       -13.5177 
   5   1.0000      -0.446798       -12.1580 
   6   1.0000      -0.446798       -12.1580 
   7   0.0000      -0.135420        -3.6850 
   8   0.0000      -0.135420        -3.6850 
   9   0.0000       0.051060         1.3894 
  10   0.0000       0.058387         1.5888 
  11   0.0000       0.078998         2.1497 
  12   0.0000       0.078998         2.1497 
  13   0.0000       0.122596         3.3360 
  14   0.0000       0.133495         3.6326 
  15   0.0000       0.133495         3.6326 
  16   0.0000       0.203419         5.5353 
  17   0.0000       0.294035         8.0011 
  18   0.0000       0.318391         8.6639 
  19   0.0000       0.318392         8.6639 
  20   0.0000       0.411413        11.1951 
  21   0.0000       0.464844        12.6491 
  22   0.0000       0.472484        12.8569 
  23   0.0000       0.472484        12.8569 
  24   0.0000       0.474815        12.9204 
  25   0.0000       0.474815        12.9204 
  26   0.0000       0.494707        13.4617 
  27   0.0000       0.494708        13.4617 
  28   0.0000       0.555429        15.1140 
  29   0.0000       0.555429        15.1140 
  30   0.0000       0.627813        17.0837 
  31   0.0000       0.787152        21.4195 
  32   0.0000       0.895664        24.3723 
  33   0.0000       0.913425        24.8556 
  34   0.0000       0.913425        24.8556 
  35   0.0000       1.233816        33.5738 
  36   0.0000       1.473563        40.0977 
  37   0.0000       1.473563        40.0977 
  38   0.0000       1.491746        40.5925 
  39   0.0000       1.491746        40.5925 
  40   0.0000       1.829563        49.7850 
  41   0.0000       1.829564        49.7850 
  42   0.0000       1.939681        52.7814 
  43   0.0000       2.152963        58.5851 
  44   0.0000       2.152963        58.5851 
  45   0.0000       2.390275        65.0427 
  46   0.0000       2.563973        69.7692 
  47   0.0000       2.563973        69.7692 
  48   0.0000       2.827913        76.9514 
  49   0.0000       3.062046        83.3225 
  50   0.0000       3.062046        83.3225 
  51   0.0000       3.137960        85.3882 
  52   0.0000       3.254282        88.5535 
  53   0.0000       4.288711       116.7017 
  54   0.0000       4.625642       125.8701 
  55   0.0000       4.625646       125.8702 
  56   0.0000       4.728022       128.6560 
  57   0.0000       4.728022       128.6560 
  58   0.0000       4.984508       135.6354 
  59   0.0000       4.984508       135.6354 
  60   0.0000       5.032475       136.9406 
  61   0.0000       5.232029       142.3707 
  62   0.0000       5.232029       142.3707 
  63   0.0000       5.767681       156.9466 
  64   0.0000       5.767682       156.9466 
  65   0.0000       6.278150       170.8371 
  66   0.0000       6.278202       170.8386 
  67   0.0000       6.333493       172.3431 
  68   0.0000       6.333493       172.3431 
  69   0.0000       6.454390       175.6329 
  70   0.0000       6.454436       175.6341 
  71   0.0000       6.528659       177.6538 
  72   0.0000       6.551589       178.2778 
  73   0.0000       6.551589       178.2778 
  74   0.0000       7.302811       198.7196 
  75   0.0000       7.302811       198.7196 
  76   0.0000       7.499427       204.0698 
  77   0.0000       8.725919       237.4443 
  78   0.0000      43.449911      1182.3322 
  79   0.0000      44.090815      1199.7721 

                    ********************************
                    * MULLIKEN POPULATION ANALYSIS *
                    ********************************

--------------------------------------------
MULLIKEN ATOMIC CHARGES AND SPIN POPULATIONS
--------------------------------------------
   0 O :   -0.000000    1.000000
   1 O :    0.000000    1.000000
Sum of atomic charges         :    0.0000000
Sum of atomic spin populations:    2.0000000

-----------------------------------------------------
MULLIKEN REDUCED ORBITAL CHARGES AND SPIN POPULATIONS
-----------------------------------------------------
CHARGE
  0 O s       :     3.947690  s :     3.947690
      pz      :     1.039737  p :     4.004648
      px      :     1.482456
      py      :     1.482456
      dz2     :     0.010658  d :     0.042844
      dxz     :     0.016093
      dyz     :     0.016093
      dx2y2   :    -0.000000
      dxy     :     0.000000
      f0      :     0.001915  f :     0.004818
      f+1     :     0.001451
      f-1     :     0.001451
      f+2     :     0.000000
      f-2     :     0.000000
      f+3     :     0.000000
      f-3     :     0.000000
  1 O s       :     3.947690  s :     3.947690
      pz      :     1.039737  p :     4.004648
      px      :     1.482456
      py      :     1.482456
      dz2     :     0.010658  d :     0.042844
      dxz     :     0.016093
      dyz     :     0.016093
      dx2y2   :     0.000000
      dxy     :     0.000000
      f0      :     0.001915  f :     0.004818
      f+1     :     0.001451
      f-1     :     0.001451
      f+2     :     0.000000
      f-2     :     0.000000
      f+3     :     0.000000
      f-3     :     0.000000

SPIN
  0 O s       :     0.009243  s :     0.009243
      pz      :    -0.007952  p :     1.002423
      px      :     0.505187
      py      :     0.505187
      dz2     :    -0.000960  d :    -0.011170
      dxz     :    -0.005105
      dyz     :    -0.005105
      dx2y2   :    -0.000000
      dxy     :    -0.000000
      f0      :    -0.000332  f :    -0.000496
      f+1     :    -0.000082
      f-1     :    -0.000082
      f+2     :     0.000000
      f-2     :     0.000000
      f+3     :     0.000000
      f-3     :     0.000000
  1 O s       :     0.009244  s :     0.009244
      pz      :    -0.007952  p :     1.002423
      px      :     0.505187
      py      :     0.505187
      dz2     :    -0.000960  d :    -0.011170
      dxz     :    -0.005105
      dyz     :    -0.005105
      dx2y2   :     0.000000
      dxy     :    -0.000000
      f0      :    -0.000332  f :    -0.000496
      f+1     :    -0.000082
      f-1     :    -0.000082
      f+2     :     0.000000
      f-2     :    -0.000000
      f+3     :     0.000000
      f-3     :     0.000000


                     *******************************
                     * LOEWDIN POPULATION ANALYSIS *
                     *******************************

-------------------------------------------
LOEWDIN ATOMIC CHARGES AND SPIN POPULATIONS
-------------------------------------------
   0 O :   -0.000000    1.000000
   1 O :    0.000000    1.000000

----------------------------------------------------
LOEWDIN REDUCED ORBITAL CHARGES AND SPIN POPULATIONS
----------------------------------------------------
CHARGE
  0 O s       :     3.550674  s :     3.550674
      pz      :     1.284481  p :     4.080077
      px      :     1.397798
      py      :     1.397798
      dz2     :     0.157263  d :     0.350317
      dxz     :     0.096527
      dyz     :     0.096527
      dx2y2   :     0.000000
      dxy     :     0.000000
      f0      :     0.007582  f :     0.018932
      f+1     :     0.005675
      f-1     :     0.005675
      f+2     :     0.000000
      f-2     :     0.000000
      f+3     :     0.000000
      f-3     :     0.000000
  1 O s       :     3.550674  s :     3.550674
      pz      :     1.284481  p :     4.080077
      px      :     1.397798
      py      :     1.397798
      dz2     :     0.157263  d :     0.350317
      dxz     :     0.096527
      dyz     :     0.096527
      dx2y2   :     0.000000
      dxy     :     0.000000
      f0      :     0.007582  f :     0.018932
      f+1     :     0.005675
      f-1     :     0.005675
      f+2     :     0.000000
      f-2     :     0.000000
      f+3     :     0.000000
      f-3     :     0.000000

SPIN
  0 O s       :     0.011098  s :     0.011098
      pz      :    -0.012784  p :     0.880847
      px      :     0.446816
      py      :     0.446816
      dz2     :     0.001848  d :     0.102891
      dxz     :     0.050522
      dyz     :     0.050522
      dx2y2   :     0.000000
      dxy     :    -0.000000
      f0      :    -0.000161  f :     0.005164
      f+1     :     0.002663
      f-1     :     0.002663
      f+2     :     0.000000
      f-2     :     0.000000
      f+3     :     0.000000
      f-3     :     0.000000
  1 O s       :     0.011098  s :     0.011098
      pz      :    -0.012784  p :     0.880847
      px      :     0.446816
      py      :     0.446816
      dz2     :     0.001848  d :     0.102891
      dxz     :     0.050522
      dyz     :     0.050522
      dx2y2   :     0.000000
      dxy     :    -0.000000
      f0      :    -0.000161  f :     0.005164
      f+1     :     0.002663
      f-1     :     0.002663
      f+2     :     0.000000
      f-2     :    -0.000000
      f+3     :     0.000000
      f-3     :     0.000000


                      *****************************
                      * MAYER POPULATION ANALYSIS *
                      *****************************

  NA   - Mulliken gross atomic population
  ZA   - Total nuclear charge
  QA   - Mulliken gross atomic charge
  VA   - Mayer's total valence
  BVA  - Mayer's bonded valence
  FA   - Mayer's free valence

  ATOM       NA         ZA         QA         VA         BVA        FA
  0 O      8.0000     8.0000    -0.0000     2.1890     1.6471     0.5419
  1 O      8.0000     8.0000     0.0000     2.1890     1.6471     0.5419

  Mayer bond orders larger than 0.100000
B(  0-O ,  1-O ) :   1.6471 

-------
TIMINGS
-------

Total SCF time: 0 days 0 hours 0 min 34 sec 

Total time                  ....      34.632 sec
Sum of individual times     ....      33.972 sec  ( 98.1%)

Fock matrix formation       ....      32.342 sec  ( 93.4%)
  XC integration            ....      30.358 sec  ( 93.9% of F)
    Basis function eval.    ....       0.008 sec  (  0.0% of XC)
    Density eval.           ....       0.019 sec  (  0.1% of XC)
    XC-Functional eval.     ....       0.013 sec  (  0.0% of XC)
    XC-Potential eval.      ....       0.040 sec  (  0.1% of XC)
Diagonalization             ....       0.481 sec  (  1.4%)
Density matrix formation    ....       0.007 sec  (  0.0%)
Population analysis         ....       0.406 sec  (  1.2%)
Initial guess               ....       0.208 sec  (  0.6%)
Orbital Transformation      ....       0.000 sec  (  0.0%)
Orbital Orthonormalization  ....       0.000 sec  (  0.0%)
DIIS solution               ....       0.091 sec  (  0.3%)
Grid generation             ....       0.437 sec  (  1.3%)


-------------------------------------------------------------------------------
                          DFT DISPERSION CORRECTION                            
                                                                               
                              DFTD3 V3.1  Rev 1                                
                          USING Becke-Johnson damping                          
-------------------------------------------------------------------------------
The TPSSH functional is recognized
Active option DFTDOPT                   ...         4   

molecular C6(AA) [au] = 51.245119 


            DFT-D V3
 parameters
 s6 scaling factor         :     1.0000 
 a1 scaling factor         :     0.4529 
 s8 scaling factor         :     2.2382 
 a2 scaling factor         :     4.6550 
 ad hoc parameters k1-k3   :    16.0000     1.3333    -4.0000 

 Edisp/kcal,au: -0.180095805056  -0.000287000903 
 E6   /kcal   :  -0.089566606 
 E8   /kcal   :  -0.090529199 
 % E8         :  50.267244527 

-------------------------   ----------------
Dispersion correction           -0.000287001
-------------------------   ----------------


-------------------------   --------------------
FINAL SINGLE POINT ENERGY      -150.392051027888
-------------------------   --------------------


                            ***************************************
                            *     ORCA property calculations      *
                            ***************************************

                                    ---------------------
                                    Active property flags
                                    ---------------------
   (+) Dipole Moment


------------------------------------------------------------------------------
                       ORCA ELECTRIC PROPERTIES CALCULATION
------------------------------------------------------------------------------

Dipole Moment Calculation                       ... on
Quadrupole Moment Calculation                   ... off
Polarizability Calculation                      ... off
GBWName                                         ... o2.gbw
Electron density file                           ... o2.scfp
The origin for moment calculation is the CENTER OF MASS  = ( 0.000000,  0.000000  1.141206)

-------------
DIPOLE MOMENT
-------------
                                X             Y             Z
Electronic contribution:     -0.00000       0.00000       0.00000
Nuclear contribution   :      0.00000       0.00000       0.00000
                        -----------------------------------------
Total Dipole Moment    :     -0.00000       0.00000       0.00000
                        -----------------------------------------
Magnitude (a.u.)       :      0.00000
Magnitude (Debye)      :      0.00000



--------------------
Rotational spectrum 
--------------------
 
Rotational constants in cm-1:     0.000000     1.444588     1.444588 
Rotational constants in MHz :     0.000000 43307.659213 43307.659213 

 Dipole components along the rotational axes: 
x,y,z [a.u.] :     0.000000     0.000000    -0.000000 
x,y,z [Debye]:     0.000000     0.000000    -0.000000 

 

Timings for individual modules:

Sum of individual times         ...       41.790 sec (=   0.696 min)
GTO integral calculation        ...        4.232 sec (=   0.071 min)  10.1 %
SCF iterations                  ...       37.558 sec (=   0.626 min)  89.9 %
                             ****ORCA TERMINATED NORMALLY****
TOTAL RUN TIME: 0 days 0 hours 1 minutes 1 seconds 703 msec
