
                                 *****************
                                 * O   R   C   A *
                                 *****************

           --- An Ab Initio, DFT and Semiempirical electronic structure package ---

                  #######################################################
                  #                        -***-                        #
                  #          Department of theory and spectroscopy      #
                  #               Directorship: Frank Neese             #
                  #        Max Planck Institute fuer Kohlenforschung    #
                  #                Kaiser Wilhelm Platz 1               #
                  #                 D-45470 Muelheim/Ruhr               #
                  #                      Germany                        #
                  #                                                     #
                  #                  All rights reserved                #
                  #                        -***-                        #
                  #######################################################


                         Program Version 4.2.0 -  RELEASE  -


 With contributions from (in alphabetic order):
   Daniel Aravena         : Magnetic Suceptibility
   Michael Atanasov       : Ab Initio Ligand Field Theory (pilot matlab implementation)
   Alexander A. Auer      : GIAO ZORA, VPT2
   Ute Becker             : Parallelization
   Giovanni Bistoni       : ED, misc. LED, open-shell LED, HFLED
   Martin Brehm           : Molecular dynamics
   Dmytro Bykov           : SCF Hessian
   Vijay G. Chilkuri      : MRCI spin determinant printing, contributions to CSF-ICE
   Dipayan Datta          : RHF DLPNO-CCSD density
   Achintya Kumar Dutta   : EOM-CC, STEOM-CC
   Dmitry Ganyushin       : Spin-Orbit,Spin-Spin,Magnetic field MRCI
   Miquel Garcia          : C-PCM Hessian, Gaussian charge scheme
   Yang Guo               : DLPNO-NEVPT2, CIM, IAO-localization
   Andreas Hansen         : Spin unrestricted coupled pair/coupled cluster methods
   Benjamin Helmich-Paris : CASSCF linear response (MC-RPA)
   Lee Huntington         : MR-EOM, pCC
   Robert Izsak           : Overlap fitted RIJCOSX, COSX-SCS-MP3, EOM
   Christian Kollmar      : KDIIS, OOCD, Brueckner-CCSD(T), CCSD density
   Simone Kossmann        : Meta GGA functionals, TD-DFT gradient, OOMP2, MP2 Hessian
   Martin Krupicka        : AUTO-CI
   Lucas Lang             : DCDCAS
   Dagmar Lenk            : GEPOL surface, SMD
   Dimitrios Liakos       : Extrapolation schemes; Compound Job, initial MDCI parallelization
   Dimitrios Manganas     : Further ROCIS development; embedding schemes
   Dimitrios Pantazis     : SARC Basis sets
   Taras Petrenko         : DFT Hessian,TD-DFT gradient, ASA, ECA, R-Raman, ABS, FL, XAS/XES, NRVS
   Peter Pinski           : DLPNO-MP2, DLPNO-MP2 Gradient
   Christoph Reimann      : Effective Core Potentials
   Marius Retegan         : Local ZFS, SOC
   Christoph Riplinger    : Optimizer, TS searches, QM/MM, DLPNO-CCSD(T), (RO)-DLPNO pert. Triples
   Tobias Risthaus        : Range-separated hybrids, TD-DFT gradient, RPA, STAB
   Michael Roemelt        : Original ROCIS implementation
   Masaaki Saitow         : Open-shell DLPNO-CCSD energy and density
   Barbara Sandhoefer     : DKH picture change effects
   Avijit Sen             : IP-ROCIS
   Kantharuban Sivalingam : CASSCF convergence, NEVPT2, FIC-MRCI
   Bernardo de Souza      : ESD, SOC TD-DFT
   Georgi Stoychev        : AutoAux, RI-MP2 NMR
   Willem Van den Heuvel  : Paramagnetic NMR
   Boris Wezisla          : Elementary symmetry handling
   Frank Wennmohs         : Technical directorship


 We gratefully acknowledge several colleagues who have allowed us to
 interface, adapt or use parts of their codes:
   Stefan Grimme, W. Hujo, H. Kruse,             : VdW corrections, initial TS optimization,
                  C. Bannwarth                     DFT functionals, gCP, sTDA/sTD-DF
   Ed Valeev, F. Pavosevic, A. Kumar             : LibInt (2-el integral package), F12 methods
   Garnet Chan, S. Sharma, J. Yang, R. Olivares  : DMRG
   Ulf Ekstrom                                   : XCFun DFT Library
   Mihaly Kallay                                 : mrcc  (arbitrary order and MRCC methods)
   Andreas Klamt, Michael Diedenhofen            : otool_cosmo (COSMO solvation model)
   Jiri Pittner, Ondrej Demel                    : Mk-CCSD
   Frank Weinhold                                : gennbo (NPA and NBO analysis)
   Christopher J. Cramer and Donald G. Truhlar   : smd solvation model
   Lars Goerigk                                  : TD-DFT with DH, B97 family of functionals
   V. Asgeirsson, H. Jonsson                     : NEB implementation
   FAccTs GmbH                                   : IRC, NEB, NEB-TS, Multilevel, MM, QM/MM, CI optimization
   S Lehtola, MJT Oliveira, MAL Marques          : LibXC Library


 Your calculation uses the libint2 library for the computation of 2-el integrals
 For citations please refer to: http://libint.valeyev.net

 Your ORCA version has been built with support for libXC version: 4.2.3
 For citations please refer to: https://tddft.org/programs/libxc/

 This ORCA versions uses:
   CBLAS   interface :  Fast vector & matrix operations
   LAPACKE interface :  Fast linear algebra routines
   SCALAPACK package :  Parallel linear algebra routines


Your calculation utilizes the atom-pairwise dispersion correction
with the Becke-Johnson damping scheme (D3BJ)
Cite in your paper:
S.Grimme, S.Ehrlich, L.Goerigk, J Comput Chem, (2011), 32, 1456–1465 
S.Grimme, J.Antony, S.Ehrlich and H.Krieg, J.Chem.Phys., 132, (2010), 154104 
   

----- Orbital basis set information -----
Your calculation utilizes the basis: def2-TZVPPD
   F. Weigend and R. Ahlrichs, Phys. Chem. Chem. Phys. 7, 3297 (2005).
   D. Rappoport and F. Furche, J. Chem. Phys. 133 134105 (2010).

----- AuxJK basis set information -----
Your calculation utilizes the auxiliary basis: def2/JK
   H-Ba, Hf-Rn: F. Weigend, J. Comput. Chem. 29, 167 (2008).

================================================================================
                                        WARNINGS
                       Please study these warnings very carefully!
================================================================================


WARNING: your system is open-shell and RHF/RKS was chosen
  ===> : WILL SWITCH to UHF/UKS


INFO   : the flag for use of LIBINT has been found!

================================================================================
                                       INPUT FILE
================================================================================
NAME = s2.in
|  1> #
|  2> # s2 TPSSh-D3BJ/Def2-TZVPPD
|  3> #
|  4> ! tpssh d3bj def2-tzvppd def2/jk grid4 nofinalgrid
|  5> 
|  6> *xyz 0 3
|  7> S          0.00000        0.00000        0.96175
|  8> S          0.00000        0.00000       -0.96175
|  9> *
| 10> 
| 11> %maxcore 5000
| 12> 
| 13> %pal
| 14> nprocs = 28
| 15> end
| 16> 
| 17> 
| 18>                          ****END OF INPUT****
================================================================================

                       ****************************
                       * Single Point Calculation *
                       ****************************

---------------------------------
CARTESIAN COORDINATES (ANGSTROEM)
---------------------------------
  S      0.000000    0.000000    0.961750
  S      0.000000    0.000000   -0.961750

----------------------------
CARTESIAN COORDINATES (A.U.)
----------------------------
  NO LB      ZA    FRAG     MASS         X           Y           Z
   0 S    16.0000    0    32.060    0.000000    0.000000    1.817444
   1 S    16.0000    0    32.060    0.000000    0.000000   -1.817444

--------------------------------
INTERNAL COORDINATES (ANGSTROEM)
--------------------------------
 S      0   0   0     0.000000000000     0.00000000     0.00000000
 S      1   0   0     1.923500000000     0.00000000     0.00000000

---------------------------
INTERNAL COORDINATES (A.U.)
---------------------------
 S      0   0   0     0.000000000000     0.00000000     0.00000000
 S      1   0   0     3.634888218598     0.00000000     0.00000000

---------------------
BASIS SET INFORMATION
---------------------
There are 1 groups of distinct atoms

 Group   1 Type S   : 15s10p4d1f contracted to 6s6p4d1f pattern {732111/511111/1111/1}

Atom   0S    basis set group =>   1
Atom   1S    basis set group =>   1
----------------------------------
AUXILIARY/JK BASIS SET INFORMATION
----------------------------------
There are 1 groups of distinct atoms

 Group   1 Type S   : 16s12p10d4f1g contracted to 13s11p9d4f1g pattern {4111111111111/21111111111/211111111/1111/1}

Atom   0S    basis set group =>   1
Atom   1S    basis set group =>   1


           ************************************************************
           *        Program running with 28 parallel MPI-processes    *
           *              working on a common directory               *
           ************************************************************
------------------------------------------------------------------------------
                           ORCA GTO INTEGRAL CALCULATION
------------------------------------------------------------------------------

                         BASIS SET STATISTICS AND STARTUP INFO

 # of primitive gaussian shells          ...   60
 # of primitive gaussian functions       ...  144
 # of contracted shells                  ...   34
 # of contracted basis functions         ...  102
 Highest angular momentum                ...    3
 Maximum contraction depth               ...    7
 Integral package used                   ... LIBINT
 Integral threshhold            Thresh   ...  1.000e-10
 Primitive cut-off              TCut     ...  1.000e-11


------------------------------ INTEGRAL EVALUATION ----------------------------


 * One electron integrals 
 Pre-screening matrix                    ... done
 Shell pair data                         ... done (   0.000 sec)



           ************************************************************
           *        Program running with 28 parallel MPI-processes    *
           *              working on a common directory               *
           ************************************************************
-------------------------------------------------------------------------------
                                 ORCA SCF
-------------------------------------------------------------------------------

------------
SCF SETTINGS
------------
Hamiltonian:
 Density Functional     Method          .... DFT(GTOs)
 Exchange Functional    Exchange        .... TPSS
 Correlation Functional Correlation     .... TPSS
 LDA part of GGA corr.  LDAOpt          .... PW91-LDA
 Gradients option       PostSCFGGA      .... off
 Hybrid DFT is turned on
   Fraction HF Exchange ScalHFX         ....  0.100000
   Scaling of DF-GGA-X  ScalDFX         ....  0.900000
   Scaling of DF-GGA-C  ScalDFC         ....  1.000000
   Scaling of DF-LDA-C  ScalLDAC        ....  1.000000
   Perturbative correction              ....  0.000000
   Density functional embedding theory  .... OFF
   NL short-range parameter             ....  5.200000


General Settings:
 Integral files         IntName         .... s2
 Hartree-Fock type      HFTyp           .... UHF
 Total Charge           Charge          ....    0
 Multiplicity           Mult            ....    3
 Number of Electrons    NEL             ....   32
 Basis Dimension        Dim             ....  102
 Nuclear Repulsion      ENuc            ....     70.4285756822 Eh

Convergence Acceleration:
 DIIS                   CNVDIIS         .... on
   Start iteration      DIISMaxIt       ....    12
   Startup error        DIISStart       ....  0.200000
   # of expansion vecs  DIISMaxEq       ....     5
   Bias factor          DIISBfac        ....   1.050
   Max. coefficient     DIISMaxC        ....  10.000
 Newton-Raphson         CNVNR           .... off
 SOSCF                  CNVSOSCF        .... off
 Level Shifting         CNVShift        .... on
   Level shift para.    LevelShift      ....    0.2500
   Turn off err/grad.   ShiftErr        ....    0.0010
 Zerner damping         CNVZerner       .... off
 Static damping         CNVDamp         .... on
   Fraction old density DampFac         ....    0.7000
   Max. Damping (<1)    DampMax         ....    0.9800
   Min. Damping (>=0)   DampMin         ....    0.0000
   Turn off err/grad.   DampErr         ....    0.1000
 Fernandez-Rico         CNVRico         .... off

SCF Procedure:
 Maximum # iterations   MaxIter         ....   125
 SCF integral mode      SCFMode         .... Direct
   Integral package                     .... LIBINT
 Reset frequency        DirectResetFreq ....    20
 Integral Threshold     Thresh          ....  1.000e-10 Eh
 Primitive CutOff       TCut            ....  1.000e-11 Eh

Convergence Tolerance:
 Convergence Check Mode ConvCheckMode   .... Total+1el-Energy
 Convergence forced     ConvForced      .... 0
 Energy Change          TolE            ....  1.000e-06 Eh
 1-El. energy change                    ....  1.000e-03 Eh
 DIIS Error             TolErr          ....  1.000e-06


Diagonalization of the overlap matrix:
Smallest eigenvalue                        ... 7.821e-04
Time for diagonalization                   ...    0.007 sec
Threshold for overlap eigenvalues          ... 1.000e-08
Number of eigenvalues below threshold      ... 0
Time for construction of square roots      ...    0.008 sec
Total time needed                          ...    0.016 sec

-------------------
DFT GRID GENERATION
-------------------

General Integration Accuracy     IntAcc      ...  4.670
Radial Grid Type                 RadialGrid  ... Gauss-Chebyshev
Angular Grid (max. acc.)         AngularGrid ... Lebedev-302
Angular grid pruning method      GridPruning ... 3 (G Style)
Weight generation scheme         WeightScheme... Becke
Basis function cutoff            BFCut       ...    1.0000e-10
Integration weight cutoff        WCut        ...    1.0000e-14
Grids for H and He will be reduced by one unit

# of grid points (after initial pruning)     ...  13692 (   0.0 sec)
# of grid points (after weights+screening)   ...  13666 (   0.0 sec)
nearest neighbour list constructed           ...    0.0 sec
Grid point re-assignment to atoms done       ...    0.0 sec
Grid point division into batches done        ...    0.1 sec
Reduced shell lists constructed in    0.1 sec

Total number of grid points                  ...    13666
Total number of batches                      ...      214
Average number of points per batch           ...       63
Average number of grid points per atom       ...     6833
Average number of shells per batch           ...     8.11 (23.86%)
Average number of basis functions per batch  ...    21.67 (21.24%)
Average number of large shells per batch     ...     6.33 (78.08%)
Average number of large basis fcns per batch ...    19.00 (87.69%)
Maximum spatial batch extension              ...  19.50, 19.55, 13.50 au
Average spatial batch extension              ...   0.59,  0.57,  0.41 au

Time for grid setup =    0.137 sec

------------------------------
INITIAL GUESS: MODEL POTENTIAL
------------------------------
Loading Hartree-Fock densities                     ... done
Calculating cut-offs                               ... done
Setting up the integral package                    ... done
Initializing the effective Hamiltonian             ... done
Starting the Coulomb interaction                   ... done (   0.0 sec)
Reading the grid                                   ... done
Mapping shells                                     ... done
Starting the XC term evaluation                    ... done (   0.0 sec)
  promolecular density results
     # of electrons  =     32.000015260
     EX              =    -49.739420575
     EC              =     -1.226522955
     EX+EC           =    -50.965943530
Transforming the Hamiltonian                       ... done (   0.0 sec)
Diagonalizing the Hamiltonian                      ... done (   0.0 sec)
Back transforming the eigenvectors                 ... done (   0.0 sec)
Now organizing SCF variables                       ... done
                      ------------------
                      INITIAL GUESS DONE (   0.3 sec)
                      ------------------
--------------
SCF ITERATIONS
--------------
ITER       Energy         Delta-E        Max-DP      RMS-DP      [F,P]     Damp
               ***  Starting incremental Fock matrix formation  ***
  0   -796.4231678792   0.000000000000 0.01260505  0.00025252  0.0457419 0.7000
  1   -796.4256598449  -0.002491965718 0.00996318  0.00019838  0.0320859 0.7000
                               ***Turning on DIIS***
  2   -796.4271527716  -0.001492926679 0.02147128  0.00043022  0.0224852 0.0000
  3   -796.4302891786  -0.003136407028 0.00443961  0.00010459  0.0086728 0.0000
  4   -796.4306461778  -0.000356999142 0.00125370  0.00003794  0.0019687 0.0000
  5   -796.4306838480  -0.000037670218 0.00113639  0.00002775  0.0003044 0.0000
  6   -796.4306949821  -0.000011134100 0.00029009  0.00000694  0.0000453 0.0000
                 **** Energy Check signals convergence ****

               *****************************************************
               *                     SUCCESS                       *
               *           SCF CONVERGED AFTER   7 CYCLES          *
               *****************************************************


----------------
TOTAL SCF ENERGY
----------------

Total Energy       :         -796.43069564 Eh          -21671.98101 eV

Components:
Nuclear Repulsion  :           70.42857568 Eh            1916.45898 eV
Electronic Energy  :         -866.85927133 Eh          -23588.43999 eV
One Electron Energy:        -1239.75035381 Eh          -33735.32220 eV
Two Electron Energy:          372.89108248 Eh           10146.88221 eV

Virial components:
Potential Energy   :        -1591.35192523 Eh          -43302.88736 eV
Kinetic Energy     :          794.92122958 Eh           21630.90635 eV
Virial Ratio       :            2.00189889


DFT components:
N(Alpha)           :       17.000005331498 electrons
N(Beta)            :       15.000005252397 electrons
N(Total)           :       32.000010583895 electrons
E(X)               :      -45.145569361296 Eh       
E(C)               :       -1.231006784925 Eh       
E(XC)              :      -46.376576146222 Eh       
DFET-embed. en.    :        0.000000000000 Eh       

---------------
SCF CONVERGENCE
---------------

  Last Energy change         ...   -6.6265e-07  Tolerance :   1.0000e-06
  Last MAX-Density change    ...    4.2852e-05  Tolerance :   1.0000e-05
  Last RMS-Density change    ...    1.0291e-06  Tolerance :   1.0000e-06
  Last DIIS Error            ...    1.3030e-05  Tolerance :   1.0000e-06

             **** THE GBW FILE WAS UPDATED (s2.gbw) ****
             **** DENSITY FILE WAS UPDATED (s2.scfp) ****
             **** ENERGY FILE WAS UPDATED (s2.en.tmp) ****
----------------------
UHF SPIN CONTAMINATION
----------------------

Warning: in a DFT calculation there is little theoretical justification to 
         calculate <S**2> as in Hartree-Fock theory. We will do it anyways
         but you should keep in mind that the values have only limited relevance

Expectation value of <S**2>     :     2.009538
Ideal value S*(S+1) for S=1.0   :     2.000000
Deviation                       :     0.009538

             **** THE GBW FILE WAS UPDATED (s2.gbw) ****
             **** DENSITY FILE WAS UPDATED (s2.scfp) ****
----------------
ORBITAL ENERGIES
----------------
                 SPIN UP ORBITALS
  NO   OCC          E(Eh)            E(eV) 
   0   1.0000     -88.771499     -2415.5953 
   1   1.0000     -88.771487     -2415.5950 
   2   1.0000      -7.914937      -215.3764 
   3   1.0000      -7.914821      -215.3732 
   4   1.0000      -5.862969      -159.5395 
   5   1.0000      -5.862969      -159.5395 
   6   1.0000      -5.862925      -159.5383 
   7   1.0000      -5.862925      -159.5383 
   8   1.0000      -5.862801      -159.5349 
   9   1.0000      -5.862145      -159.5171 
  10   1.0000      -0.811195       -22.0737 
  11   1.0000      -0.620383       -16.8815 
  12   1.0000      -0.387754       -10.5513 
  13   1.0000      -0.364643        -9.9224 
  14   1.0000      -0.364643        -9.9224 
  15   1.0000      -0.240793        -6.5523 
  16   1.0000      -0.240793        -6.5523 
  17   0.0000      -0.036956        -1.0056 
  18   0.0000       0.022732         0.6186 
  19   0.0000       0.034739         0.9453 
  20   0.0000       0.034739         0.9453 
  21   0.0000       0.037962         1.0330 
  22   0.0000       0.047114         1.2820 
  23   0.0000       0.064836         1.7643 
  24   0.0000       0.064836         1.7643 
  25   0.0000       0.090758         2.4696 
  26   0.0000       0.090759         2.4697 
  27   0.0000       0.136803         3.7226 
  28   0.0000       0.136803         3.7226 
  29   0.0000       0.155454         4.2301 
  30   0.0000       0.189062         5.1446 
  31   0.0000       0.189065         5.1447 
  32   0.0000       0.191283         5.2051 
  33   0.0000       0.242712         6.6045 
  34   0.0000       0.245625         6.6838 
  35   0.0000       0.245625         6.6838 
  36   0.0000       0.342165         9.3108 
  37   0.0000       0.342165         9.3108 
  38   0.0000       0.374771        10.1980 
  39   0.0000       0.392740        10.6870 
  40   0.0000       0.392740        10.6870 
  41   0.0000       0.403152        10.9703 
  42   0.0000       0.403160        10.9705 
  43   0.0000       0.476648        12.9703 
  44   0.0000       0.476653        12.9704 
  45   0.0000       0.510762        13.8985 
  46   0.0000       0.510762        13.8985 
  47   0.0000       0.532041        14.4776 
  48   0.0000       0.541060        14.7230 
  49   0.0000       0.603608        16.4250 
  50   0.0000       0.603608        16.4250 
  51   0.0000       0.690978        18.8025 
  52   0.0000       0.727754        19.8032 
  53   0.0000       1.108243        30.1568 
  54   0.0000       1.411774        38.4163 
  55   0.0000       1.411774        38.4163 
  56   0.0000       1.436819        39.0978 
  57   0.0000       1.466381        39.9022 
  58   0.0000       1.466381        39.9022 
  59   0.0000       1.530076        41.6355 
  60   0.0000       1.530113        41.6365 
  61   0.0000       1.554966        42.3128 
  62   0.0000       1.555009        42.3140 
  63   0.0000       1.562731        42.5241 
  64   0.0000       1.562731        42.5241 
  65   0.0000       1.562984        42.5310 
  66   0.0000       1.562984        42.5310 
  67   0.0000       1.600558        43.5534 
  68   0.0000       1.647174        44.8219 
  69   0.0000       1.647174        44.8219 
  70   0.0000       1.653533        44.9949 
  71   0.0000       1.653533        44.9949 
  72   0.0000       1.835108        49.9358 
  73   0.0000       1.835108        49.9358 
  74   0.0000       1.836451        49.9724 
  75   0.0000       1.898137        51.6509 
  76   0.0000       1.898151        51.6513 
  77   0.0000       1.932761        52.5931 
  78   0.0000       1.932761        52.5931 
  79   0.0000       1.985866        54.0381 
  80   0.0000       2.437738        66.3342 
  81   0.0000       2.495641        67.9098 
  82   0.0000       2.495641        67.9098 
  83   0.0000       3.042513        82.7910 
  84   0.0000       6.658491       181.1868 
  85   0.0000       6.658507       181.1872 
  86   0.0000       6.688878       182.0136 
  87   0.0000       6.688893       182.0140 
  88   0.0000       6.692748       182.1189 
  89   0.0000       6.692748       182.1189 
  90   0.0000       6.710321       182.5971 
  91   0.0000       6.710321       182.5971 
  92   0.0000       6.711470       182.6284 
  93   0.0000       6.921109       188.3329 
  94   0.0000       8.792095       239.2451 
  95   0.0000       8.792095       239.2451 
  96   0.0000       8.923211       242.8129 
  97   0.0000       8.923211       242.8129 
  98   0.0000       9.078721       247.0446 
  99   0.0000       9.199215       250.3234 
 100   0.0000      18.264806       497.0106 
 101   0.0000      18.960572       515.9434 

                 SPIN DOWN ORBITALS
  NO   OCC          E(Eh)            E(eV) 
   0   1.0000     -88.765062     -2415.4201 
   1   1.0000     -88.765050     -2415.4198 
   2   1.0000      -7.909466      -215.2275 
   3   1.0000      -7.909333      -215.2239 
   4   1.0000      -5.859745      -159.4518 
   5   1.0000      -5.859080      -159.4337 
   6   1.0000      -5.851783      -159.2351 
   7   1.0000      -5.851783      -159.2351 
   8   1.0000      -5.851733      -159.2338 
   9   1.0000      -5.851733      -159.2338 
  10   1.0000      -0.784080       -21.3359 
  11   1.0000      -0.565170       -15.3791 
  12   1.0000      -0.366614        -9.9761 
  13   1.0000      -0.317841        -8.6489 
  14   1.0000      -0.317841        -8.6489 
  15   0.0000      -0.153740        -4.1835 
  16   0.0000      -0.153740        -4.1835 
  17   0.0000      -0.020819        -0.5665 
  18   0.0000       0.030839         0.8392 
  19   0.0000       0.040819         1.1107 
  20   0.0000       0.040819         1.1107 
  21   0.0000       0.045936         1.2500 
  22   0.0000       0.052251         1.4218 
  23   0.0000       0.073634         2.0037 
  24   0.0000       0.073634         2.0037 
  25   0.0000       0.108978         2.9654 
  26   0.0000       0.108979         2.9655 
  27   0.0000       0.154669         4.2088 
  28   0.0000       0.154669         4.2088 
  29   0.0000       0.164249         4.4695 
  30   0.0000       0.201755         5.4900 
  31   0.0000       0.211262         5.7487 
  32   0.0000       0.211263         5.7488 
  33   0.0000       0.251170         6.8347 
  34   0.0000       0.257806         7.0153 
  35   0.0000       0.257806         7.0153 
  36   0.0000       0.353416         9.6169 
  37   0.0000       0.353416         9.6169 
  38   0.0000       0.383855        10.4452 
  39   0.0000       0.415681        11.3112 
  40   0.0000       0.415681        11.3112 
  41   0.0000       0.437054        11.8929 
  42   0.0000       0.437057        11.8929 
  43   0.0000       0.522537        14.2190 
  44   0.0000       0.522538        14.2190 
  45   0.0000       0.532891        14.5007 
  46   0.0000       0.532891        14.5007 
  47   0.0000       0.543435        14.7876 
  48   0.0000       0.552801        15.0425 
  49   0.0000       0.632418        17.2090 
  50   0.0000       0.632418        17.2090 
  51   0.0000       0.714930        19.4542 
  52   0.0000       0.749285        20.3891 
  53   0.0000       1.128930        30.7197 
  54   0.0000       1.444450        39.3055 
  55   0.0000       1.444455        39.3056 
  56   0.0000       1.455219        39.5985 
  57   0.0000       1.488691        40.5093 
  58   0.0000       1.488691        40.5093 
  59   0.0000       1.561823        42.4994 
  60   0.0000       1.561856        42.5003 
  61   0.0000       1.586569        43.1728 
  62   0.0000       1.586569        43.1728 
  63   0.0000       1.588835        43.2344 
  64   0.0000       1.588872        43.2354 
  65   0.0000       1.610666        43.8285 
  66   0.0000       1.610666        43.8285 
  67   0.0000       1.615397        43.9572 
  68   0.0000       1.669662        45.4338 
  69   0.0000       1.669662        45.4338 
  70   0.0000       1.704319        46.3769 
  71   0.0000       1.704319        46.3769 
  72   0.0000       1.852571        50.4110 
  73   0.0000       1.864933        50.7474 
  74   0.0000       1.864933        50.7474 
  75   0.0000       1.936019        52.6818 
  76   0.0000       1.936038        52.6823 
  77   0.0000       1.961289        53.3694 
  78   0.0000       1.961289        53.3694 
  79   0.0000       2.008147        54.6445 
  80   0.0000       2.456580        66.8469 
  81   0.0000       2.526728        68.7558 
  82   0.0000       2.526728        68.7558 
  83   0.0000       3.067620        83.4742 
  84   0.0000       6.674319       181.6174 
  85   0.0000       6.674343       181.6181 
  86   0.0000       6.702788       182.3921 
  87   0.0000       6.702788       182.3921 
  88   0.0000       6.705086       182.4547 
  89   0.0000       6.705110       182.4553 
  90   0.0000       6.720387       182.8710 
  91   0.0000       6.720462       182.8731 
  92   0.0000       6.720462       182.8731 
  93   0.0000       6.931197       188.6075 
  94   0.0000       8.813264       239.8211 
  95   0.0000       8.813264       239.8211 
  96   0.0000       8.944813       243.4007 
  97   0.0000       8.944813       243.4007 
  98   0.0000       9.090398       247.3623 
  99   0.0000       9.210705       250.6360 
 100   0.0000      18.278135       497.3733 
 101   0.0000      18.974709       516.3281 

                    ********************************
                    * MULLIKEN POPULATION ANALYSIS *
                    ********************************

--------------------------------------------
MULLIKEN ATOMIC CHARGES AND SPIN POPULATIONS
--------------------------------------------
   0 S :   -0.000000    1.000000
   1 S :    0.000000    1.000000
Sum of atomic charges         :   -0.0000000
Sum of atomic spin populations:    2.0000000

-----------------------------------------------------
MULLIKEN REDUCED ORBITAL CHARGES AND SPIN POPULATIONS
-----------------------------------------------------
CHARGE
  0 S s       :     5.954009  s :     5.954009
      pz      :     3.015291  p :     9.922537
      px      :     3.453623
      py      :     3.453623
      dz2     :     0.027210  d :     0.112699
      dxz     :     0.042745
      dyz     :     0.042745
      dx2y2   :     0.000000
      dxy     :     0.000000
      f0      :     0.003491  f :     0.010755
      f+1     :     0.003632
      f-1     :     0.003632
      f+2     :     0.000000
      f-2     :     0.000000
      f+3     :     0.000000
      f-3     :     0.000000
  1 S s       :     5.954009  s :     5.954009
      pz      :     3.015291  p :     9.922537
      px      :     3.453623
      py      :     3.453623
      dz2     :     0.027209  d :     0.112699
      dxz     :     0.042745
      dyz     :     0.042745
      dx2y2   :     0.000000
      dxy     :     0.000000
      f0      :     0.003491  f :     0.010755
      f+1     :     0.003632
      f-1     :     0.003632
      f+2     :     0.000000
      f-2     :     0.000000
      f+3     :     0.000000
      f-3     :     0.000000

SPIN
  0 S s       :     0.003815  s :     0.003815
      pz      :    -0.003165  p :     0.995328
      px      :     0.499247
      py      :     0.499247
      dz2     :     0.000070  d :     0.002426
      dxz     :     0.001178
      dyz     :     0.001178
      dx2y2   :     0.000000
      dxy     :     0.000000
      f0      :    -0.000720  f :    -0.001569
      f+1     :    -0.000425
      f-1     :    -0.000425
      f+2     :    -0.000000
      f-2     :     0.000000
      f+3     :     0.000000
      f-3     :     0.000000
  1 S s       :     0.003815  s :     0.003815
      pz      :    -0.003165  p :     0.995328
      px      :     0.499247
      py      :     0.499247
      dz2     :     0.000070  d :     0.002426
      dxz     :     0.001178
      dyz     :     0.001178
      dx2y2   :    -0.000000
      dxy     :    -0.000000
      f0      :    -0.000720  f :    -0.001569
      f+1     :    -0.000425
      f-1     :    -0.000425
      f+2     :    -0.000000
      f-2     :     0.000000
      f+3     :     0.000000
      f-3     :     0.000000


                     *******************************
                     * LOEWDIN POPULATION ANALYSIS *
                     *******************************

-------------------------------------------
LOEWDIN ATOMIC CHARGES AND SPIN POPULATIONS
-------------------------------------------
   0 S :   -0.000000    1.000000
   1 S :    0.000000    1.000000

----------------------------------------------------
LOEWDIN REDUCED ORBITAL CHARGES AND SPIN POPULATIONS
----------------------------------------------------
CHARGE
  0 S s       :     5.561941  s :     5.561941
      pz      :     3.225696  p :     9.944973
      px      :     3.359639
      py      :     3.359639
      dz2     :     0.199292  d :     0.461740
      dxz     :     0.131224
      dyz     :     0.131224
      dx2y2   :     0.000000
      dxy     :     0.000000
      f0      :     0.013071  f :     0.031345
      f+1     :     0.009137
      f-1     :     0.009137
      f+2     :     0.000000
      f-2     :     0.000000
      f+3     :     0.000000
      f-3     :     0.000000
  1 S s       :     5.561941  s :     5.561941
      pz      :     3.225696  p :     9.944973
      px      :     3.359639
      py      :     3.359639
      dz2     :     0.199292  d :     0.461740
      dxz     :     0.131224
      dyz     :     0.131224
      dx2y2   :     0.000000
      dxy     :     0.000000
      f0      :     0.013071  f :     0.031345
      f+1     :     0.009137
      f-1     :     0.009137
      f+2     :     0.000000
      f-2     :     0.000000
      f+3     :     0.000000
      f-3     :     0.000000

SPIN
  0 S s       :     0.006154  s :     0.006154
      pz      :    -0.008663  p :     0.868033
      px      :     0.438348
      py      :     0.438348
      dz2     :     0.003235  d :     0.121228
      dxz     :     0.058997
      dyz     :     0.058997
      dx2y2   :     0.000000
      dxy     :     0.000000
      f0      :    -0.000726  f :     0.004585
      f+1     :     0.002655
      f-1     :     0.002655
      f+2     :    -0.000000
      f-2     :     0.000000
      f+3     :     0.000000
      f-3     :     0.000000
  1 S s       :     0.006154  s :     0.006154
      pz      :    -0.008663  p :     0.868033
      px      :     0.438348
      py      :     0.438348
      dz2     :     0.003235  d :     0.121228
      dxz     :     0.058997
      dyz     :     0.058997
      dx2y2   :    -0.000000
      dxy     :    -0.000000
      f0      :    -0.000726  f :     0.004585
      f+1     :     0.002655
      f-1     :     0.002655
      f+2     :    -0.000000
      f-2     :     0.000000
      f+3     :     0.000000
      f-3     :     0.000000


                      *****************************
                      * MAYER POPULATION ANALYSIS *
                      *****************************

  NA   - Mulliken gross atomic population
  ZA   - Total nuclear charge
  QA   - Mulliken gross atomic charge
  VA   - Mayer's total valence
  BVA  - Mayer's bonded valence
  FA   - Mayer's free valence

  ATOM       NA         ZA         QA         VA         BVA        FA
  0 S     16.0000    16.0000    -0.0000     2.4759     1.9120     0.5639
  1 S     16.0000    16.0000     0.0000     2.4759     1.9120     0.5639

  Mayer bond orders larger than 0.100000
B(  0-S ,  1-S ) :   1.9120 

-------
TIMINGS
-------

Total SCF time: 0 days 0 hours 0 min 46 sec 

Total time                  ....      46.053 sec
Sum of individual times     ....      45.378 sec  ( 98.5%)

Fock matrix formation       ....      43.764 sec  ( 95.0%)
  XC integration            ....      41.946 sec  ( 95.8% of F)
    Basis function eval.    ....       0.010 sec  (  0.0% of XC)
    Density eval.           ....       0.028 sec  (  0.1% of XC)
    XC-Functional eval.     ....       0.013 sec  (  0.0% of XC)
    XC-Potential eval.      ....       0.056 sec  (  0.1% of XC)
Diagonalization             ....       0.889 sec  (  1.9%)
Density matrix formation    ....       0.005 sec  (  0.0%)
Population analysis         ....       0.388 sec  (  0.8%)
Initial guess               ....       0.131 sec  (  0.3%)
Orbital Transformation      ....       0.000 sec  (  0.0%)
Orbital Orthonormalization  ....       0.000 sec  (  0.0%)
DIIS solution               ....       0.064 sec  (  0.1%)
Grid generation             ....       0.137 sec  (  0.3%)


-------------------------------------------------------------------------------
                          DFT DISPERSION CORRECTION                            
                                                                               
                              DFTD3 V3.1  Rev 1                                
                          USING Becke-Johnson damping                          
-------------------------------------------------------------------------------
The TPSSH functional is recognized
Active option DFTDOPT                   ...         4   

molecular C6(AA) [au] = 523.804030 


            DFT-D V3
 parameters
 s6 scaling factor         :     1.0000 
 a1 scaling factor         :     0.4529 
 s8 scaling factor         :     2.2382 
 a2 scaling factor         :     4.6550 
 ad hoc parameters k1-k3   :    16.0000     1.3333    -4.0000 

 Edisp/kcal,au: -0.994008903026  -0.001584053848 
 E6   /kcal   :  -0.354385898 
 E8   /kcal   :  -0.639623005 
 % E8         :  64.347814494 

-------------------------   ----------------
Dispersion correction           -0.001584054
-------------------------   ----------------


-------------------------   --------------------
FINAL SINGLE POINT ENERGY      -796.432279698575
-------------------------   --------------------


                            ***************************************
                            *     ORCA property calculations      *
                            ***************************************

                                    ---------------------
                                    Active property flags
                                    ---------------------
   (+) Dipole Moment


------------------------------------------------------------------------------
                       ORCA ELECTRIC PROPERTIES CALCULATION
------------------------------------------------------------------------------

Dipole Moment Calculation                       ... on
Quadrupole Moment Calculation                   ... off
Polarizability Calculation                      ... off
GBWName                                         ... s2.gbw
Electron density file                           ... s2.scfp
The origin for moment calculation is the CENTER OF MASS  = ( 0.000000,  0.000000  0.000000)

-------------
DIPOLE MOMENT
-------------
                                X             Y             Z
Electronic contribution:     -0.00000      -0.00000       0.00000
Nuclear contribution   :      0.00000       0.00000       0.00000
                        -----------------------------------------
Total Dipole Moment    :     -0.00000      -0.00000       0.00000
                        -----------------------------------------
Magnitude (a.u.)       :      0.00000
Magnitude (Debye)      :      0.00000



--------------------
Rotational spectrum 
--------------------
 
Rotational constants in cm-1:     0.000000     0.284236     0.284236 
Rotational constants in MHz :     0.000000  8521.179234  8521.179234 

 Dipole components along the rotational axes: 
x,y,z [a.u.] :     0.000000    -0.000000    -0.000000 
x,y,z [Debye]:     0.000000    -0.000000    -0.000000 

 

Timings for individual modules:

Sum of individual times         ...       48.863 sec (=   0.814 min)
GTO integral calculation        ...        2.105 sec (=   0.035 min)   4.3 %
SCF iterations                  ...       46.758 sec (=   0.779 min)  95.7 %
                             ****ORCA TERMINATED NORMALLY****
TOTAL RUN TIME: 0 days 0 hours 1 minutes 22 seconds 16 msec
