
                                 *****************
                                 * O   R   C   A *
                                 *****************

           --- An Ab Initio, DFT and Semiempirical electronic structure package ---

                  #######################################################
                  #                        -***-                        #
                  #          Department of theory and spectroscopy      #
                  #               Directorship: Frank Neese             #
                  #        Max Planck Institute fuer Kohlenforschung    #
                  #                Kaiser Wilhelm Platz 1               #
                  #                 D-45470 Muelheim/Ruhr               #
                  #                      Germany                        #
                  #                                                     #
                  #                  All rights reserved                #
                  #                        -***-                        #
                  #######################################################


                         Program Version 4.2.0 -  RELEASE  -


 With contributions from (in alphabetic order):
   Daniel Aravena         : Magnetic Suceptibility
   Michael Atanasov       : Ab Initio Ligand Field Theory (pilot matlab implementation)
   Alexander A. Auer      : GIAO ZORA, VPT2
   Ute Becker             : Parallelization
   Giovanni Bistoni       : ED, misc. LED, open-shell LED, HFLED
   Martin Brehm           : Molecular dynamics
   Dmytro Bykov           : SCF Hessian
   Vijay G. Chilkuri      : MRCI spin determinant printing, contributions to CSF-ICE
   Dipayan Datta          : RHF DLPNO-CCSD density
   Achintya Kumar Dutta   : EOM-CC, STEOM-CC
   Dmitry Ganyushin       : Spin-Orbit,Spin-Spin,Magnetic field MRCI
   Miquel Garcia          : C-PCM Hessian, Gaussian charge scheme
   Yang Guo               : DLPNO-NEVPT2, CIM, IAO-localization
   Andreas Hansen         : Spin unrestricted coupled pair/coupled cluster methods
   Benjamin Helmich-Paris : CASSCF linear response (MC-RPA)
   Lee Huntington         : MR-EOM, pCC
   Robert Izsak           : Overlap fitted RIJCOSX, COSX-SCS-MP3, EOM
   Christian Kollmar      : KDIIS, OOCD, Brueckner-CCSD(T), CCSD density
   Simone Kossmann        : Meta GGA functionals, TD-DFT gradient, OOMP2, MP2 Hessian
   Martin Krupicka        : AUTO-CI
   Lucas Lang             : DCDCAS
   Dagmar Lenk            : GEPOL surface, SMD
   Dimitrios Liakos       : Extrapolation schemes; Compound Job, initial MDCI parallelization
   Dimitrios Manganas     : Further ROCIS development; embedding schemes
   Dimitrios Pantazis     : SARC Basis sets
   Taras Petrenko         : DFT Hessian,TD-DFT gradient, ASA, ECA, R-Raman, ABS, FL, XAS/XES, NRVS
   Peter Pinski           : DLPNO-MP2, DLPNO-MP2 Gradient
   Christoph Reimann      : Effective Core Potentials
   Marius Retegan         : Local ZFS, SOC
   Christoph Riplinger    : Optimizer, TS searches, QM/MM, DLPNO-CCSD(T), (RO)-DLPNO pert. Triples
   Tobias Risthaus        : Range-separated hybrids, TD-DFT gradient, RPA, STAB
   Michael Roemelt        : Original ROCIS implementation
   Masaaki Saitow         : Open-shell DLPNO-CCSD energy and density
   Barbara Sandhoefer     : DKH picture change effects
   Avijit Sen             : IP-ROCIS
   Kantharuban Sivalingam : CASSCF convergence, NEVPT2, FIC-MRCI
   Bernardo de Souza      : ESD, SOC TD-DFT
   Georgi Stoychev        : AutoAux, RI-MP2 NMR
   Willem Van den Heuvel  : Paramagnetic NMR
   Boris Wezisla          : Elementary symmetry handling
   Frank Wennmohs         : Technical directorship


 We gratefully acknowledge several colleagues who have allowed us to
 interface, adapt or use parts of their codes:
   Stefan Grimme, W. Hujo, H. Kruse,             : VdW corrections, initial TS optimization,
                  C. Bannwarth                     DFT functionals, gCP, sTDA/sTD-DF
   Ed Valeev, F. Pavosevic, A. Kumar             : LibInt (2-el integral package), F12 methods
   Garnet Chan, S. Sharma, J. Yang, R. Olivares  : DMRG
   Ulf Ekstrom                                   : XCFun DFT Library
   Mihaly Kallay                                 : mrcc  (arbitrary order and MRCC methods)
   Andreas Klamt, Michael Diedenhofen            : otool_cosmo (COSMO solvation model)
   Jiri Pittner, Ondrej Demel                    : Mk-CCSD
   Frank Weinhold                                : gennbo (NPA and NBO analysis)
   Christopher J. Cramer and Donald G. Truhlar   : smd solvation model
   Lars Goerigk                                  : TD-DFT with DH, B97 family of functionals
   V. Asgeirsson, H. Jonsson                     : NEB implementation
   FAccTs GmbH                                   : IRC, NEB, NEB-TS, Multilevel, MM, QM/MM, CI optimization
   S Lehtola, MJT Oliveira, MAL Marques          : LibXC Library


 Your calculation uses the libint2 library for the computation of 2-el integrals
 For citations please refer to: http://libint.valeyev.net

 Your ORCA version has been built with support for libXC version: 4.2.3
 For citations please refer to: https://tddft.org/programs/libxc/

 This ORCA versions uses:
   CBLAS   interface :  Fast vector & matrix operations
   LAPACKE interface :  Fast linear algebra routines
   SCALAPACK package :  Parallel linear algebra routines


Your calculation utilizes the atom-pairwise dispersion correction
with the Becke-Johnson damping scheme (D3BJ)
Cite in your paper:
S.Grimme, S.Ehrlich, L.Goerigk, J Comput Chem, (2011), 32, 1456–1465 
S.Grimme, J.Antony, S.Ehrlich and H.Krieg, J.Chem.Phys., 132, (2010), 154104 
   

----- Orbital basis set information -----
Your calculation utilizes the basis: def2-TZVPPD
   F. Weigend and R. Ahlrichs, Phys. Chem. Chem. Phys. 7, 3297 (2005).
   D. Rappoport and F. Furche, J. Chem. Phys. 133 134105 (2010).

----- AuxJK basis set information -----
Your calculation utilizes the auxiliary basis: def2/JK
   H-Ba, Hf-Rn: F. Weigend, J. Comput. Chem. 29, 167 (2008).

================================================================================
                                        WARNINGS
                       Please study these warnings very carefully!
================================================================================


WARNING: your system is open-shell and RHF/RKS was chosen
  ===> : WILL SWITCH to UHF/UKS


INFO   : the flag for use of LIBINT has been found!

================================================================================
                                       INPUT FILE
================================================================================
NAME = V.in
|  1> #
|  2> # V TPSSh-D3BJ/Def2-TZVPPD
|  3> #
|  4> ! tpssh d3bj def2-tzvppd def2/jk grid4 nofinalgrid
|  5> 
|  6> *xyz 0 6
|  7> V          0.00000        0.00000        0.00000
|  8> *
|  9> 
| 10> %maxcore 5000
| 11> 
| 12> %pal
| 13> nprocs = 28
| 14> end
| 15> 
| 16> 
| 17>                          ****END OF INPUT****
================================================================================

                       ****************************
                       * Single Point Calculation *
                       ****************************

---------------------------------
CARTESIAN COORDINATES (ANGSTROEM)
---------------------------------
  V      0.000000    0.000000    0.000000

----------------------------
CARTESIAN COORDINATES (A.U.)
----------------------------
  NO LB      ZA    FRAG     MASS         X           Y           Z
   0 V    23.0000    0    50.940    0.000000    0.000000    0.000000

--------------------------------
INTERNAL COORDINATES (ANGSTROEM)
--------------------------------
 V      0   0   0     0.000000000000     0.00000000     0.00000000

---------------------------
INTERNAL COORDINATES (A.U.)
---------------------------
 V      0   0   0     0.000000000000     0.00000000     0.00000000

---------------------
BASIS SET INFORMATION
---------------------
There are 1 groups of distinct atoms

 Group   1 Type V   : 17s13p7d2f1g contracted to 6s6p4d2f1g pattern {842111/631111/4111/11/1}

Atom   0V    basis set group =>   1
----------------------------------
AUXILIARY/JK BASIS SET INFORMATION
----------------------------------
There are 1 groups of distinct atoms

 Group   1 Type V   : 19s14p12d10f7g3h1i contracted to 16s13p11d9f5g3h1i pattern {4111111111111111/2111111111111/21111111111/211111111/31111/111/1}

Atom   0V    basis set group =>   1


           ************************************************************
           *        Program running with 28 parallel MPI-processes    *
           *              working on a common directory               *
           ************************************************************
------------------------------------------------------------------------------
                           ORCA GTO INTEGRAL CALCULATION
------------------------------------------------------------------------------

                         BASIS SET STATISTICS AND STARTUP INFO

 # of primitive gaussian shells          ...   40
 # of primitive gaussian functions       ...  114
 # of contracted shells                  ...   19
 # of contracted basis functions         ...   67
 Highest angular momentum                ...    4
 Maximum contraction depth               ...    8
 Integral package used                   ... LIBINT
 Integral threshhold            Thresh   ...  1.000e-10
 Primitive cut-off              TCut     ...  1.000e-11


------------------------------ INTEGRAL EVALUATION ----------------------------


 * One electron integrals 
 Pre-screening matrix                    ... done
 Shell pair data                         ... done (   0.000 sec)



           ************************************************************
           *        Program running with 28 parallel MPI-processes    *
           *              working on a common directory               *
           ************************************************************
-------------------------------------------------------------------------------
                                 ORCA SCF
-------------------------------------------------------------------------------

------------
SCF SETTINGS
------------
Hamiltonian:
 Density Functional     Method          .... DFT(GTOs)
 Exchange Functional    Exchange        .... TPSS
 Correlation Functional Correlation     .... TPSS
 LDA part of GGA corr.  LDAOpt          .... PW91-LDA
 Gradients option       PostSCFGGA      .... off
 Hybrid DFT is turned on
   Fraction HF Exchange ScalHFX         ....  0.100000
   Scaling of DF-GGA-X  ScalDFX         ....  0.900000
   Scaling of DF-GGA-C  ScalDFC         ....  1.000000
   Scaling of DF-LDA-C  ScalLDAC        ....  1.000000
   Perturbative correction              ....  0.000000
   Density functional embedding theory  .... OFF
   NL short-range parameter             ....  5.200000


General Settings:
 Integral files         IntName         .... V.in
 Hartree-Fock type      HFTyp           .... UHF
 Total Charge           Charge          ....    0
 Multiplicity           Mult            ....    6
 Number of Electrons    NEL             ....   23
 Basis Dimension        Dim             ....   67
 Nuclear Repulsion      ENuc            ....      0.0000000000 Eh

Convergence Acceleration:
 DIIS                   CNVDIIS         .... on
   Start iteration      DIISMaxIt       ....    12
   Startup error        DIISStart       ....  0.200000
   # of expansion vecs  DIISMaxEq       ....     5
   Bias factor          DIISBfac        ....   1.050
   Max. coefficient     DIISMaxC        ....  10.000
 Newton-Raphson         CNVNR           .... off
 SOSCF                  CNVSOSCF        .... off
 Level Shifting         CNVShift        .... on
   Level shift para.    LevelShift      ....    0.2500
   Turn off err/grad.   ShiftErr        ....    0.0010
 Zerner damping         CNVZerner       .... off
 Static damping         CNVDamp         .... on
   Fraction old density DampFac         ....    0.7000
   Max. Damping (<1)    DampMax         ....    0.9800
   Min. Damping (>=0)   DampMin         ....    0.0000
   Turn off err/grad.   DampErr         ....    0.1000
 Fernandez-Rico         CNVRico         .... off

SCF Procedure:
 Maximum # iterations   MaxIter         ....   125
 SCF integral mode      SCFMode         .... Direct
   Integral package                     .... LIBINT
 Reset frequency        DirectResetFreq ....    20
 Integral Threshold     Thresh          ....  1.000e-10 Eh
 Primitive CutOff       TCut            ....  1.000e-11 Eh

Convergence Tolerance:
 Convergence Check Mode ConvCheckMode   .... Total+1el-Energy
 Convergence forced     ConvForced      .... 0
 Energy Change          TolE            ....  1.000e-06 Eh
 1-El. energy change                    ....  1.000e-03 Eh
 DIIS Error             TolErr          ....  1.000e-06


Diagonalization of the overlap matrix:
Smallest eigenvalue                        ... 3.674e-02
Time for diagonalization                   ...    0.001 sec
Threshold for overlap eigenvalues          ... 1.000e-08
Number of eigenvalues below threshold      ... 0
Time for construction of square roots      ...    0.034 sec
Total time needed                          ...    0.035 sec

-------------------
DFT GRID GENERATION
-------------------

General Integration Accuracy     IntAcc      ...  4.670
Radial Grid Type                 RadialGrid  ... Gauss-Chebyshev
Angular Grid (max. acc.)         AngularGrid ... Lebedev-302
Angular grid pruning method      GridPruning ... 3 (G Style)
Weight generation scheme         WeightScheme... Becke
Basis function cutoff            BFCut       ...    1.0000e-10
Integration weight cutoff        WCut        ...    1.0000e-14
Grids for H and He will be reduced by one unit

# of grid points (after initial pruning)     ...   9664 (   0.0 sec)
# of grid points (after weights+screening)   ...   9664 (   0.0 sec)
Grid point division into batches done        ...    0.1 sec
Reduced shell lists constructed in    0.1 sec

Total number of grid points                  ...     9664
Total number of batches                      ...      152
Average number of points per batch           ...       63
Average number of grid points per atom       ...     9664
Average number of shells per batch           ...     3.43 (18.05%)
Average number of basis functions per batch  ...    10.29 (15.35%)
Average number of large shells per batch     ...     3.43 (100.00%)
Average number of large basis fcns per batch ...    10.29 (100.00%)
Maximum spatial batch extension              ...  22.27, 22.27, 22.27 au
Average spatial batch extension              ...   0.77,  0.76,  0.74 au

Time for grid setup =    0.821 sec

------------------------------
INITIAL GUESS: MODEL POTENTIAL
------------------------------
Loading Hartree-Fock densities                     ... done
Calculating cut-offs                               ... done
Setting up the integral package                    ... done
Initializing the effective Hamiltonian             ... done
Starting the Coulomb interaction                   ... done (   0.0 sec)
Reading the grid                                   ... done
Mapping shells                                     ... done
Starting the XC term evaluation                    ... done (   0.0 sec)
  promolecular density results
     # of electrons  =     23.000003052
     EX              =    -43.918520832
     EC              =     -0.944824995
     EX+EC           =    -44.863345827
Transforming the Hamiltonian                       ... done (   0.0 sec)
Diagonalizing the Hamiltonian                      ... done (   0.0 sec)
Back transforming the eigenvectors                 ... done (   0.0 sec)
Now organizing SCF variables                       ... done
                      ------------------
                      INITIAL GUESS DONE (   1.3 sec)
                      ------------------
--------------
SCF ITERATIONS
--------------
ITER       Energy         Delta-E        Max-DP      RMS-DP      [F,P]     Damp
               ***  Starting incremental Fock matrix formation  ***
  0   -943.6347157604   0.000000000000 0.05899228  0.00277531  0.2474458 0.7000
  1   -943.7556076468  -0.120891886385 0.02957096  0.00141494  0.0518402 0.7000
                               ***Turning on DIIS***
  2   -943.7672748511  -0.011667204344 0.03691191  0.00136303  0.0416048 0.0000
  3   -943.8374326282  -0.070157777126 0.02634777  0.00109388  0.0225591 0.0000
  4   -943.8410628044  -0.003630176129 0.00743931  0.00041309  0.0324974 0.0000
  5   -943.8428958176  -0.001833013223 0.00385894  0.00015240  0.0162095 0.0000
  6   -943.8435261914  -0.000630373827 0.00164879  0.00007221  0.0085681 0.0000
  7   -943.8437338507  -0.000207659246 0.00083890  0.00004007  0.0040340 0.0000
  8   -943.8437906510  -0.000056800392 0.00041677  0.00002244  0.0015222 0.0000
  9   -943.8438016373  -0.000010986280 0.40047866  0.00803944  0.0003348 0.0000
 10   -943.8635364657  -0.019734828343 0.00001198  0.00000023  0.1182969 0.7000
 11   -943.8635281920   0.000008273661 0.00001224  0.00000022  0.1183063 0.7000
 12   -943.8635210993   0.000007092748 0.00000376  0.00000008  0.1183134 0.7000
 13   -943.8635209257   0.000000173532 0.00002040  0.00000046  0.1183127 0.7000
 14   -943.8635414199  -0.000020494200 0.06052915  0.00138181  0.1182890 0.7000
 15   -943.8916901469  -0.028148726982 0.18494437  0.00303863  0.0441825 0.0000
 16   -943.9138033027  -0.022113155755 0.01162169  0.00047288  0.0402666 0.0000
 17   -943.9185565797  -0.004753277076 0.00809486  0.00017296  0.0107946 0.0000
 18   -943.9189710689  -0.000414489205 0.00234039  0.00005858  0.0028808 0.0000
 19   -943.9190146237  -0.000043554779 0.00177911  0.00006532  0.0009565 0.0000
               *** Restarting incremental Fock matrix formation ***
                                   *** Resetting DIIS ***
 20   -943.9190299454  -0.000015321693 0.00136786  0.00003940  0.0006146 0.0000
 21   -943.9190349913  -0.000005045909 0.00065607  0.00002021  0.0005405 0.0000
 22   -943.9190378569  -0.000002865612 0.00353441  0.00008703  0.0004570 0.0000
 23   -943.9190489416  -0.000011084697 0.00700485  0.00016971  0.0004129 0.0000
 24   -943.9190633051  -0.000014363448 0.00300370  0.00007222  0.0002022 0.0000
 25   -943.9190667428  -0.000003437769 0.00397708  0.00009551  0.0001233 0.0000
 26   -943.9190684958  -0.000001752954 0.00018215  0.00000464  0.0000747 0.0000
                 **** Energy Check signals convergence ****

               *****************************************************
               *                     SUCCESS                       *
               *           SCF CONVERGED AFTER  27 CYCLES          *
               *****************************************************


----------------
TOTAL SCF ENERGY
----------------

Total Energy       :         -943.91906853 Eh          -25685.34367 eV

Components:
Nuclear Repulsion  :            0.00000000 Eh               0.00000 eV
Electronic Energy  :         -943.91906853 Eh          -25685.34367 eV
One Electron Energy:        -1297.61223535 Eh          -35309.82404 eV
Two Electron Energy:          353.69316682 Eh            9624.48037 eV

Virial components:
Potential Energy   :        -1886.26560635 Eh          -51327.89661 eV
Kinetic Energy     :          942.34653783 Eh           25642.55294 eV
Virial Ratio       :            2.00166874


DFT components:
N(Alpha)           :       13.999999587764 electrons
N(Beta)            :        8.999999670245 electrons
N(Total)           :       22.999999258009 electrons
E(X)               :      -40.045227892610 Eh       
E(C)               :       -0.929656101727 Eh       
E(XC)              :      -40.974883994337 Eh       
DFET-embed. en.    :        0.000000000000 Eh       

---------------
SCF CONVERGENCE
---------------

  Last Energy change         ...   -3.1162e-08  Tolerance :   1.0000e-06
  Last MAX-Density change    ...    7.3572e-05  Tolerance :   1.0000e-05
  Last RMS-Density change    ...    1.8059e-06  Tolerance :   1.0000e-06
  Last DIIS Error            ...    2.5501e-05  Tolerance :   1.0000e-06

             **** THE GBW FILE WAS UPDATED (V.in.gbw) ****
             **** DENSITY FILE WAS UPDATED (V.in.scfp) ****
             **** ENERGY FILE WAS UPDATED (V.in.en.tmp) ****
----------------------
UHF SPIN CONTAMINATION
----------------------

Warning: in a DFT calculation there is little theoretical justification to 
         calculate <S**2> as in Hartree-Fock theory. We will do it anyways
         but you should keep in mind that the values have only limited relevance

Expectation value of <S**2>     :     8.750403
Ideal value S*(S+1) for S=2.5   :     8.750000
Deviation                       :     0.000403

             **** THE GBW FILE WAS UPDATED (V.in.gbw) ****
             **** DENSITY FILE WAS UPDATED (V.in.scfp) ****
----------------
ORBITAL ENERGIES
----------------
                 SPIN UP ORBITALS
  NO   OCC          E(Eh)            E(eV) 
   0   1.0000    -196.560661     -5348.6875 
   1   1.0000     -21.994254      -598.4941 
   2   1.0000     -18.481999      -502.9208 
   3   1.0000     -18.471122      -502.6248 
   4   1.0000     -18.471113      -502.6245 
   5   1.0000      -2.524743       -68.7018 
   6   1.0000      -1.572895       -42.8007 
   7   1.0000      -1.563949       -42.5572 
   8   1.0000      -1.563939       -42.5569 
   9   1.0000      -0.159641        -4.3440 
  10   1.0000      -0.149310        -4.0629 
  11   1.0000      -0.149286        -4.0623 
  12   1.0000      -0.122038        -3.3208 
  13   1.0000      -0.122018        -3.3203 
  14   0.0000      -0.057957        -1.5771 
  15   0.0000      -0.034854        -0.9484 
  16   0.0000      -0.033794        -0.9196 
  17   0.0000      -0.033793        -0.9195 
  18   0.0000       0.068704         1.8695 
  19   0.0000       0.069444         1.8897 
  20   0.0000       0.069446         1.8897 
  21   0.0000       0.085463         2.3256 
  22   0.0000       0.121524         3.3068 
  23   0.0000       0.121528         3.3070 
  24   0.0000       0.126928         3.4539 
  25   0.0000       0.126932         3.4540 
  26   0.0000       0.131074         3.5667 
  27   0.0000       0.388240        10.5646 
  28   0.0000       0.389275        10.5927 
  29   0.0000       0.389278        10.5928 
  30   0.0000       0.611407        16.6372 
  31   0.0000       0.611418        16.6375 
  32   0.0000       0.623980        16.9794 
  33   0.0000       0.623986        16.9795 
  34   0.0000       0.634102        17.2548 
  35   0.0000       1.111573        30.2475 
  36   0.0000       1.111578        30.2476 
  37   0.0000       1.122952        30.5571 
  38   0.0000       1.122964        30.5574 
  39   0.0000       1.128589        30.7105 
  40   0.0000       1.128589        30.7105 
  41   0.0000       1.140309        31.0294 
  42   0.0000       1.722012        46.8583 
  43   0.0000       1.729167        47.0530 
  44   0.0000       1.729176        47.0533 
  45   0.0000       1.887254        51.3548 
  46   0.0000       2.422577        65.9217 
  47   0.0000       2.422594        65.9221 
  48   0.0000       2.441995        66.4501 
  49   0.0000       2.442001        66.4502 
  50   0.0000       2.450154        66.6721 
  51   0.0000       4.138730       112.6206 
  52   0.0000       4.138733       112.6206 
  53   0.0000       4.141401       112.6932 
  54   0.0000       4.141401       112.6932 
  55   0.0000       4.144485       112.7772 
  56   0.0000       4.144499       112.7775 
  57   0.0000       4.154806       113.0580 
  58   0.0000       4.158547       113.1598 
  59   0.0000       4.158547       113.1598 
  60   0.0000       4.599690       125.1639 
  61   0.0000       4.599692       125.1640 
  62   0.0000       4.608153       125.3942 
  63   0.0000       4.608168       125.3946 
  64   0.0000       4.618221       125.6682 
  65   0.0000       4.624145       125.8294 
  66   0.0000       4.624145       125.8294 

                 SPIN DOWN ORBITALS
  NO   OCC          E(Eh)            E(eV) 
   0   1.0000    -196.559606     -5348.6588 
   1   1.0000     -21.952552      -597.3593 
   2   1.0000     -18.452857      -502.1278 
   3   1.0000     -18.433479      -501.6005 
   4   1.0000     -18.433463      -501.6000 
   5   1.0000      -2.391824       -65.0848 
   6   1.0000      -1.458746       -39.6945 
   7   1.0000      -1.410145       -38.3720 
   8   1.0000      -1.410105       -38.3709 
   9   0.0000      -0.048644        -1.3237 
  10   0.0000       0.010269         0.2794 
  11   0.0000       0.031444         0.8556 
  12   0.0000       0.035944         0.9781 
  13   0.0000       0.035989         0.9793 
  14   0.0000       0.038373         1.0442 
  15   0.0000       0.038396         1.0448 
  16   0.0000       0.052001         1.4150 
  17   0.0000       0.052049         1.4163 
  18   0.0000       0.120934         3.2908 
  19   0.0000       0.127385         3.4663 
  20   0.0000       0.127415         3.4671 
  21   0.0000       0.150208         4.0874 
  22   0.0000       0.198859         5.4112 
  23   0.0000       0.206561         5.6208 
  24   0.0000       0.206704         5.6247 
  25   0.0000       0.211638         5.7590 
  26   0.0000       0.211890         5.7658 
  27   0.0000       0.448968        12.2170 
  28   0.0000       0.459933        12.5154 
  29   0.0000       0.460145        12.5212 
  30   0.0000       0.688399        18.7323 
  31   0.0000       0.701082        19.0774 
  32   0.0000       0.701132        19.0788 
  33   0.0000       0.710116        19.3232 
  34   0.0000       0.710258        19.3271 
  35   0.0000       1.191081        32.4110 
  36   0.0000       1.195391        32.5282 
  37   0.0000       1.195407        32.5287 
  38   0.0000       1.203569        32.7508 
  39   0.0000       1.203707        32.7545 
  40   0.0000       1.212005        32.9803 
  41   0.0000       1.212026        32.9809 
  42   0.0000       1.806347        49.1532 
  43   0.0000       1.834055        49.9072 
  44   0.0000       1.834094        49.9082 
  45   0.0000       1.998486        54.3816 
  46   0.0000       2.516962        68.4900 
  47   0.0000       2.541974        69.1706 
  48   0.0000       2.541999        69.1713 
  49   0.0000       2.556352        69.5619 
  50   0.0000       2.556431        69.5640 
  51   0.0000       4.215242       114.7026 
  52   0.0000       4.220388       114.8426 
  53   0.0000       4.220403       114.8430 
  54   0.0000       4.234042       115.2141 
  55   0.0000       4.234043       115.2142 
  56   0.0000       4.249391       115.6318 
  57   0.0000       4.249391       115.6318 
  58   0.0000       4.253389       115.7406 
  59   0.0000       4.253389       115.7406 
  60   0.0000       4.712278       128.2276 
  61   0.0000       4.727681       128.6467 
  62   0.0000       4.727700       128.6473 
  63   0.0000       4.760038       129.5272 
  64   0.0000       4.760061       129.5278 
  65   0.0000       4.765767       129.6831 
  66   0.0000       4.765770       129.6832 

                    ********************************
                    * MULLIKEN POPULATION ANALYSIS *
                    ********************************

--------------------------------------------
MULLIKEN ATOMIC CHARGES AND SPIN POPULATIONS
--------------------------------------------
   0 V :   -0.000000    5.000000
Sum of atomic charges         :   -0.0000000
Sum of atomic spin populations:    5.0000000

-----------------------------------------------------
MULLIKEN REDUCED ORBITAL CHARGES AND SPIN POPULATIONS
-----------------------------------------------------
CHARGE
  0 V s       :     6.999477  s :     6.999477
      pz      :     3.999870  p :    11.999787
      px      :     3.999958
      py      :     3.999959
      dz2     :     0.180455  d :     4.000478
      dxz     :     0.909424
      dyz     :     0.913594
      dx2y2   :     0.999984
      dxy     :     0.997020
      f0      :     0.000103  f :     0.000213
      f+1     :     0.000049
      f-1     :     0.000048
      f+2     :     0.000006
      f-2     :     0.000007
      f+3     :     0.000000
      f-3     :     0.000000
      g0      :     0.000009  g :     0.000045
      g+1     :     0.000007
      g-1     :     0.000007
      g+2     :     0.000008
      g-2     :     0.000009
      g+3     :     0.000002
      g-3     :     0.000002
      g+4     :     0.000000
      g-4     :     0.000000

SPIN
  0 V s       :     0.999883  s :     0.999883
      pz      :     0.000059  p :     0.000020
      px      :    -0.000019
      py      :    -0.000019
      dz2     :     0.180129  d :     4.000080
      dxz     :     0.909388
      dyz     :     0.913560
      dx2y2   :     0.999984
      dxy     :     0.997019
      f0      :    -0.000036  f :    -0.000020
      f+1     :     0.000005
      f-1     :     0.000005
      f+2     :     0.000003
      f-2     :     0.000002
      f+3     :     0.000000
      f-3     :     0.000000
      g0      :     0.000005  g :     0.000037
      g+1     :     0.000005
      g-1     :     0.000005
      g+2     :     0.000008
      g-2     :     0.000008
      g+3     :     0.000002
      g-3     :     0.000002
      g+4     :     0.000000
      g-4     :     0.000000


                     *******************************
                     * LOEWDIN POPULATION ANALYSIS *
                     *******************************

-------------------------------------------
LOEWDIN ATOMIC CHARGES AND SPIN POPULATIONS
-------------------------------------------
   0 V :   -0.000000    5.000000

----------------------------------------------------
LOEWDIN REDUCED ORBITAL CHARGES AND SPIN POPULATIONS
----------------------------------------------------
CHARGE
  0 V s       :     6.999477  s :     6.999477
      pz      :     3.999870  p :    11.999787
      px      :     3.999958
      py      :     3.999959
      dz2     :     0.180455  d :     4.000478
      dxz     :     0.909424
      dyz     :     0.913594
      dx2y2   :     0.999984
      dxy     :     0.997020
      f0      :     0.000103  f :     0.000213
      f+1     :     0.000049
      f-1     :     0.000048
      f+2     :     0.000006
      f-2     :     0.000007
      f+3     :     0.000000
      f-3     :     0.000000
      g0      :     0.000009  g :     0.000045
      g+1     :     0.000007
      g-1     :     0.000007
      g+2     :     0.000008
      g-2     :     0.000009
      g+3     :     0.000002
      g-3     :     0.000002
      g+4     :     0.000000
      g-4     :     0.000000

SPIN
  0 V s       :     0.999883  s :     0.999883
      pz      :     0.000059  p :     0.000020
      px      :    -0.000019
      py      :    -0.000019
      dz2     :     0.180129  d :     4.000080
      dxz     :     0.909388
      dyz     :     0.913560
      dx2y2   :     0.999984
      dxy     :     0.997019
      f0      :    -0.000036  f :    -0.000020
      f+1     :     0.000005
      f-1     :     0.000005
      f+2     :     0.000003
      f-2     :     0.000002
      f+3     :     0.000000
      f-3     :     0.000000
      g0      :     0.000005  g :     0.000037
      g+1     :     0.000005
      g-1     :     0.000005
      g+2     :     0.000008
      g-2     :     0.000008
      g+3     :     0.000002
      g-3     :     0.000002
      g+4     :     0.000000
      g-4     :     0.000000


                      *****************************
                      * MAYER POPULATION ANALYSIS *
                      *****************************

  NA   - Mulliken gross atomic population
  ZA   - Total nuclear charge
  QA   - Mulliken gross atomic charge
  VA   - Mayer's total valence
  BVA  - Mayer's bonded valence
  FA   - Mayer's free valence

  ATOM       NA         ZA         QA         VA         BVA        FA
  0 V     23.0000    23.0000    -0.0000     5.0008     0.0000     5.0008

  Mayer bond orders larger than 0.100000


-------
TIMINGS
-------

Total SCF time: 0 days 0 hours 1 min 29 sec 

Total time                  ....      89.274 sec
Sum of individual times     ....      88.436 sec  ( 99.1%)

Fock matrix formation       ....      85.519 sec  ( 95.8%)
  XC integration            ....      79.426 sec  ( 92.9% of F)
    Basis function eval.    ....       0.020 sec  (  0.0% of XC)
    Density eval.           ....       0.046 sec  (  0.1% of XC)
    XC-Functional eval.     ....       0.043 sec  (  0.1% of XC)
    XC-Potential eval.      ....       0.083 sec  (  0.1% of XC)
Diagonalization             ....       1.278 sec  (  1.4%)
Density matrix formation    ....       0.009 sec  (  0.0%)
Population analysis         ....       0.099 sec  (  0.1%)
Initial guess               ....       0.455 sec  (  0.5%)
Orbital Transformation      ....       0.000 sec  (  0.0%)
Orbital Orthonormalization  ....       0.000 sec  (  0.0%)
DIIS solution               ....       0.255 sec  (  0.3%)
Grid generation             ....       0.821 sec  (  0.9%)


-------------------------------------------------------------------------------
                          DFT DISPERSION CORRECTION                            
                                                                               
                              DFTD3 V3.1  Rev 1                                
                          USING Becke-Johnson damping                          
-------------------------------------------------------------------------------
The TPSSH functional is recognized
Active option DFTDOPT                   ...         4   

molecular C6(AA) [au] = 1116.097907 


            DFT-D V3
 parameters
 s6 scaling factor         :     1.0000 
 a1 scaling factor         :     0.4529 
 s8 scaling factor         :     2.2382 
 a2 scaling factor         :     4.6550 
 ad hoc parameters k1-k3   :    16.0000     1.3333    -4.0000 

 Edisp/kcal,au: -0.000000000000  -0.000000000000 
 E6   /kcal   :  -0.000000000 
 E8   /kcal   :  -0.000000000 
 % E8         :          -nan 

-------------------------   ----------------
Dispersion correction            0.000000000
-------------------------   ----------------


-------------------------   --------------------
FINAL SINGLE POINT ENERGY      -943.919068526964
-------------------------   --------------------


                            ***************************************
                            *     ORCA property calculations      *
                            ***************************************

                                    ---------------------
                                    Active property flags
                                    ---------------------
   (+) Dipole Moment


------------------------------------------------------------------------------
                       ORCA ELECTRIC PROPERTIES CALCULATION
------------------------------------------------------------------------------

Dipole Moment Calculation                       ... on
Quadrupole Moment Calculation                   ... off
Polarizability Calculation                      ... off
GBWName                                         ... V.in.gbw
Electron density file                           ... V.in.scfp
The origin for moment calculation is the CENTER OF MASS  = ( 0.000000,  0.000000  0.000000)

-------------
DIPOLE MOMENT
-------------
                                X             Y             Z
Electronic contribution:      0.00000      -0.00000       0.00000
Nuclear contribution   :      0.00000       0.00000       0.00000
                        -----------------------------------------
Total Dipole Moment    :      0.00000      -0.00000       0.00000
                        -----------------------------------------
Magnitude (a.u.)       :      0.00000
Magnitude (Debye)      :      0.00000



--------------------
Rotational spectrum 
--------------------
 
Rotational constants in cm-1:     0.000000     0.000000     0.000000 
Rotational constants in MHz :     0.000000     0.000000     0.000000 

 Dipole components along the rotational axes: 
x,y,z [a.u.] :     0.000000    -0.000000     0.000000 
x,y,z [Debye]:     0.000000    -0.000000     0.000000 

 

Timings for individual modules:

Sum of individual times         ...       92.335 sec (=   1.539 min)
GTO integral calculation        ...        2.462 sec (=   0.041 min)   2.7 %
SCF iterations                  ...       89.873 sec (=   1.498 min)  97.3 %
                             ****ORCA TERMINATED NORMALLY****
TOTAL RUN TIME: 0 days 0 hours 1 minutes 33 seconds 172 msec
