
                                 *****************
                                 * O   R   C   A *
                                 *****************

           --- An Ab Initio, DFT and Semiempirical electronic structure package ---

                  #######################################################
                  #                        -***-                        #
                  #          Department of theory and spectroscopy      #
                  #               Directorship: Frank Neese             #
                  #        Max Planck Institute fuer Kohlenforschung    #
                  #                Kaiser Wilhelm Platz 1               #
                  #                 D-45470 Muelheim/Ruhr               #
                  #                      Germany                        #
                  #                                                     #
                  #                  All rights reserved                #
                  #                        -***-                        #
                  #######################################################


                         Program Version 4.2.0 -  RELEASE  -


 With contributions from (in alphabetic order):
   Daniel Aravena         : Magnetic Suceptibility
   Michael Atanasov       : Ab Initio Ligand Field Theory (pilot matlab implementation)
   Alexander A. Auer      : GIAO ZORA, VPT2
   Ute Becker             : Parallelization
   Giovanni Bistoni       : ED, misc. LED, open-shell LED, HFLED
   Martin Brehm           : Molecular dynamics
   Dmytro Bykov           : SCF Hessian
   Vijay G. Chilkuri      : MRCI spin determinant printing, contributions to CSF-ICE
   Dipayan Datta          : RHF DLPNO-CCSD density
   Achintya Kumar Dutta   : EOM-CC, STEOM-CC
   Dmitry Ganyushin       : Spin-Orbit,Spin-Spin,Magnetic field MRCI
   Miquel Garcia          : C-PCM Hessian, Gaussian charge scheme
   Yang Guo               : DLPNO-NEVPT2, CIM, IAO-localization
   Andreas Hansen         : Spin unrestricted coupled pair/coupled cluster methods
   Benjamin Helmich-Paris : CASSCF linear response (MC-RPA)
   Lee Huntington         : MR-EOM, pCC
   Robert Izsak           : Overlap fitted RIJCOSX, COSX-SCS-MP3, EOM
   Christian Kollmar      : KDIIS, OOCD, Brueckner-CCSD(T), CCSD density
   Simone Kossmann        : Meta GGA functionals, TD-DFT gradient, OOMP2, MP2 Hessian
   Martin Krupicka        : AUTO-CI
   Lucas Lang             : DCDCAS
   Dagmar Lenk            : GEPOL surface, SMD
   Dimitrios Liakos       : Extrapolation schemes; Compound Job, initial MDCI parallelization
   Dimitrios Manganas     : Further ROCIS development; embedding schemes
   Dimitrios Pantazis     : SARC Basis sets
   Taras Petrenko         : DFT Hessian,TD-DFT gradient, ASA, ECA, R-Raman, ABS, FL, XAS/XES, NRVS
   Peter Pinski           : DLPNO-MP2, DLPNO-MP2 Gradient
   Christoph Reimann      : Effective Core Potentials
   Marius Retegan         : Local ZFS, SOC
   Christoph Riplinger    : Optimizer, TS searches, QM/MM, DLPNO-CCSD(T), (RO)-DLPNO pert. Triples
   Tobias Risthaus        : Range-separated hybrids, TD-DFT gradient, RPA, STAB
   Michael Roemelt        : Original ROCIS implementation
   Masaaki Saitow         : Open-shell DLPNO-CCSD energy and density
   Barbara Sandhoefer     : DKH picture change effects
   Avijit Sen             : IP-ROCIS
   Kantharuban Sivalingam : CASSCF convergence, NEVPT2, FIC-MRCI
   Bernardo de Souza      : ESD, SOC TD-DFT
   Georgi Stoychev        : AutoAux, RI-MP2 NMR
   Willem Van den Heuvel  : Paramagnetic NMR
   Boris Wezisla          : Elementary symmetry handling
   Frank Wennmohs         : Technical directorship


 We gratefully acknowledge several colleagues who have allowed us to
 interface, adapt or use parts of their codes:
   Stefan Grimme, W. Hujo, H. Kruse,             : VdW corrections, initial TS optimization,
                  C. Bannwarth                     DFT functionals, gCP, sTDA/sTD-DF
   Ed Valeev, F. Pavosevic, A. Kumar             : LibInt (2-el integral package), F12 methods
   Garnet Chan, S. Sharma, J. Yang, R. Olivares  : DMRG
   Ulf Ekstrom                                   : XCFun DFT Library
   Mihaly Kallay                                 : mrcc  (arbitrary order and MRCC methods)
   Andreas Klamt, Michael Diedenhofen            : otool_cosmo (COSMO solvation model)
   Jiri Pittner, Ondrej Demel                    : Mk-CCSD
   Frank Weinhold                                : gennbo (NPA and NBO analysis)
   Christopher J. Cramer and Donald G. Truhlar   : smd solvation model
   Lars Goerigk                                  : TD-DFT with DH, B97 family of functionals
   V. Asgeirsson, H. Jonsson                     : NEB implementation
   FAccTs GmbH                                   : IRC, NEB, NEB-TS, Multilevel, MM, QM/MM, CI optimization
   S Lehtola, MJT Oliveira, MAL Marques          : LibXC Library


 Your calculation uses the libint2 library for the computation of 2-el integrals
 For citations please refer to: http://libint.valeyev.net

 Your ORCA version has been built with support for libXC version: 4.2.3
 For citations please refer to: https://tddft.org/programs/libxc/

 This ORCA versions uses:
   CBLAS   interface :  Fast vector & matrix operations
   LAPACKE interface :  Fast linear algebra routines
   SCALAPACK package :  Parallel linear algebra routines


Your calculation utilizes the atom-pairwise dispersion correction
with the Becke-Johnson damping scheme (D3BJ)
Cite in your paper:
S.Grimme, S.Ehrlich, L.Goerigk, J Comput Chem, (2011), 32, 1456–1465 
S.Grimme, J.Antony, S.Ehrlich and H.Krieg, J.Chem.Phys., 132, (2010), 154104 
   

----- Orbital basis set information -----
Your calculation utilizes the basis: def2-TZVPPD
   F. Weigend and R. Ahlrichs, Phys. Chem. Chem. Phys. 7, 3297 (2005).
   D. Rappoport and F. Furche, J. Chem. Phys. 133 134105 (2010).

----- AuxJK basis set information -----
Your calculation utilizes the auxiliary basis: def2/JK
   H-Ba, Hf-Rn: F. Weigend, J. Comput. Chem. 29, 167 (2008).

================================================================================
                                        WARNINGS
                       Please study these warnings very carefully!
================================================================================


WARNING: your system is open-shell and RHF/RKS was chosen
  ===> : WILL SWITCH to UHF/UKS


INFO   : the flag for use of LIBINT has been found!

================================================================================
                                       INPUT FILE
================================================================================
NAME = V2.in
|  1> #
|  2> # V2 TPSSh-D3BJ/Def2-TZVPPD
|  3> #
|  4> ! tpssh d3bj def2-tzvppd def2/jk grid4 nofinalgrid
|  5> 
|  6> *xyz 0 3
|  7> V          0.00000        0.00000        0.00000
|  8> V          0.00000        0.00000        1.77000
|  9> *
| 10> 
| 11> %maxcore 5000
| 12> 
| 13> %pal
| 14> nprocs = 28
| 15> end
| 16> 
| 17> 
| 18>                          ****END OF INPUT****
================================================================================

                       ****************************
                       * Single Point Calculation *
                       ****************************

---------------------------------
CARTESIAN COORDINATES (ANGSTROEM)
---------------------------------
  V      0.000000    0.000000    0.000000
  V      0.000000    0.000000    1.770000

----------------------------
CARTESIAN COORDINATES (A.U.)
----------------------------
  NO LB      ZA    FRAG     MASS         X           Y           Z
   0 V    23.0000    0    50.940    0.000000    0.000000    0.000000
   1 V    23.0000    0    50.940    0.000000    0.000000    3.344815

--------------------------------
INTERNAL COORDINATES (ANGSTROEM)
--------------------------------
 V      0   0   0     0.000000000000     0.00000000     0.00000000
 V      1   0   0     1.770000000000     0.00000000     0.00000000

---------------------------
INTERNAL COORDINATES (A.U.)
---------------------------
 V      0   0   0     0.000000000000     0.00000000     0.00000000
 V      1   0   0     3.344815257041     0.00000000     0.00000000

---------------------
BASIS SET INFORMATION
---------------------
There are 1 groups of distinct atoms

 Group   1 Type V   : 17s13p7d2f1g contracted to 6s6p4d2f1g pattern {842111/631111/4111/11/1}

Atom   0V    basis set group =>   1
Atom   1V    basis set group =>   1
----------------------------------
AUXILIARY/JK BASIS SET INFORMATION
----------------------------------
There are 1 groups of distinct atoms

 Group   1 Type V   : 19s14p12d10f7g3h1i contracted to 16s13p11d9f5g3h1i pattern {4111111111111111/2111111111111/21111111111/211111111/31111/111/1}

Atom   0V    basis set group =>   1
Atom   1V    basis set group =>   1


           ************************************************************
           *        Program running with 28 parallel MPI-processes    *
           *              working on a common directory               *
           ************************************************************
------------------------------------------------------------------------------
                           ORCA GTO INTEGRAL CALCULATION
------------------------------------------------------------------------------

                         BASIS SET STATISTICS AND STARTUP INFO

 # of primitive gaussian shells          ...   80
 # of primitive gaussian functions       ...  228
 # of contracted shells                  ...   38
 # of contracted basis functions         ...  134
 Highest angular momentum                ...    4
 Maximum contraction depth               ...    8
 Integral package used                   ... LIBINT
 Integral threshhold            Thresh   ...  1.000e-10
 Primitive cut-off              TCut     ...  1.000e-11


------------------------------ INTEGRAL EVALUATION ----------------------------


 * One electron integrals 
 Pre-screening matrix                    ... done
 Shell pair data                         ... done (   0.000 sec)



           ************************************************************
           *        Program running with 28 parallel MPI-processes    *
           *              working on a common directory               *
           ************************************************************
-------------------------------------------------------------------------------
                                 ORCA SCF
-------------------------------------------------------------------------------

------------
SCF SETTINGS
------------
Hamiltonian:
 Density Functional     Method          .... DFT(GTOs)
 Exchange Functional    Exchange        .... TPSS
 Correlation Functional Correlation     .... TPSS
 LDA part of GGA corr.  LDAOpt          .... PW91-LDA
 Gradients option       PostSCFGGA      .... off
 Hybrid DFT is turned on
   Fraction HF Exchange ScalHFX         ....  0.100000
   Scaling of DF-GGA-X  ScalDFX         ....  0.900000
   Scaling of DF-GGA-C  ScalDFC         ....  1.000000
   Scaling of DF-LDA-C  ScalLDAC        ....  1.000000
   Perturbative correction              ....  0.000000
   Density functional embedding theory  .... OFF
   NL short-range parameter             ....  5.200000


General Settings:
 Integral files         IntName         .... V2
 Hartree-Fock type      HFTyp           .... UHF
 Total Charge           Charge          ....    0
 Multiplicity           Mult            ....    3
 Number of Electrons    NEL             ....   46
 Basis Dimension        Dim             ....  134
 Nuclear Repulsion      ENuc            ....    158.1552221416 Eh

Convergence Acceleration:
 DIIS                   CNVDIIS         .... on
   Start iteration      DIISMaxIt       ....    12
   Startup error        DIISStart       ....  0.200000
   # of expansion vecs  DIISMaxEq       ....     5
   Bias factor          DIISBfac        ....   1.050
   Max. coefficient     DIISMaxC        ....  10.000
 Newton-Raphson         CNVNR           .... off
 SOSCF                  CNVSOSCF        .... off
 Level Shifting         CNVShift        .... on
   Level shift para.    LevelShift      ....    0.2500
   Turn off err/grad.   ShiftErr        ....    0.0010
 Zerner damping         CNVZerner       .... off
 Static damping         CNVDamp         .... on
   Fraction old density DampFac         ....    0.7000
   Max. Damping (<1)    DampMax         ....    0.9800
   Min. Damping (>=0)   DampMin         ....    0.0000
   Turn off err/grad.   DampErr         ....    0.1000
 Fernandez-Rico         CNVRico         .... off

SCF Procedure:
 Maximum # iterations   MaxIter         ....   125
 SCF integral mode      SCFMode         .... Direct
   Integral package                     .... LIBINT
 Reset frequency        DirectResetFreq ....    20
 Integral Threshold     Thresh          ....  1.000e-10 Eh
 Primitive CutOff       TCut            ....  1.000e-11 Eh

Convergence Tolerance:
 Convergence Check Mode ConvCheckMode   .... Total+1el-Energy
 Convergence forced     ConvForced      .... 0
 Energy Change          TolE            ....  1.000e-06 Eh
 1-El. energy change                    ....  1.000e-03 Eh
 DIIS Error             TolErr          ....  1.000e-06


Diagonalization of the overlap matrix:
Smallest eigenvalue                        ... 7.006e-05
Time for diagonalization                   ...    0.003 sec
Threshold for overlap eigenvalues          ... 1.000e-08
Number of eigenvalues below threshold      ... 0
Time for construction of square roots      ...    0.045 sec
Total time needed                          ...    0.049 sec

-------------------
DFT GRID GENERATION
-------------------

General Integration Accuracy     IntAcc      ...  4.670
Radial Grid Type                 RadialGrid  ... Gauss-Chebyshev
Angular Grid (max. acc.)         AngularGrid ... Lebedev-302
Angular grid pruning method      GridPruning ... 3 (G Style)
Weight generation scheme         WeightScheme... Becke
Basis function cutoff            BFCut       ...    1.0000e-10
Integration weight cutoff        WCut        ...    1.0000e-14
Grids for H and He will be reduced by one unit

# of grid points (after initial pruning)     ...  19328 (   0.0 sec)
# of grid points (after weights+screening)   ...  19286 (   0.0 sec)
nearest neighbour list constructed           ...    0.0 sec
Grid point re-assignment to atoms done       ...    0.0 sec
Grid point division into batches done        ...    0.2 sec
Reduced shell lists constructed in    0.2 sec

Total number of grid points                  ...    19286
Total number of batches                      ...      302
Average number of points per batch           ...       63
Average number of grid points per atom       ...     9643
Average number of shells per batch           ...     7.67 (20.18%)
Average number of basis functions per batch  ...    21.83 (16.29%)
Average number of large shells per batch     ...     6.25 (81.52%)
Average number of large basis fcns per batch ...    17.92 (82.06%)
Maximum spatial batch extension              ...  24.19, 24.19, 15.73 au
Average spatial batch extension              ...   0.70,  0.70,  0.51 au

Time for grid setup =    1.128 sec

------------------------------
INITIAL GUESS: MODEL POTENTIAL
------------------------------
Loading Hartree-Fock densities                     ... done
Calculating cut-offs                               ... done
Setting up the integral package                    ... done
Initializing the effective Hamiltonian             ... done
Starting the Coulomb interaction                   ... done (   0.0 sec)
Reading the grid                                   ... done
Mapping shells                                     ... done
Starting the XC term evaluation                    ... done (   0.0 sec)
  promolecular density results
     # of electrons  =     45.999999476
     EX              =    -88.034845266
     EC              =     -1.931542019
     EX+EC           =    -89.966387284
Transforming the Hamiltonian                       ... done (   0.0 sec)
Diagonalizing the Hamiltonian                      ... done (   0.0 sec)
Back transforming the eigenvectors                 ... done (   0.0 sec)
Now organizing SCF variables                       ... done
                      ------------------
                      INITIAL GUESS DONE (   1.3 sec)
                      ------------------
--------------
SCF ITERATIONS
--------------
ITER       Energy         Delta-E        Max-DP      RMS-DP      [F,P]     Damp
               ***  Starting incremental Fock matrix formation  ***
  0  -1887.5324305970   0.000000000000 0.05810882  0.00165629  0.2110015 0.7000
  1  -1887.7174358758  -0.185005278823 0.04760048  0.00110651  0.0552233 0.7000
                               ***Turning on DIIS***
  2  -1887.7539891782  -0.036553302442 0.10666854  0.00194041  0.0347368 0.0000
  3  -1887.8559646781  -0.101975499852 0.02668930  0.00074541  0.0519739 0.0000
  4  -1887.8738595519  -0.017894873808 0.01106940  0.00040149  0.0303940 0.0000
  5  -1887.8792285095  -0.005368957559 0.00714015  0.00018514  0.0058465 0.0000
  6  -1887.8803024045  -0.001073895087 0.00604398  0.00015771  0.0049110 0.0000
  7  -1887.8811173820  -0.000814977472 0.00498952  0.00014943  0.0044315 0.0000
  8  -1887.8818341348  -0.000716752736 0.00580839  0.00017538  0.0042853 0.0000
  9  -1887.8825010233  -0.000666888509 0.00386963  0.00009832  0.0044633 0.0000
 10  -1887.8829234792  -0.000422455943 0.00453811  0.00013443  0.0037790 0.0000
 11  -1887.8832263729  -0.000302893665 0.00305951  0.00007300  0.0090653 0.0000
 12  -1887.8835436027  -0.000317229824 0.00288512  0.00008165  0.0037594 0.0000
 13  -1887.8837515321  -0.000207929424 0.00284475  0.00008584  0.0027074 0.0000
 14  -1887.8838952537  -0.000143721569 0.00169960  0.00005055  0.0026776 0.0000
 15  -1887.8839931377  -0.000097884005 0.00121929  0.00003319  0.0017781 0.0000
 16  -1887.8840530059  -0.000059868227 0.00169250  0.00005094  0.0015190 0.0000
 17  -1887.8841094548  -0.000056448856 0.00110827  0.00002920  0.0016033 0.0000
 18  -1887.8841480752  -0.000038620391 0.00089186  0.00002326  0.0018941 0.0000
 19  -1887.8841783280  -0.000030252824 0.00108248  0.00002711  0.0010843 0.0000
               *** Restarting incremental Fock matrix formation ***
                                   *** Resetting DIIS ***
 20  -1887.8841992584  -0.000020930429 0.00356589  0.00008373  0.0009728 0.0000
 21  -1887.8841897142   0.000009544215 0.00043022  0.00001259  0.0047161 0.0000
 22  -1887.8842240562  -0.000034342025 0.00026847  0.00000725  0.0023255 0.0000
 23  -1887.8842357303  -0.000011674036 0.00028016  0.00000676  0.0015254 0.0000
 24  -1887.8842421471  -0.000006416854 0.00034874  0.00000786  0.0011274 0.0000
 25  -1887.8842468554  -0.000004708326 0.00093026  0.00002420  0.0005804 0.0000
 26  -1887.8842527963  -0.000005940867 0.00055606  0.00001484  0.0004588 0.0000
 27  -1887.8842466006   0.000006195677 0.00009203  0.00000258  0.0025441 0.0000
 28  -1887.8842511454  -0.000004544804 0.00009286  0.00000211  0.0016408 0.0000
 29  -1887.8842531395  -0.000001994027 0.00009966  0.00000213  0.0010624 0.0000
 30  -1887.8842542678  -0.000001128345 0.00017366  0.00000341  0.0005147 0.0000
 31  -1887.8842545479  -0.000000280059 0.00011400  0.00000250  0.0003377 0.0000
 32  -1887.8842547635  -0.000000215659 0.00011990  0.00000242  0.0000376 0.0000
 33  -1887.8842548617  -0.000000098147 0.00009754  0.00000163  0.0000764 0.0000
                 **** Energy Check signals convergence ****

               *****************************************************
               *                     SUCCESS                       *
               *           SCF CONVERGED AFTER  34 CYCLES          *
               *****************************************************


----------------
TOTAL SCF ENERGY
----------------

Total Energy       :        -1887.88425497 Eh          -51371.94228 eV

Components:
Nuclear Repulsion  :          158.15522214 Eh            4303.62239 eV
Electronic Energy  :        -2046.03947711 Eh          -55675.56466 eV
One Electron Energy:        -2909.58118501 Eh          -79173.72916 eV
Two Electron Energy:          863.54170790 Eh           23498.16450 eV

Virial components:
Potential Energy   :        -3772.08251665 Eh         -102643.58358 eV
Kinetic Energy     :         1884.19826168 Eh           51271.64130 eV
Virial Ratio       :            2.00195627


DFT components:
N(Alpha)           :       24.000002497782 electrons
N(Beta)            :       22.000003032920 electrons
N(Total)           :       46.000005530702 electrons
E(X)               :      -79.883054390657 Eh       
E(C)               :       -1.962671555762 Eh       
E(XC)              :      -81.845725946420 Eh       
DFET-embed. en.    :        0.000000000000 Eh       

---------------
SCF CONVERGENCE
---------------

  Last Energy change         ...   -1.0780e-07  Tolerance :   1.0000e-06
  Last MAX-Density change    ...    1.6123e-04  Tolerance :   1.0000e-05
  Last RMS-Density change    ...    2.8604e-06  Tolerance :   1.0000e-06
  Last DIIS Error            ...    5.2747e-05  Tolerance :   1.0000e-06

             **** THE GBW FILE WAS UPDATED (V2.gbw) ****
             **** DENSITY FILE WAS UPDATED (V2.scfp) ****
             **** ENERGY FILE WAS UPDATED (V2.en.tmp) ****
----------------------
UHF SPIN CONTAMINATION
----------------------

Warning: in a DFT calculation there is little theoretical justification to 
         calculate <S**2> as in Hartree-Fock theory. We will do it anyways
         but you should keep in mind that the values have only limited relevance

Expectation value of <S**2>     :     2.004061
Ideal value S*(S+1) for S=1.0   :     2.000000
Deviation                       :     0.004061

             **** THE GBW FILE WAS UPDATED (V2.gbw) ****
             **** DENSITY FILE WAS UPDATED (V2.scfp) ****
----------------
ORBITAL ENERGIES
----------------
                 SPIN UP ORBITALS
  NO   OCC          E(Eh)            E(eV) 
   0   1.0000    -196.614020     -5350.1395 
   1   1.0000    -196.613999     -5350.1389 
   2   1.0000     -22.035564      -599.6182 
   3   1.0000     -22.035498      -599.6164 
   4   1.0000     -18.519141      -503.9315 
   5   1.0000     -18.519141      -503.9315 
   6   1.0000     -18.519118      -503.9308 
   7   1.0000     -18.519118      -503.9308 
   8   1.0000     -18.516536      -503.8606 
   9   1.0000     -18.516504      -503.8597 
  10   1.0000      -2.550222       -69.3951 
  11   1.0000      -2.493248       -67.8447 
  12   1.0000      -1.650352       -44.9084 
  13   1.0000      -1.572277       -42.7838 
  14   1.0000      -1.572277       -42.7838 
  15   1.0000      -1.539822       -41.9007 
  16   1.0000      -1.539822       -41.9007 
  17   1.0000      -1.473833       -40.1050 
  18   1.0000      -0.196651        -5.3511 
  19   1.0000      -0.194300        -5.2872 
  20   1.0000      -0.194300        -5.2872 
  21   1.0000      -0.158392        -4.3101 
  22   1.0000      -0.140627        -3.8267 
  23   1.0000      -0.127661        -3.4738 
  24   0.0000      -0.076471        -2.0809 
  25   0.0000      -0.047231        -1.2852 
  26   0.0000      -0.039054        -1.0627 
  27   0.0000      -0.039054        -1.0627 
  28   0.0000      -0.032922        -0.8958 
  29   0.0000      -0.015188        -0.4133 
  30   0.0000      -0.015188        -0.4133 
  31   0.0000       0.010363         0.2820 
  32   0.0000       0.010700         0.2912 
  33   0.0000       0.033337         0.9071 
  34   0.0000       0.049950         1.3592 
  35   0.0000       0.049950         1.3592 
  36   0.0000       0.068776         1.8715 
  37   0.0000       0.068776         1.8715 
  38   0.0000       0.095498         2.5986 
  39   0.0000       0.105167         2.8617 
  40   0.0000       0.124293         3.3822 
  41   0.0000       0.126145         3.4326 
  42   0.0000       0.141705         3.8560 
  43   0.0000       0.155942         4.2434 
  44   0.0000       0.155942         4.2434 
  45   0.0000       0.169446         4.6108 
  46   0.0000       0.169446         4.6108 
  47   0.0000       0.183003         4.9798 
  48   0.0000       0.183976         5.0062 
  49   0.0000       0.190256         5.1771 
  50   0.0000       0.246237         6.7004 
  51   0.0000       0.247827         6.7437 
  52   0.0000       0.247827         6.7437 
  53   0.0000       0.383010        10.4222 
  54   0.0000       0.383010        10.4222 
  55   0.0000       0.397569        10.8184 
  56   0.0000       0.436380        11.8745 
  57   0.0000       0.478897        13.0314 
  58   0.0000       0.478897        13.0314 
  59   0.0000       0.600761        16.3475 
  60   0.0000       0.608188        16.5496 
  61   0.0000       0.626318        17.0430 
  62   0.0000       0.681427        18.5426 
  63   0.0000       0.681427        18.5426 
  64   0.0000       0.704631        19.1740 
  65   0.0000       0.710062        19.3218 
  66   0.0000       0.757618        20.6158 
  67   0.0000       0.797356        21.6971 
  68   0.0000       0.803133        21.8544 
  69   0.0000       0.803133        21.8544 
  70   0.0000       1.033189        28.1145 
  71   0.0000       1.038591        28.2615 
  72   0.0000       1.071703        29.1625 
  73   0.0000       1.071703        29.1625 
  74   0.0000       1.249064        33.9888 
  75   0.0000       1.249064        33.9888 
  76   0.0000       1.264751        34.4156 
  77   0.0000       1.264751        34.4156 
  78   0.0000       1.398175        38.0463 
  79   0.0000       1.400402        38.1069 
  80   0.0000       1.534457        41.7547 
  81   0.0000       1.540055        41.9070 
  82   0.0000       1.642706        44.7003 
  83   0.0000       1.748507        47.5793 
  84   0.0000       1.748507        47.5793 
  85   0.0000       1.753276        47.7091 
  86   0.0000       1.753276        47.7091 
  87   0.0000       1.918344        52.2008 
  88   0.0000       1.918344        52.2008 
  89   0.0000       2.002237        54.4836 
  90   0.0000       2.377866        64.7050 
  91   0.0000       2.377866        64.7050 
  92   0.0000       2.385612        64.9158 
  93   0.0000       2.407471        65.5106 
  94   0.0000       2.418053        65.7986 
  95   0.0000       2.489217        67.7350 
  96   0.0000       2.500165        68.0329 
  97   0.0000       2.545080        69.2551 
  98   0.0000       2.770118        75.3787 
  99   0.0000       2.786160        75.8153 
 100   0.0000       2.786160        75.8153 
 101   0.0000       3.653588        99.4192 
 102   0.0000       3.840745       104.5120 
 103   0.0000       3.848135       104.7131 
 104   0.0000       3.912467       106.4636 
 105   0.0000       3.912467       106.4636 
 106   0.0000       3.985755       108.4579 
 107   0.0000       4.014822       109.2489 
 108   0.0000       4.014822       109.2489 
 109   0.0000       4.148193       112.8781 
 110   0.0000       4.148304       112.8811 
 111   0.0000       4.185022       113.8802 
 112   0.0000       4.185108       113.8826 
 113   0.0000       4.315998       117.4443 
 114   0.0000       4.315998       117.4443 
 115   0.0000       4.591562       124.9428 
 116   0.0000       4.601638       125.2169 
 117   0.0000       4.605934       125.3338 
 118   0.0000       4.605934       125.3338 
 119   0.0000       4.630402       125.9996 
 120   0.0000       4.649646       126.5233 
 121   0.0000       4.661193       126.8375 
 122   0.0000       4.668192       127.0280 
 123   0.0000       4.668192       127.0280 
 124   0.0000       4.797829       130.5556 
 125   0.0000       4.797829       130.5556 
 126   0.0000       4.949124       134.6725 
 127   0.0000       4.958037       134.9150 
 128   0.0000       5.000267       136.0642 
 129   0.0000       5.000267       136.0642 
 130   0.0000       5.437125       147.9517 
 131   0.0000       5.437125       147.9517 
 132   0.0000       5.504853       149.7947 
 133   0.0000       5.573377       151.6593 

                 SPIN DOWN ORBITALS
  NO   OCC          E(Eh)            E(eV) 
   0   1.0000    -196.613620     -5350.1286 
   1   1.0000    -196.613598     -5350.1280 
   2   1.0000     -22.026359      -599.3677 
   3   1.0000     -22.026273      -599.3654 
   4   1.0000     -18.511476      -503.7229 
   5   1.0000     -18.511476      -503.7229 
   6   1.0000     -18.511417      -503.7213 
   7   1.0000     -18.511417      -503.7213 
   8   1.0000     -18.508845      -503.6513 
   9   1.0000     -18.508808      -503.6503 
  10   1.0000      -2.519973       -68.5720 
  11   1.0000      -2.462984       -67.0212 
  12   1.0000      -1.622211       -44.1426 
  13   1.0000      -1.537181       -41.8288 
  14   1.0000      -1.537181       -41.8288 
  15   1.0000      -1.504522       -40.9401 
  16   1.0000      -1.504522       -40.9401 
  17   1.0000      -1.449484       -39.4425 
  18   1.0000      -0.179856        -4.8941 
  19   1.0000      -0.179856        -4.8941 
  20   1.0000      -0.158450        -4.3116 
  21   1.0000      -0.119528        -3.2525 
  22   0.0000      -0.093077        -2.5327 
  23   0.0000      -0.055364        -1.5065 
  24   0.0000      -0.054009        -1.4697 
  25   0.0000      -0.031103        -0.8464 
  26   0.0000      -0.031103        -0.8464 
  27   0.0000      -0.021978        -0.5981 
  28   0.0000      -0.001417        -0.0385 
  29   0.0000      -0.001417        -0.0385 
  30   0.0000       0.020947         0.5700 
  31   0.0000       0.026368         0.7175 
  32   0.0000       0.036942         1.0052 
  33   0.0000       0.057326         1.5599 
  34   0.0000       0.057326         1.5599 
  35   0.0000       0.063583         1.7302 
  36   0.0000       0.074446         2.0258 
  37   0.0000       0.074446         2.0258 
  38   0.0000       0.105037         2.8582 
  39   0.0000       0.121649         3.3102 
  40   0.0000       0.127989         3.4828 
  41   0.0000       0.138871         3.7789 
  42   0.0000       0.148976         4.0538 
  43   0.0000       0.164196         4.4680 
  44   0.0000       0.164196         4.4680 
  45   0.0000       0.177105         4.8193 
  46   0.0000       0.177105         4.8193 
  47   0.0000       0.186367         5.0713 
  48   0.0000       0.193623         5.2688 
  49   0.0000       0.212571         5.7844 
  50   0.0000       0.255765         6.9597 
  51   0.0000       0.255765         6.9597 
  52   0.0000       0.256311         6.9746 
  53   0.0000       0.393322        10.7028 
  54   0.0000       0.393322        10.7028 
  55   0.0000       0.410472        11.1695 
  56   0.0000       0.454622        12.3709 
  57   0.0000       0.490637        13.3509 
  58   0.0000       0.490637        13.3509 
  59   0.0000       0.612889        16.6775 
  60   0.0000       0.633155        17.2290 
  61   0.0000       0.654115        17.7994 
  62   0.0000       0.695792        18.9335 
  63   0.0000       0.695792        18.9335 
  64   0.0000       0.715260        19.4632 
  65   0.0000       0.735002        20.0004 
  66   0.0000       0.780200        21.2303 
  67   0.0000       0.810975        22.0678 
  68   0.0000       0.820181        22.3183 
  69   0.0000       0.820181        22.3183 
  70   0.0000       1.043197        28.3868 
  71   0.0000       1.059343        28.8262 
  72   0.0000       1.092463        29.7274 
  73   0.0000       1.092463        29.7274 
  74   0.0000       1.270360        34.5683 
  75   0.0000       1.270360        34.5683 
  76   0.0000       1.292456        35.1695 
  77   0.0000       1.292456        35.1695 
  78   0.0000       1.427304        38.8389 
  79   0.0000       1.429385        38.8955 
  80   0.0000       1.545049        42.0429 
  81   0.0000       1.558598        42.4116 
  82   0.0000       1.667906        45.3860 
  83   0.0000       1.769867        48.1605 
  84   0.0000       1.769867        48.1605 
  85   0.0000       1.776163        48.3318 
  86   0.0000       1.776163        48.3318 
  87   0.0000       1.941626        52.8343 
  88   0.0000       1.941626        52.8343 
  89   0.0000       2.031080        55.2685 
  90   0.0000       2.396372        65.2086 
  91   0.0000       2.396372        65.2086 
  92   0.0000       2.427261        66.0491 
  93   0.0000       2.430200        66.1291 
  94   0.0000       2.448966        66.6398 
  95   0.0000       2.511952        68.3537 
  96   0.0000       2.532399        68.9101 
  97   0.0000       2.574530        70.0565 
  98   0.0000       2.800835        76.2146 
  99   0.0000       2.800983        76.2186 
 100   0.0000       2.800983        76.2186 
 101   0.0000       3.674204        99.9802 
 102   0.0000       3.862795       105.1120 
 103   0.0000       3.873104       105.3925 
 104   0.0000       3.945732       107.3688 
 105   0.0000       3.945732       107.3688 
 106   0.0000       4.025928       109.5511 
 107   0.0000       4.029515       109.6487 
 108   0.0000       4.029515       109.6487 
 109   0.0000       4.174697       113.5993 
 110   0.0000       4.176594       113.6509 
 111   0.0000       4.211519       114.6013 
 112   0.0000       4.213374       114.6517 
 113   0.0000       4.331861       117.8759 
 114   0.0000       4.331861       117.8759 
 115   0.0000       4.611122       125.4750 
 116   0.0000       4.622597       125.7873 
 117   0.0000       4.649266       126.5130 
 118   0.0000       4.649266       126.5130 
 119   0.0000       4.667522       127.0097 
 120   0.0000       4.669895       127.0743 
 121   0.0000       4.681949       127.4023 
 122   0.0000       4.709779       128.1596 
 123   0.0000       4.709779       128.1596 
 124   0.0000       4.832222       131.4914 
 125   0.0000       4.832222       131.4915 
 126   0.0000       4.968094       135.1887 
 127   0.0000       4.976338       135.4131 
 128   0.0000       5.033330       136.9639 
 129   0.0000       5.033330       136.9639 
 130   0.0000       5.463384       148.6662 
 131   0.0000       5.463384       148.6662 
 132   0.0000       5.541957       150.8043 
 133   0.0000       5.619950       152.9266 

                    ********************************
                    * MULLIKEN POPULATION ANALYSIS *
                    ********************************

--------------------------------------------
MULLIKEN ATOMIC CHARGES AND SPIN POPULATIONS
--------------------------------------------
   0 V :   -0.000067    1.005316
   1 V :    0.000067    0.994684
Sum of atomic charges         :   -0.0000000
Sum of atomic spin populations:    2.0000000

-----------------------------------------------------
MULLIKEN REDUCED ORBITAL CHARGES AND SPIN POPULATIONS
-----------------------------------------------------
CHARGE
  0 V s       :     6.840752  s :     6.840752
      pz      :     4.018574  p :    12.051744
      px      :     4.016585
      py      :     4.016585
      dz2     :     0.630649  d :     4.077096
      dxz     :     0.976034
      dyz     :     0.976034
      dx2y2   :     0.995813
      dxy     :     0.498566
      f0      :     0.009048  f :     0.027812
      f+1     :     0.006649
      f-1     :     0.006649
      f+2     :     0.003610
      f-2     :     0.001816
      f+3     :     0.000020
      f-3     :     0.000020
      g0      :     0.001062  g :     0.002664
      g+1     :     0.000641
      g-1     :     0.000641
      g+2     :     0.000225
      g-2     :     0.000085
      g+3     :     0.000002
      g-3     :     0.000002
      g+4     :     0.000007
      g-4     :     0.000000
  1 V s       :     6.840745  s :     6.840745
      pz      :     4.018545  p :    12.051714
      px      :     4.016585
      py      :     4.016585
      dz2     :     0.630502  d :     4.077001
      dxz     :     0.976175
      dyz     :     0.976175
      dx2y2   :     0.996521
      dxy     :     0.497628
      f0      :     0.009047  f :     0.027809
      f+1     :     0.006648
      f-1     :     0.006648
      f+2     :     0.003607
      f-2     :     0.001819
      f+3     :     0.000020
      f-3     :     0.000020
      g0      :     0.001062  g :     0.002664
      g+1     :     0.000641
      g-1     :     0.000641
      g+2     :     0.000225
      g-2     :     0.000085
      g+3     :     0.000002
      g-3     :     0.000002
      g+4     :     0.000007
      g-4     :     0.000000

SPIN
  0 V s       :     0.141237  s :     0.141237
      pz      :     0.002820  p :    -0.000421
      px      :    -0.001621
      py      :    -0.001621
      dz2     :     0.356380  d :     0.862490
      dxz     :     0.002067
      dyz     :     0.002067
      dx2y2   :     0.003409
      dxy     :     0.498566
      f0      :     0.000198  f :     0.001584
      f+1     :    -0.000115
      f-1     :    -0.000115
      f+2     :    -0.000173
      f-2     :     0.001816
      f+3     :    -0.000014
      f-3     :    -0.000014
      g0      :     0.000221  g :     0.000426
      g+1     :     0.000076
      g-1     :     0.000076
      g+2     :    -0.000026
      g-2     :     0.000085
      g+3     :    -0.000001
      g-3     :    -0.000001
      g+4     :    -0.000004
      g-4     :    -0.000000
  1 V s       :     0.140033  s :     0.140033
      pz      :     0.002834  p :    -0.000407
      px      :    -0.001620
      py      :    -0.001620
      dz2     :     0.355863  d :     0.853015
      dxz     :     0.001277
      dyz     :     0.001277
      dx2y2   :    -0.003030
      dxy     :     0.497628
      f0      :     0.000200  f :     0.001614
      f+1     :    -0.000111
      f-1     :    -0.000111
      f+2     :    -0.000155
      f-2     :     0.001819
      f+3     :    -0.000014
      f-3     :    -0.000014
      g0      :     0.000222  g :     0.000429
      g+1     :     0.000076
      g-1     :     0.000076
      g+2     :    -0.000025
      g-2     :     0.000085
      g+3     :    -0.000001
      g-3     :    -0.000001
      g+4     :    -0.000004
      g-4     :     0.000000


                     *******************************
                     * LOEWDIN POPULATION ANALYSIS *
                     *******************************

-------------------------------------------
LOEWDIN ATOMIC CHARGES AND SPIN POPULATIONS
-------------------------------------------
   0 V :   -0.000090    1.004591
   1 V :    0.000090    0.995409

----------------------------------------------------
LOEWDIN REDUCED ORBITAL CHARGES AND SPIN POPULATIONS
----------------------------------------------------
CHARGE
  0 V s       :     6.608777  s :     6.608777
      pz      :     4.079148  p :    12.072059
      px      :     3.996456
      py      :     3.996456
      dz2     :     0.733676  d :     4.181561
      dxz     :     0.978950
      dyz     :     0.978950
      dx2y2   :     0.992884
      dxy     :     0.497101
      f0      :     0.072288  f :     0.127547
      f+1     :     0.022795
      f-1     :     0.022795
      f+2     :     0.006432
      f-2     :     0.003197
      f+3     :     0.000020
      f-3     :     0.000020
      g0      :     0.006201  g :     0.010146
      g+1     :     0.001716
      g-1     :     0.001716
      g+2     :     0.000348
      g-2     :     0.000154
      g+3     :     0.000002
      g-3     :     0.000002
      g+4     :     0.000007
      g-4     :     0.000000
  1 V s       :     6.608766  s :     6.608766
      pz      :     4.079097  p :    12.072000
      px      :     3.996451
      py      :     3.996451
      dz2     :     0.733542  d :     4.181456
      dxz     :     0.979081
      dyz     :     0.979081
      dx2y2   :     0.993563
      dxy     :     0.496189
      f0      :     0.072287  f :     0.127541
      f+1     :     0.022792
      f-1     :     0.022792
      f+2     :     0.006426
      f-2     :     0.003204
      f+3     :     0.000020
      f-3     :     0.000020
      g0      :     0.006202  g :     0.010146
      g+1     :     0.001716
      g-1     :     0.001716
      g+2     :     0.000347
      g-2     :     0.000155
      g+3     :     0.000002
      g-3     :     0.000002
      g+4     :     0.000007
      g-4     :     0.000000

SPIN
  0 V s       :     0.143610  s :     0.143610
      pz      :     0.009517  p :     0.006986
      px      :    -0.001266
      py      :    -0.001266
      dz2     :     0.346596  d :     0.850434
      dxz     :     0.001714
      dyz     :     0.001714
      dx2y2   :     0.003309
      dxy     :     0.497101
      f0      :     0.000400  f :     0.003084
      f+1     :    -0.000148
      f-1     :    -0.000148
      f+2     :    -0.000189
      f-2     :     0.003197
      f+3     :    -0.000014
      f-3     :    -0.000014
      g0      :     0.000240  g :     0.000478
      g+1     :     0.000056
      g-1     :     0.000056
      g+2     :    -0.000022
      g-2     :     0.000154
      g+3     :    -0.000001
      g-3     :    -0.000001
      g+4     :    -0.000004
      g-4     :    -0.000000
  1 V s       :     0.143237  s :     0.143237
      pz      :     0.009669  p :     0.007176
      px      :    -0.001247
      py      :    -0.001247
      dz2     :     0.346091  d :     0.841335
      dxz     :     0.000997
      dyz     :     0.000997
      dx2y2   :    -0.002939
      dxy     :     0.496189
      f0      :     0.000407  f :     0.003175
      f+1     :    -0.000134
      f-1     :    -0.000134
      f+2     :    -0.000140
      f-2     :     0.003204
      f+3     :    -0.000014
      f-3     :    -0.000014
      g0      :     0.000241  g :     0.000486
      g+1     :     0.000057
      g-1     :     0.000057
      g+2     :    -0.000019
      g-2     :     0.000155
      g+3     :    -0.000001
      g-3     :    -0.000001
      g+4     :    -0.000004
      g-4     :     0.000000


                      *****************************
                      * MAYER POPULATION ANALYSIS *
                      *****************************

  NA   - Mulliken gross atomic population
  ZA   - Total nuclear charge
  QA   - Mulliken gross atomic charge
  VA   - Mayer's total valence
  BVA  - Mayer's bonded valence
  FA   - Mayer's free valence

  ATOM       NA         ZA         QA         VA         BVA        FA
  0 V     23.0001    23.0000    -0.0001     5.6939     5.1934     0.5005
  1 V     22.9999    23.0000     0.0001     5.6926     5.1934     0.4992

  Mayer bond orders larger than 0.100000
B(  0-V ,  1-V ) :   5.1934 

-------
TIMINGS
-------

Total SCF time: 0 days 0 hours 1 min 35 sec 

Total time                  ....      95.060 sec
Sum of individual times     ....      93.885 sec  ( 98.8%)

Fock matrix formation       ....      89.983 sec  ( 94.7%)
  XC integration            ....      76.017 sec  ( 84.5% of F)
    Basis function eval.    ....       0.087 sec  (  0.1% of XC)
    Density eval.           ....       0.236 sec  (  0.3% of XC)
    XC-Functional eval.     ....       0.075 sec  (  0.1% of XC)
    XC-Potential eval.      ....       0.589 sec  (  0.8% of XC)
Diagonalization             ....       2.054 sec  (  2.2%)
Density matrix formation    ....       0.025 sec  (  0.0%)
Population analysis         ....       0.066 sec  (  0.1%)
Initial guess               ....       0.208 sec  (  0.2%)
Orbital Transformation      ....       0.000 sec  (  0.0%)
Orbital Orthonormalization  ....       0.000 sec  (  0.0%)
DIIS solution               ....       0.421 sec  (  0.4%)
Grid generation             ....       1.128 sec  (  1.2%)


-------------------------------------------------------------------------------
                          DFT DISPERSION CORRECTION                            
                                                                               
                              DFTD3 V3.1  Rev 1                                
                          USING Becke-Johnson damping                          
-------------------------------------------------------------------------------
The TPSSH functional is recognized
Active option DFTDOPT                   ...         4   

molecular C6(AA) [au] = 2008.341783 


            DFT-D V3
 parameters
 s6 scaling factor         :     1.0000 
 a1 scaling factor         :     0.4529 
 s8 scaling factor         :     2.2382 
 a2 scaling factor         :     4.6550 
 ad hoc parameters k1-k3   :    16.0000     1.3333    -4.0000 

 Edisp/kcal,au: -1.706748077737  -0.002719875900 
 E6   /kcal   :  -0.449352851 
 E8   /kcal   :  -1.257395226 
 % E8         :  73.671987254 

-------------------------   ----------------
Dispersion correction           -0.002719876
-------------------------   ----------------


-------------------------   --------------------
FINAL SINGLE POINT ENERGY     -1887.886974845376
-------------------------   --------------------


                            ***************************************
                            *     ORCA property calculations      *
                            ***************************************

                                    ---------------------
                                    Active property flags
                                    ---------------------
   (+) Dipole Moment


------------------------------------------------------------------------------
                       ORCA ELECTRIC PROPERTIES CALCULATION
------------------------------------------------------------------------------

Dipole Moment Calculation                       ... on
Quadrupole Moment Calculation                   ... off
Polarizability Calculation                      ... off
GBWName                                         ... V2.gbw
Electron density file                           ... V2.scfp
The origin for moment calculation is the CENTER OF MASS  = ( 0.000000,  0.000000  1.672408)

-------------
DIPOLE MOMENT
-------------
                                X             Y             Z
Electronic contribution:      0.00000       0.00000       0.00062
Nuclear contribution   :      0.00000       0.00000       0.00000
                        -----------------------------------------
Total Dipole Moment    :      0.00000       0.00000       0.00062
                        -----------------------------------------
Magnitude (a.u.)       :      0.00062
Magnitude (Debye)      :      0.00157



--------------------
Rotational spectrum 
--------------------
 
Rotational constants in cm-1:     0.000000     0.211262     0.211262 
Rotational constants in MHz :     0.000000  6333.475957  6333.475957 

 Dipole components along the rotational axes: 
x,y,z [a.u.] :     0.000620     0.000000     0.000000 
x,y,z [Debye]:     0.001575     0.000001     0.000000 

 

Timings for individual modules:

Sum of individual times         ...       98.100 sec (=   1.635 min)
GTO integral calculation        ...        2.468 sec (=   0.041 min)   2.5 %
SCF iterations                  ...       95.632 sec (=   1.594 min)  97.5 %
                             ****ORCA TERMINATED NORMALLY****
TOTAL RUN TIME: 0 days 0 hours 1 minutes 38 seconds 911 msec
