
    -----------------------------------------------------------------------
          Psi4: An Open-Source Ab Initio Electronic Structure Package
                               Psi4 1.4.1 release

                         Git: Rev {HEAD} cd00f19 


    D. G. A. Smith, L. A. Burns, A. C. Simmonett, R. M. Parrish,
    M. C. Schieber, R. Galvelis, P. Kraus, H. Kruse, R. Di Remigio,
    A. Alenaizan, A. M. James, S. Lehtola, J. P. Misiewicz, M. Scheurer,
    R. A. Shaw, J. B. Schriber, Y. Xie, Z. L. Glick, D. A. Sirianni,
    J. S. O'Brien, J. M. Waldrop, A. Kumar, E. G. Hohenstein,
    B. P. Pritchard, B. R. Brooks, H. F. Schaefer III, A. Yu. Sokolov,
    K. Patkowski, A. E. DePrince III, U. Bozkaya, R. A. King,
    F. A. Evangelista, J. M. Turney, T. D. Crawford, C. D. Sherrill,
    J. Chem. Phys. 152(18) 184108 (2020). https://doi.org/10.1063/5.0006002

                            Additional Code Authors
    E. T. Seidl, C. L. Janssen, E. F. Valeev, M. L. Leininger,
    J. F. Gonthier, R. M. Richard, H. R. McAlexander, M. Saitow, X. Wang,
    P. Verma, and M. H. Lechner

             Previous Authors, Complete List of Code Contributors,
                       and Citations for Specific Modules
    https://github.com/psi4/psi4/blob/master/codemeta.json
    https://github.com/psi4/psi4/graphs/contributors
    http://psicode.org/psi4manual/master/introduction.html#citing-psifour

    -----------------------------------------------------------------------


    Psi4 started on: Sunday, 07 November 2021 05:09AM

    Process ID: 20391
    Host:       compute304.bc4.acrc.priv
    PSIDATADIR: /mnt/storage/home/zw18965/.conda/envs/p4env/share/psi4
    Memory:     500.0 MiB
    Threads:    28
    
  ==> Input File <==

--------------------------------------------------------------------------
memory 120 GB

molecule {
0 2
Ag         0.00000        0.00000        0.00000
 }

set reference uks
set dynamic_level 1
set basis Def2-TZVPPD

energy("SCAN-D3BJ")
--------------------------------------------------------------------------

  Memory set to 111.759 GiB by Python driver.

Scratch directory: /tmp/

*** tstart() called on compute304.bc4.acrc.priv
*** at Sun Nov  7 05:09:21 2021

   => Loading Basis Set <=

    Name: DEF2-TZVPPD
    Role: ORBITAL
    Keyword: BASIS
    atoms 1 entry AG         line  2174 (ECP: line  3646) file /mnt/storage/home/zw18965/.conda/envs/p4env/share/psi4/basis/def2-tzvppd.gbs 

    !!!  WARNING: ECP capability is in beta. Please check occupations closely.  !!!

   => SCAN-D3(BJ): Empirical Dispersion <=

    Grimme's -D3 (BJ-damping) Dispersion Correction
    Grimme S.; Ehrlich S.; Goerigk L. (2011), J. Comput. Chem., 32: 1456
    Parametrisation from:    J.G. Brandenburg, J. E. Bates, J. Sun, J.P. Perdew, Phys. Rev. B 94, 115144, 2016

        s6 =       1.000000
        s8 =       0.000000
        a1 =       0.538000
        a2 =       5.420000


         ---------------------------------------------------------
                                   SCF
               by Justin Turney, Rob Parrish, Andy Simmonett
                          and Daniel G. A. Smith
                              UKS Reference
                       28 Threads, 114440 MiB Core
         ---------------------------------------------------------

  ==> Geometry <==

    Molecular point group: d2h
    Geometry (in Angstrom), charge = 0, multiplicity = 2:

       Center              X                  Y                   Z               Mass       
    ------------   -----------------  -----------------  -----------------  -----------------
         AG           0.000000000000     0.000000000000     0.000000000000   106.905091600000

  Running in d2h symmetry.

  Rotational constants: A = ************  B = ************  C = ************ [cm^-1]
  Rotational constants: A = ************  B = ************  C = ************ [MHz]
  Nuclear repulsion =    0.000000000000000

  Charge       = 0
  Multiplicity = 2
  Electrons    = 19
  Nalpha       = 10
  Nbeta        = 9

  ==> Algorithm <==

  SCF Algorithm Type is DF.
  DIIS enabled.
  MOM disabled.
  Fractional occupation disabled.
  Guess Type is CORE.
  Energy threshold   = 1.00e-06
  Density threshold  = 1.00e-06
  Integral threshold = 1.00e-12

  ==> Primary Basis <==

  Basis Set: DEF2-TZVPPD
    Blend: DEF2-TZVPPD
    Number of shells: 16
    Number of basis functions: 56
    Number of Cartesian functions: 71
    Spherical Harmonics?: true
    Max angular momentum: 4

  Core potential: DEF2-TZVPPD
    Number of shells: 4
    Number of ECP primitives: 14
    Number of ECP core electrons: 28
    Max angular momentum: 3

  ==> DFT Potential <==

   => Composite Functional: SCAN-D3BJ <= 

    SCAN Meta-GGA XC Functional
(10.1103/PhysRevLett.115.036402)
    J. Sun, A. Ruzsinszky, J. P. Perdew  Phys. Rev. Lett. 115, 036402, 2015


    Deriv               =              1
    GGA                 =           TRUE
    Meta                =           TRUE

    Exchange Hybrid     =          FALSE
    MP2 Hybrid          =          FALSE

   => Exchange Functionals <=

    1.0000   XC_MGGA_X_SCAN

   => Correlation Functionals <=

    1.0000   XC_MGGA_C_SCAN

   => LibXC Density Thresholds  <==

    XC_MGGA_C_SCAN:  1.00E-15 
    XC_MGGA_X_SCAN:  1.00E-15 

   => Molecular Quadrature <=

    Radial Scheme          =       TREUTLER
    Pruning Scheme         =           NONE
    Nuclear Scheme         =       TREUTLER

    BS radius alpha        =              1
    Pruning alpha          =              1
    Radial Points          =             75
    Spherical Points       =            302
    Total Points           =          20832
    Total Blocks           =            235
    Max Points             =            255
    Max Functions          =             56
    Weights Tolerance      =       1.00E-15

   => Loading Basis Set <=

    Name: (DEF2-TZVPPD AUX)
    Role: JKFIT
    Keyword: DF_BASIS_SCF
    atoms 1 entry AG         line  4364 file /mnt/storage/home/zw18965/.conda/envs/p4env/share/psi4/basis/def2-universal-jkfit.gbs 

  ==> Integral Setup <==

  DFHelper Memory: AOs need 0.008 GiB; user supplied 83.748 GiB. Using in-core AOs.

  ==> MemDFJK: Density-Fitted J/K Matrices <==

    J tasked:                   Yes
    K tasked:                    No
    wK tasked:                   No
    OpenMP threads:              28
    Memory [MiB]:             85757
    Algorithm:                 Core
    Schwarz Cutoff:           1E-12
    Mask sparsity (%):       0.0000
    Fitting Condition:        1E-10

   => Auxiliary Basis Set <=

  Basis Set: (DEF2-TZVPPD AUX)
    Blend: DEF2-UNIVERSAL-JKFIT
    Number of shells: 49
    Number of basis functions: 255
    Number of Cartesian functions: 384
    Spherical Harmonics?: true
    Max angular momentum: 6

  Cached 100.0% of DFT collocation blocks in 0.071 [GiB].

  Minimum eigenvalue in the overlap matrix is 2.2101858439E-02.
  Reciprocal condition number of the overlap matrix is 7.0222993859E-03.
    Using symmetric orthogonalization.

  ==> Pre-Iterations <==

  SCF Guess: Core (One-Electron) Hamiltonian.

   -------------------------------------------------------
    Irrep   Nso     Nmo     Nalpha   Nbeta   Ndocc  Nsocc
   -------------------------------------------------------
     Ag        15      15       3       3       3       0
     B1g        5       5       1       1       1       0
     B2g        5       5       1       1       1       0
     B3g        5       5       1       1       1       0
     Au         2       2       0       0       0       0
     B1u        8       8       1       1       1       0
     B2u        8       8       2       1       1       1
     B3u        8       8       1       1       1       0
   -------------------------------------------------------
    Total      56      56      10       9       9       1
   -------------------------------------------------------

  ==> Iterations <==

                           Total Energy        Delta E     RMS |[F,P]|

    Occupation by irrep:
             Ag   B1g   B2g   B3g    Au   B1u   B2u   B3u 
    DOCC [     3,    0,    0,    0,    0,    2,    2,    2 ]
    SOCC [     0,    1,    0,    0,    0,    0,    0,    0 ]

   @DF-UKS iter   1:  -131.60469108658117   -1.31605e+02   2.64648e-01 DIIS
    Occupation by irrep:
             Ag   B1g   B2g   B3g    Au   B1u   B2u   B3u 
    DOCC [     3,    1,    1,    1,    0,    1,    1,    1 ]
    SOCC [     1,    0,    0,    0,    0,    0,    0,    0 ]

   @DF-UKS iter   2:  -115.31157337178774    1.62931e+01   3.60411e-01 DIIS
   @DF-UKS iter   3:  -146.69239437435897   -3.13808e+01   3.42414e-02 DIIS
   @DF-UKS iter   4:  -146.88647817995437   -1.94084e-01   2.83716e-02 DIIS
   @DF-UKS iter   5:  -146.99181353797348   -1.05335e-01   6.46416e-03 DIIS
   @DF-UKS iter   6:  -146.99779347322288   -5.97994e-03   2.75366e-04 DIIS
   @DF-UKS iter   7:  -146.99780759126787   -1.41180e-05   1.85347e-05 DIIS
   @DF-UKS iter   8:  -146.99780779657064   -2.05303e-07   1.35572e-05 DIIS
   @DF-UKS iter   9:  -146.99780782318891   -2.66183e-08   5.46085e-07 DIIS
  Energy and wave function converged.


  ==> Post-Iterations <==

   Electrons on quadrature grid:
      Nalpha   =   10.0000000000 ; deviation = -5.329e-15
      Nbeta    =    9.0000000000 ; deviation = -8.882e-15
      Ntotal   =   19.0000000000 ; deviation = -1.421e-14 

   @Spin Contamination Metric:   4.591472601E-03
   @S^2 Expected:                7.500000000E-01
   @S^2 Observed:                7.545914726E-01
   @S   Expected:                5.000000000E-01
   @S   Observed:                5.000000000E-01

    Orbital Energies [Eh]
    ---------------------

    Alpha Occupied:                                                       

       1Ag    -3.680430     1B1u   -2.267211     1B3u   -2.267211  
       1B2u   -2.267211     2Ag    -0.275987     1B1g   -0.275987  
       1B2g   -0.275987     3Ag    -0.275987     1B3g   -0.275987  
       4Ag    -0.189164  

    Alpha Virtual:                                                        

       2B2u   -0.023177     2B3u   -0.023177     2B1u   -0.023177  
       5Ag     0.103854     3B2u    0.204157     3B3u    0.204157  
       3B1u    0.204157     6Ag     0.399343     7Ag     0.399343  
       2B2g    0.399343     2B3g    0.399343     2B1g    0.399343  
       4B2u    1.584983     4B3u    1.584983     1Au     1.584983  
       4B1u    1.584983     5B2u    1.584983     5B3u    1.584983  
       5B1u    1.584983     6B2u    1.610392     6B3u    1.610392  
       6B1u    1.610392     8Ag     1.880491     3B1g    2.035748  
       3B2g    2.035748     9Ag     2.035748     3B3g    2.035748  
      10Ag     2.035748     7B1u    4.878901     7B3u    4.878901  
       7B2u    4.878901     2Au     4.878901     8B1u    4.878901  
       8B3u    4.878901     8B2u    4.878901    11Ag     5.636470  
       4B1g    5.636470    12Ag     5.636470     4B3g    5.636470  
       5B1g    5.636470     4B2g    5.636470     5B3g    5.636470  
      13Ag     5.636470     5B2g    5.636470    14Ag    33.410031  
      15Ag   110.851654  

    Beta Occupied:                                                        

       1Ag    -3.679504     1B3u   -2.269017     1B2u   -2.269017  
       1B1u   -2.269017     1B2g   -0.268364     2Ag    -0.268364  
       1B3g   -0.268364     1B1g   -0.268364     3Ag    -0.268364  

    Beta Virtual:                                                         

       4Ag    -0.127818     2B3u    0.011392     2B1u    0.011392  
       2B2u    0.011392     5Ag     0.109572     3B3u    0.209591  
       3B1u    0.209591     3B2u    0.209591     6Ag     0.422517  
       2B1g    0.422517     2B2g    0.422517     2B3g    0.422517  
       7Ag     0.422517     4B1u    1.591511     4B3u    1.591511  
       1Au     1.591511     4B2u    1.591511     5B1u    1.591511  
       5B3u    1.591511     5B2u    1.591511     6B3u    1.601461  
       6B2u    1.601461     6B1u    1.601461     8Ag     1.873374  
       3B1g    2.038405     9Ag     2.038405     3B2g    2.038405  
       3B3g    2.038405    10Ag     2.038405     7B2u    4.884610  
       7B3u    4.884610     2Au     4.884610     7B1u    4.884610  
       8B3u    4.884610     8B2u    4.884610     8B1u    4.884611  
       4B1g    5.643053    11Ag     5.643053     4B3g    5.643054  
       4B2g    5.643054    12Ag     5.643054     5B1g    5.643054  
       5B2g    5.643054    13Ag     5.643054     5B3g    5.643054  
      14Ag    33.373136    15Ag   110.844781  

    Final Occupation by Irrep:
             Ag   B1g   B2g   B3g    Au   B1u   B2u   B3u 
    DOCC [     3,    1,    1,    1,    0,    1,    1,    1 ]
    SOCC [     1,    0,    0,    0,    0,    0,    0,    0 ]

  @DF-UKS Final Energy:  -146.99780782318891

   => Energetics <=

    Nuclear Repulsion Energy =              0.0000000000000000
    One-Electron Energy =                -261.2668442702921539
    Two-Electron Energy =                 128.4406160537894834
    DFT Exchange-Correlation Energy =     -14.1715796066862385
    Empirical Dispersion Energy =           0.0000000000000000
    VV10 Nonlocal Energy =                  0.0000000000000000
    Total Energy =                       -146.9978078231889072

  UHF NO Occupations:
  HONO-2 :    1B1g 1.9995446
  HONO-1 :    3 Ag 1.9995446
  HONO-0 :    4 Ag 1.0000000
  LUNO+0 :    5 Ag 0.0004554
  LUNO+1 :    2B1g 0.0004554
  LUNO+2 :    2B3g 0.0004554
  LUNO+3 :    2B2g 0.0004554


Computation Completed


Properties will be evaluated at   0.000000,   0.000000,   0.000000 [a0]

Properties computed using the SCF density matrix

  Nuclear Dipole Moment: [e a0]
     X:     0.0000      Y:     0.0000      Z:     0.0000

  Electronic Dipole Moment: [e a0]
     X:     0.0000      Y:     0.0000      Z:     0.0000

  Dipole Moment: [e a0]
     X:     0.0000      Y:     0.0000      Z:     0.0000     Total:     0.0000

  Dipole Moment: [D]
     X:     0.0000      Y:     0.0000      Z:     0.0000     Total:     0.0000


*** tstop() called on compute304.bc4.acrc.priv at Sun Nov  7 05:09:26 2021
Module time:
	user time   =      65.37 seconds =       1.09 minutes
	system time =       2.59 seconds =       0.04 minutes
	total time  =          5 seconds =       0.08 minutes
Total time:
	user time   =      65.37 seconds =       1.09 minutes
	system time =       2.59 seconds =       0.04 minutes
	total time  =          5 seconds =       0.08 minutes

    Psi4 stopped on: Sunday, 07 November 2021 05:09AM
    Psi4 wall time for execution: 0:00:05.40

*** Psi4 exiting successfully. Buy a developer a beer!
