
    -----------------------------------------------------------------------
          Psi4: An Open-Source Ab Initio Electronic Structure Package
                               Psi4 1.4.1 release

                         Git: Rev {HEAD} cd00f19 


    D. G. A. Smith, L. A. Burns, A. C. Simmonett, R. M. Parrish,
    M. C. Schieber, R. Galvelis, P. Kraus, H. Kruse, R. Di Remigio,
    A. Alenaizan, A. M. James, S. Lehtola, J. P. Misiewicz, M. Scheurer,
    R. A. Shaw, J. B. Schriber, Y. Xie, Z. L. Glick, D. A. Sirianni,
    J. S. O'Brien, J. M. Waldrop, A. Kumar, E. G. Hohenstein,
    B. P. Pritchard, B. R. Brooks, H. F. Schaefer III, A. Yu. Sokolov,
    K. Patkowski, A. E. DePrince III, U. Bozkaya, R. A. King,
    F. A. Evangelista, J. M. Turney, T. D. Crawford, C. D. Sherrill,
    J. Chem. Phys. 152(18) 184108 (2020). https://doi.org/10.1063/5.0006002

                            Additional Code Authors
    E. T. Seidl, C. L. Janssen, E. F. Valeev, M. L. Leininger,
    J. F. Gonthier, R. M. Richard, H. R. McAlexander, M. Saitow, X. Wang,
    P. Verma, and M. H. Lechner

             Previous Authors, Complete List of Code Contributors,
                       and Citations for Specific Modules
    https://github.com/psi4/psi4/blob/master/codemeta.json
    https://github.com/psi4/psi4/graphs/contributors
    http://psicode.org/psi4manual/master/introduction.html#citing-psifour

    -----------------------------------------------------------------------


    Psi4 started on: Sunday, 07 November 2021 05:09AM

    Process ID: 27490
    Host:       compute303.bc4.acrc.priv
    PSIDATADIR: /mnt/storage/home/zw18965/.conda/envs/p4env/share/psi4
    Memory:     500.0 MiB
    Threads:    28
    
  ==> Input File <==

--------------------------------------------------------------------------
memory 120 GB

molecule {
0 1
Ag         0.00000        0.00000        0.00000
Ag         0.00000        0.00000        2.58711
 }

set dynamic_level 1
set basis Def2-TZVPPD

energy("SCAN-D3BJ")
--------------------------------------------------------------------------

  Memory set to 111.759 GiB by Python driver.

Scratch directory: /tmp/

*** tstart() called on compute303.bc4.acrc.priv
*** at Sun Nov  7 05:09:21 2021

   => Loading Basis Set <=

    Name: DEF2-TZVPPD
    Role: ORBITAL
    Keyword: BASIS
    atoms 1-2 entry AG         line  2174 (ECP: line  3646) file /mnt/storage/home/zw18965/.conda/envs/p4env/share/psi4/basis/def2-tzvppd.gbs 

    !!!  WARNING: ECP capability is in beta. Please check occupations closely.  !!!

   => SCAN-D3(BJ): Empirical Dispersion <=

    Grimme's -D3 (BJ-damping) Dispersion Correction
    Grimme S.; Ehrlich S.; Goerigk L. (2011), J. Comput. Chem., 32: 1456
    Parametrisation from:    J.G. Brandenburg, J. E. Bates, J. Sun, J.P. Perdew, Phys. Rev. B 94, 115144, 2016

        s6 =       1.000000
        s8 =       0.000000
        a1 =       0.538000
        a2 =       5.420000


         ---------------------------------------------------------
                                   SCF
               by Justin Turney, Rob Parrish, Andy Simmonett
                          and Daniel G. A. Smith
                              RKS Reference
                       28 Threads, 114440 MiB Core
         ---------------------------------------------------------

  ==> Geometry <==

    Molecular point group: d2h
    Full point group: D_inf_h

    Geometry (in Angstrom), charge = 0, multiplicity = 1:

       Center              X                  Y                   Z               Mass       
    ------------   -----------------  -----------------  -----------------  -----------------
         AG           0.000000000000     0.000000000000    -1.293555000000   106.905091600000
         AG           0.000000000000     0.000000000000     1.293555000000   106.905091600000

  Running in d2h symmetry.

  Rotational constants: A = ************  B =      0.04712  C =      0.04712 [cm^-1]
  Rotational constants: A = ************  B =   1412.59939  C =   1412.59939 [MHz]
  Nuclear repulsion =   73.840297881369551

  Charge       = 0
  Multiplicity = 1
  Electrons    = 38
  Nalpha       = 19
  Nbeta        = 19

  ==> Algorithm <==

  SCF Algorithm Type is DF.
  DIIS enabled.
  MOM disabled.
  Fractional occupation disabled.
  Guess Type is SAD.
  Energy threshold   = 1.00e-06
  Density threshold  = 1.00e-06
  Integral threshold = 1.00e-12

  ==> Primary Basis <==

  Basis Set: DEF2-TZVPPD
    Blend: DEF2-TZVPPD
    Number of shells: 32
    Number of basis functions: 112
    Number of Cartesian functions: 142
    Spherical Harmonics?: true
    Max angular momentum: 4

  Core potential: DEF2-TZVPPD
    Number of shells: 8
    Number of ECP primitives: 28
    Number of ECP core electrons: 56
    Max angular momentum: 3

  ==> DFT Potential <==

   => Composite Functional: SCAN-D3BJ <= 

    SCAN Meta-GGA XC Functional
(10.1103/PhysRevLett.115.036402)
    J. Sun, A. Ruzsinszky, J. P. Perdew  Phys. Rev. Lett. 115, 036402, 2015


    Deriv               =              1
    GGA                 =           TRUE
    Meta                =           TRUE

    Exchange Hybrid     =          FALSE
    MP2 Hybrid          =          FALSE

   => Exchange Functionals <=

    1.0000   XC_MGGA_X_SCAN

   => Correlation Functionals <=

    1.0000   XC_MGGA_C_SCAN

   => LibXC Density Thresholds  <==

    XC_MGGA_C_SCAN:  1.00E-15 
    XC_MGGA_X_SCAN:  1.00E-15 

   => Molecular Quadrature <=

    Radial Scheme          =       TREUTLER
    Pruning Scheme         =           NONE
    Nuclear Scheme         =       TREUTLER

    BS radius alpha        =              1
    Pruning alpha          =              1
    Radial Points          =             75
    Spherical Points       =            302
    Total Points           =          41814
    Total Blocks           =            412
    Max Points             =            252
    Max Functions          =            110
    Weights Tolerance      =       1.00E-15

   => Loading Basis Set <=

    Name: (DEF2-TZVPPD AUX)
    Role: JKFIT
    Keyword: DF_BASIS_SCF
    atoms 1-2 entry AG         line  4364 file /mnt/storage/home/zw18965/.conda/envs/p4env/share/psi4/basis/def2-universal-jkfit.gbs 

  ==> Integral Setup <==

  DFHelper Memory: AOs need 0.055 GiB; user supplied 83.572 GiB. Using in-core AOs.

  ==> MemDFJK: Density-Fitted J/K Matrices <==

    J tasked:                   Yes
    K tasked:                    No
    wK tasked:                   No
    OpenMP threads:              28
    Memory [MiB]:             85577
    Algorithm:                 Core
    Schwarz Cutoff:           1E-12
    Mask sparsity (%):       1.1798
    Fitting Condition:        1E-10

   => Auxiliary Basis Set <=

  Basis Set: (DEF2-TZVPPD AUX)
    Blend: DEF2-UNIVERSAL-JKFIT
    Number of shells: 98
    Number of basis functions: 510
    Number of Cartesian functions: 768
    Spherical Harmonics?: true
    Max angular momentum: 6

  Cached 100.0% of DFT collocation blocks in 0.248 [GiB].

  Minimum eigenvalue in the overlap matrix is 9.3036050550E-03.
  Reciprocal condition number of the overlap matrix is 2.4053126480E-03.
    Using symmetric orthogonalization.

  ==> Pre-Iterations <==

  SCF Guess: Superposition of Atomic Densities via on-the-fly atomic UHF (no occupation information).

   -------------------------
    Irrep   Nso     Nmo    
   -------------------------
     Ag        23      23 
     B1g        7       7 
     B2g       13      13 
     B3g       13      13 
     Au         7       7 
     B1u       23      23 
     B2u       13      13 
     B3u       13      13 
   -------------------------
    Total     112     112
   -------------------------

  ==> Iterations <==

                           Total Energy        Delta E     RMS |[F,P]|

   @DF-RKS iter SAD:  -293.57541773035865   -2.93575e+02   0.00000e+00 
   @DF-RKS iter   1:  -294.02823581008596   -4.52818e-01   6.12548e-03 DIIS
   @DF-RKS iter   2:  -293.99661860305838    3.16172e-02   9.88857e-03 DIIS
   @DF-RKS iter   3:  -294.05516926705809   -5.85507e-02   7.97250e-04 DIIS
   @DF-RKS iter   4:  -294.05540747017869   -2.38203e-04   4.50493e-04 DIIS
   @DF-RKS iter   5:  -294.05551718723552   -1.09717e-04   2.71001e-05 DIIS
   @DF-RKS iter   6:  -294.05551772921086   -5.41975e-07   5.19926e-06 DIIS
   @DF-RKS iter   7:  -294.05551774777956   -1.85687e-08   5.66445e-07 DIIS
  Energy and wave function converged.


  ==> Post-Iterations <==

   Electrons on quadrature grid:
      Ntotal   =   37.9999761930 ; deviation = -2.381e-05 

    Orbital Energies [Eh]
    ---------------------

    Doubly Occupied:                                                      

       1Ag    -3.679931     1B1u   -3.679469     2Ag    -2.272668  
       2B1u   -2.267522     1B2u   -2.266029     1B3u   -2.266029  
       1B3g   -2.265544     1B2g   -2.265544     3Ag    -0.308419  
       2B2u   -0.290234     2B3u   -0.290234     4Ag    -0.271089  
       1B1g   -0.271089     3B1u   -0.263875     1Au    -0.263874  
       2B3g   -0.254354     2B2g   -0.254354     4B1u   -0.249407  
       5Ag    -0.196201  

    Virtual:                                                              

       5B1u   -0.110806     3B3u   -0.028385     3B2u   -0.028385  
       6Ag    -0.009550     3B3g    0.039644     3B2g    0.039644  
       6B1u    0.090241     7Ag     0.108791     7B1u    0.158920  
       8Ag     0.179103     4B2u    0.186997     4B3u    0.186997  
       4B3g    0.234506     4B2g    0.234506     8B1u    0.356451  
       9Ag     0.375660     2B1g    0.375670     5B3u    0.406154  
       5B2u    0.406154     2Au     0.468531     9B1u    0.468536  
      10Ag     0.573977     5B3g    0.589570     5B2g    0.589570  
      10B1u    0.712950    11Ag     1.425175     6B2u    1.540732  
       6B3u    1.540732     3B1g    1.579748    12Ag     1.579867  
       7B3u    1.593076     7B2u    1.593076     6B2g    1.594758  
       6B3g    1.594758     3Au     1.604150    11B1u    1.604264  
       7B3g    1.607607     7B2g    1.607607     8B2u    1.609386  
       8B3u    1.609386    12B1u    1.627043    13Ag     1.717425  
       8B3g    1.723498     8B2g    1.723498    13B1u    1.740079  
      14Ag     1.927077    15Ag     2.028505     4B1g    2.028549  
       9B2u    2.057619     9B3u    2.057619    14B1u    2.066562  
       4Au     2.066601     9B3g    2.126519     9B2g    2.126519  
      16Ag     2.151476    15B1u    2.273986    16B1u    2.363350  
      17Ag     4.835048    10B2u    4.839159    10B3u    4.839159  
       5B1g    4.872926    18Ag     4.873376    11B3u    4.882959  
      11B2u    4.882959    10B3g    4.884354    10B2g    4.884354  
       5Au     4.893486    17B1u    4.893938    11B3g    4.968282  
      11B2g    4.968282    18B1u    5.159061    12B2u    5.637953  
      12B3u    5.637953    19Ag     5.639401     6B1g    5.639822  
      20Ag     5.640127     6Au     5.640140    19B1u    5.640441  
      12B3g    5.641278    12B2g    5.641278    13B3u    5.642063  
      13B2u    5.642063    13B2g    5.642107    13B3g    5.642107  
      20B1u    5.644075    21Ag     5.644080     7B1g    5.644899  
       7Au     5.644900    21B1u    5.651333    22Ag    33.438181  
      22B1u   33.685107    23Ag   110.862157    23B1u  110.941469  

    Final Occupation by Irrep:
             Ag   B1g   B2g   B3g    Au   B1u   B2u   B3u 
    DOCC [     5,    1,    2,    2,    1,    4,    2,    2 ]

  @DF-RKS Final Energy:  -294.05551774777956

   => Energetics <=

    Nuclear Repulsion Energy =             73.8402978813695512
    One-Electron Energy =                -670.3361850664837220
    Two-Electron Energy =                 330.7829071448634295
    DFT Exchange-Correlation Energy =     -28.3423358275288209
    Empirical Dispersion Energy =          -0.0002018800000000
    VV10 Nonlocal Energy =                  0.0000000000000000
    Total Energy =                       -294.0555177477795610

Computation Completed


Properties will be evaluated at   0.000000,   0.000000,   0.000000 [a0]

Properties computed using the SCF density matrix

  Nuclear Dipole Moment: [e a0]
     X:     0.0000      Y:     0.0000      Z:     0.0000

  Electronic Dipole Moment: [e a0]
     X:     0.0000      Y:     0.0000      Z:     0.0000

  Dipole Moment: [e a0]
     X:     0.0000      Y:     0.0000      Z:     0.0000     Total:     0.0000

  Dipole Moment: [D]
     X:     0.0000      Y:     0.0000      Z:     0.0000     Total:     0.0000


*** tstop() called on compute303.bc4.acrc.priv at Sun Nov  7 05:09:29 2021
Module time:
	user time   =      55.95 seconds =       0.93 minutes
	system time =       2.14 seconds =       0.04 minutes
	total time  =          8 seconds =       0.13 minutes
Total time:
	user time   =      55.95 seconds =       0.93 minutes
	system time =       2.14 seconds =       0.04 minutes
	total time  =          8 seconds =       0.13 minutes

    Psi4 stopped on: Sunday, 07 November 2021 05:09AM
    Psi4 wall time for execution: 0:00:08.34

*** Psi4 exiting successfully. Buy a developer a beer!
