
    -----------------------------------------------------------------------
          Psi4: An Open-Source Ab Initio Electronic Structure Package
                               Psi4 1.4.1 release

                         Git: Rev {HEAD} cd00f19 


    D. G. A. Smith, L. A. Burns, A. C. Simmonett, R. M. Parrish,
    M. C. Schieber, R. Galvelis, P. Kraus, H. Kruse, R. Di Remigio,
    A. Alenaizan, A. M. James, S. Lehtola, J. P. Misiewicz, M. Scheurer,
    R. A. Shaw, J. B. Schriber, Y. Xie, Z. L. Glick, D. A. Sirianni,
    J. S. O'Brien, J. M. Waldrop, A. Kumar, E. G. Hohenstein,
    B. P. Pritchard, B. R. Brooks, H. F. Schaefer III, A. Yu. Sokolov,
    K. Patkowski, A. E. DePrince III, U. Bozkaya, R. A. King,
    F. A. Evangelista, J. M. Turney, T. D. Crawford, C. D. Sherrill,
    J. Chem. Phys. 152(18) 184108 (2020). https://doi.org/10.1063/5.0006002

                            Additional Code Authors
    E. T. Seidl, C. L. Janssen, E. F. Valeev, M. L. Leininger,
    J. F. Gonthier, R. M. Richard, H. R. McAlexander, M. Saitow, X. Wang,
    P. Verma, and M. H. Lechner

             Previous Authors, Complete List of Code Contributors,
                       and Citations for Specific Modules
    https://github.com/psi4/psi4/blob/master/codemeta.json
    https://github.com/psi4/psi4/graphs/contributors
    http://psicode.org/psi4manual/master/introduction.html#citing-psifour

    -----------------------------------------------------------------------


    Psi4 started on: Sunday, 07 November 2021 05:09AM

    Process ID: 3175
    Host:       compute134.bc4.acrc.priv
    PSIDATADIR: /mnt/storage/home/zw18965/.conda/envs/p4env/share/psi4
    Memory:     500.0 MiB
    Threads:    28
    
  ==> Input File <==

--------------------------------------------------------------------------
memory 120 GB

molecule {
0 1
Cl         0.00000        0.00000       -1.07053
Al         0.00000        0.00000        1.07053
 }

set dynamic_level 1
set basis Def2-TZVPPD

energy("SCAN-D3BJ")
--------------------------------------------------------------------------

  Memory set to 111.759 GiB by Python driver.

Scratch directory: /tmp/

*** tstart() called on compute134.bc4.acrc.priv
*** at Sun Nov  7 05:09:21 2021

   => Loading Basis Set <=

    Name: DEF2-TZVPPD
    Role: ORBITAL
    Keyword: BASIS
    atoms 1 entry CL         line   607 file /mnt/storage/home/zw18965/.conda/envs/p4env/share/psi4/basis/def2-tzvppd.gbs 
    atoms 2 entry AL         line   417 file /mnt/storage/home/zw18965/.conda/envs/p4env/share/psi4/basis/def2-tzvppd.gbs 

   => SCAN-D3(BJ): Empirical Dispersion <=

    Grimme's -D3 (BJ-damping) Dispersion Correction
    Grimme S.; Ehrlich S.; Goerigk L. (2011), J. Comput. Chem., 32: 1456
    Parametrisation from:    J.G. Brandenburg, J. E. Bates, J. Sun, J.P. Perdew, Phys. Rev. B 94, 115144, 2016

        s6 =       1.000000
        s8 =       0.000000
        a1 =       0.538000
        a2 =       5.420000


         ---------------------------------------------------------
                                   SCF
               by Justin Turney, Rob Parrish, Andy Simmonett
                          and Daniel G. A. Smith
                              RKS Reference
                       28 Threads, 114440 MiB Core
         ---------------------------------------------------------

  ==> Geometry <==

    Molecular point group: c2v
    Full point group: C_inf_v

    Geometry (in Angstrom), charge = 0, multiplicity = 1:

       Center              X                  Y                   Z               Mass       
    ------------   -----------------  -----------------  -----------------  -----------------
         CL           0.000000000000     0.000000000000    -0.932505699397    34.968852682000
         AL           0.000000000000     0.000000000000     1.208554300603    26.981538530000

  Running in c2v symmetry.

  Rotational constants: A = ************  B =      0.24145  C =      0.24145 [cm^-1]
  Rotational constants: A = ************  B =   7238.61508  C =   7238.61508 [MHz]
  Nuclear repulsion =   54.621618991560261

  Charge       = 0
  Multiplicity = 1
  Electrons    = 30
  Nalpha       = 15
  Nbeta        = 15

  ==> Algorithm <==

  SCF Algorithm Type is DF.
  DIIS enabled.
  MOM disabled.
  Fractional occupation disabled.
  Guess Type is SAD.
  Energy threshold   = 1.00e-06
  Density threshold  = 1.00e-06
  Integral threshold = 1.00e-12

  ==> Primary Basis <==

  Basis Set: DEF2-TZVPPD
    Blend: DEF2-TZVPPD
    Number of shells: 33
    Number of basis functions: 99
    Number of Cartesian functions: 113
    Spherical Harmonics?: true
    Max angular momentum: 3

  ==> DFT Potential <==

   => Composite Functional: SCAN-D3BJ <= 

    SCAN Meta-GGA XC Functional
(10.1103/PhysRevLett.115.036402)
    J. Sun, A. Ruzsinszky, J. P. Perdew  Phys. Rev. Lett. 115, 036402, 2015


    Deriv               =              1
    GGA                 =           TRUE
    Meta                =           TRUE

    Exchange Hybrid     =          FALSE
    MP2 Hybrid          =          FALSE

   => Exchange Functionals <=

    1.0000   XC_MGGA_X_SCAN

   => Correlation Functionals <=

    1.0000   XC_MGGA_C_SCAN

   => LibXC Density Thresholds  <==

    XC_MGGA_C_SCAN:  1.00E-15 
    XC_MGGA_X_SCAN:  1.00E-15 

   => Molecular Quadrature <=

    Radial Scheme          =       TREUTLER
    Pruning Scheme         =           NONE
    Nuclear Scheme         =       TREUTLER

    BS radius alpha        =              1
    Pruning alpha          =              1
    Radial Points          =             75
    Spherical Points       =            302
    Total Points           =          44074
    Total Blocks           =            428
    Max Points             =            255
    Max Functions          =             98
    Weights Tolerance      =       1.00E-15

   => Loading Basis Set <=

    Name: (DEF2-TZVPPD AUX)
    Role: JKFIT
    Keyword: DF_BASIS_SCF
    atoms 1 entry CL         line   986 file /mnt/storage/home/zw18965/.conda/envs/p4env/share/psi4/basis/def2-universal-jkfit.gbs 
    atoms 2 entry AL         line   654 file /mnt/storage/home/zw18965/.conda/envs/p4env/share/psi4/basis/def2-universal-jkfit.gbs 

  ==> Integral Setup <==

  DFHelper Memory: AOs need 0.023 GiB; user supplied 83.564 GiB. Using in-core AOs.

  ==> MemDFJK: Density-Fitted J/K Matrices <==

    J tasked:                   Yes
    K tasked:                    No
    wK tasked:                   No
    OpenMP threads:              28
    Memory [MiB]:             85569
    Algorithm:                 Core
    Schwarz Cutoff:           1E-12
    Mask sparsity (%):       1.3672
    Fitting Condition:        1E-10

   => Auxiliary Basis Set <=

  Basis Set: (DEF2-TZVPPD AUX)
    Blend: DEF2-UNIVERSAL-JKFIT
    Number of shells: 76
    Number of basis functions: 256
    Number of Cartesian functions: 310
    Spherical Harmonics?: true
    Max angular momentum: 4

  Cached 100.0% of DFT collocation blocks in 0.255 [GiB].

  Minimum eigenvalue in the overlap matrix is 1.5138583548E-03.
  Reciprocal condition number of the overlap matrix is 3.2671110224E-04.
    Using symmetric orthogonalization.

  ==> Pre-Iterations <==

  SCF Guess: Superposition of Atomic Densities via on-the-fly atomic UHF (no occupation information).

   -------------------------
    Irrep   Nso     Nmo    
   -------------------------
     A1        43      43 
     A2        10      10 
     B1        23      23 
     B2        23      23 
   -------------------------
    Total      99      99
   -------------------------

  ==> Iterations <==

                           Total Energy        Delta E     RMS |[F,P]|

   @DF-RKS iter SAD:  -702.42595301518111   -7.02426e+02   0.00000e+00 
   @DF-RKS iter   1:  -702.69583211956228   -2.69879e-01   7.91480e-03 DIIS
   @DF-RKS iter   2:  -702.67120187632793    2.46302e-02   8.16184e-03 DIIS
   @DF-RKS iter   3:  -702.74698021723623   -7.57783e-02   1.99506e-03 DIIS
   @DF-RKS iter   4:  -702.75342214149896   -6.44192e-03   3.54735e-04 DIIS
   @DF-RKS iter   5:  -702.75356789070827   -1.45749e-04   1.66086e-04 DIIS
   @DF-RKS iter   6:  -702.75359977439427   -3.18837e-05   1.03520e-05 DIIS
   @DF-RKS iter   7:  -702.75359986522210   -9.08278e-08   5.26274e-06 DIIS
   @DF-RKS iter   8:  -702.75359992495703   -5.97349e-08   3.34052e-07 DIIS
  Energy and wave function converged.


  ==> Post-Iterations <==

   Electrons on quadrature grid:
      Ntotal   =   30.0000007258 ; deviation = 7.258e-07 

    Orbital Energies [Eh]
    ---------------------

    Doubly Occupied:                                                      

       1A1  -101.236965     2A1   -55.749819     3A1    -9.375568  
       4A1    -7.109150     1B1    -7.107498     1B2    -7.107498  
       5A1    -4.099731     2B1    -2.633998     2B2    -2.633998  
       6A1    -2.630621     7A1    -0.765087     8A1    -0.380875  
       3B1    -0.305867     3B2    -0.305867     9A1    -0.229475  

    Virtual:                                                              

       4B2    -0.083413     4B1    -0.083413    10A1     0.003253  
      11A1     0.044254    12A1     0.067526     5B2     0.073366  
       5B1     0.073366     1A2     0.080972    13A1     0.081088  
       6B2     0.117105     6B1     0.117105    14A1     0.157554  
      15A1     0.169026     2A2     0.213875    16A1     0.214020  
       7B1     0.226016     7B2     0.226016    17A1     0.239136  
       3A2     0.257574    18A1     0.257857     8B2     0.267800  
       8B1     0.267800    19A1     0.274156     9B2     0.361572  
       9B1     0.361572    20A1     0.382764    21A1     0.443454  
      10B1     0.543895    10B2     0.543895    22A1     0.568848  
       4A2     0.597300    23A1     0.597451    11B1     0.606232  
      11B2     0.606232    12B1     0.750825    12B2     0.750825  
       5A2     0.778292    24A1     0.778843    25A1     0.779888  
       6A2     0.802462    26A1     0.802547    13B1     0.812174  
      13B2     0.812174    27A1     0.861499    14B2     1.013729  
      14B1     1.013729    28A1     1.085256    29A1     1.118212  
      15B2     1.899165    15B1     1.899165    30A1     1.941400  
       7A2     1.941490    16B1     2.002000    16B2     2.002000  
      31A1     2.012238    17B1     2.115230    17B2     2.115230  
       8A2     2.162477    32A1     2.162653    33A1     2.255551  
      18B2     2.373490    18B1     2.373490    19B2     2.388060  
      19B1     2.388060    34A1     2.475815    35A1     2.764011  
       9A2     3.165209    36A1     3.165300    20B2     3.256833  
      20B1     3.256833    37A1     3.510922    38A1     7.108292  
      10A2     8.153487    39A1     8.153619    21B1     8.212180  
      21B2     8.212180    40A1     8.308248    22B2     9.193587  
      22B1     9.193587    41A1     9.490299    23B1    10.831342  
      23B2    10.831342    42A1    11.206049    43A1    24.958155  

    Final Occupation by Irrep:
             A1    A2    B1    B2 
    DOCC [     9,    0,    3,    3 ]

  @DF-RKS Final Energy:  -702.75359992495703

   => Energetics <=

    Nuclear Repulsion Energy =             54.6216189915602612
    One-Electron Energy =               -1081.6779264714380133
    Two-Electron Energy =                 371.2474928906382843
    DFT Exchange-Correlation Energy =     -46.9445724957176935
    Empirical Dispersion Energy =          -0.0002128400000000
    VV10 Nonlocal Energy =                  0.0000000000000000
    Total Energy =                       -702.7535999249570295

Computation Completed


Properties will be evaluated at   0.000000,   0.000000,   0.000000 [a0]

Properties computed using the SCF density matrix

  Nuclear Dipole Moment: [e a0]
     X:     0.0000      Y:     0.0000      Z:    -0.2672

  Electronic Dipole Moment: [e a0]
     X:     0.0000      Y:     0.0000      Z:     0.8175

  Dipole Moment: [e a0]
     X:     0.0000      Y:     0.0000      Z:     0.5503     Total:     0.5503

  Dipole Moment: [D]
     X:     0.0000      Y:     0.0000      Z:     1.3987     Total:     1.3987


*** tstop() called on compute134.bc4.acrc.priv at Sun Nov  7 05:09:23 2021
Module time:
	user time   =      23.81 seconds =       0.40 minutes
	system time =       1.36 seconds =       0.02 minutes
	total time  =          2 seconds =       0.03 minutes
Total time:
	user time   =      23.81 seconds =       0.40 minutes
	system time =       1.36 seconds =       0.02 minutes
	total time  =          2 seconds =       0.03 minutes

    Psi4 stopped on: Sunday, 07 November 2021 05:09AM
    Psi4 wall time for execution: 0:00:02.57

*** Psi4 exiting successfully. Buy a developer a beer!
