
    -----------------------------------------------------------------------
          Psi4: An Open-Source Ab Initio Electronic Structure Package
                               Psi4 1.4.1 release

                         Git: Rev {HEAD} cd00f19 


    D. G. A. Smith, L. A. Burns, A. C. Simmonett, R. M. Parrish,
    M. C. Schieber, R. Galvelis, P. Kraus, H. Kruse, R. Di Remigio,
    A. Alenaizan, A. M. James, S. Lehtola, J. P. Misiewicz, M. Scheurer,
    R. A. Shaw, J. B. Schriber, Y. Xie, Z. L. Glick, D. A. Sirianni,
    J. S. O'Brien, J. M. Waldrop, A. Kumar, E. G. Hohenstein,
    B. P. Pritchard, B. R. Brooks, H. F. Schaefer III, A. Yu. Sokolov,
    K. Patkowski, A. E. DePrince III, U. Bozkaya, R. A. King,
    F. A. Evangelista, J. M. Turney, T. D. Crawford, C. D. Sherrill,
    J. Chem. Phys. 152(18) 184108 (2020). https://doi.org/10.1063/5.0006002

                            Additional Code Authors
    E. T. Seidl, C. L. Janssen, E. F. Valeev, M. L. Leininger,
    J. F. Gonthier, R. M. Richard, H. R. McAlexander, M. Saitow, X. Wang,
    P. Verma, and M. H. Lechner

             Previous Authors, Complete List of Code Contributors,
                       and Citations for Specific Modules
    https://github.com/psi4/psi4/blob/master/codemeta.json
    https://github.com/psi4/psi4/graphs/contributors
    http://psicode.org/psi4manual/master/introduction.html#citing-psifour

    -----------------------------------------------------------------------


    Psi4 started on: Sunday, 07 November 2021 05:09AM

    Process ID: 22906
    Host:       compute297.bc4.acrc.priv
    PSIDATADIR: /mnt/storage/home/zw18965/.conda/envs/p4env/share/psi4
    Memory:     500.0 MiB
    Threads:    28
    
  ==> Input File <==

--------------------------------------------------------------------------
memory 120 GB

molecule {
0 2
C          0.00000        0.00000        0.00000
H          0.00000        0.00000        1.07732
H          0.93298        0.00000       -0.53866
H         -0.93298        0.00000       -0.53866
 }

set reference uks
set dynamic_level 1
set basis Def2-TZVPPD

energy("SCAN-D3BJ")
--------------------------------------------------------------------------

  Memory set to 111.759 GiB by Python driver.

Scratch directory: /tmp/

*** tstart() called on compute297.bc4.acrc.priv
*** at Sun Nov  7 05:09:21 2021

   => Loading Basis Set <=

    Name: DEF2-TZVPPD
    Role: ORBITAL
    Keyword: BASIS
    atoms 1   entry C          line   144 file /mnt/storage/home/zw18965/.conda/envs/p4env/share/psi4/basis/def2-tzvppd.gbs 
    atoms 2-4 entry H          line    14 file /mnt/storage/home/zw18965/.conda/envs/p4env/share/psi4/basis/def2-tzvppd.gbs 

   => SCAN-D3(BJ): Empirical Dispersion <=

    Grimme's -D3 (BJ-damping) Dispersion Correction
    Grimme S.; Ehrlich S.; Goerigk L. (2011), J. Comput. Chem., 32: 1456
    Parametrisation from:    J.G. Brandenburg, J. E. Bates, J. Sun, J.P. Perdew, Phys. Rev. B 94, 115144, 2016

        s6 =       1.000000
        s8 =       0.000000
        a1 =       0.538000
        a2 =       5.420000


         ---------------------------------------------------------
                                   SCF
               by Justin Turney, Rob Parrish, Andy Simmonett
                          and Daniel G. A. Smith
                              UKS Reference
                       28 Threads, 114440 MiB Core
         ---------------------------------------------------------

  ==> Geometry <==

    Molecular point group: c2v
    Full point group: C2v

    Geometry (in Angstrom), charge = 0, multiplicity = 2:

       Center              X                  Y                   Z               Mass       
    ------------   -----------------  -----------------  -----------------  -----------------
         C            0.000000000000    -0.000000000000     0.000000000000    12.000000000000
         H            0.000000000000    -0.000000000000     1.077320000000     1.007825032230
         H            0.932980000000     0.000000000000    -0.538660000000     1.007825032230
         H           -0.932980000000    -0.000000000000    -0.538660000000     1.007825032230

  Running in c2v symmetry.

  Rotational constants: A =      9.60808  B =      9.60795  C =      4.80401 [cm^-1]
  Rotational constants: A = 288043.04579  B = 288039.03969  C = 144020.52137 [MHz]
  Nuclear repulsion =    9.692373587579699

  Charge       = 0
  Multiplicity = 2
  Electrons    = 9
  Nalpha       = 5
  Nbeta        = 4

  ==> Algorithm <==

  SCF Algorithm Type is DF.
  DIIS enabled.
  MOM disabled.
  Fractional occupation disabled.
  Guess Type is SAD.
  Energy threshold   = 1.00e-06
  Density threshold  = 1.00e-06
  Integral threshold = 1.00e-12

  ==> Primary Basis <==

  Basis Set: DEF2-TZVPPD
    Blend: DEF2-TZVPPD
    Number of shells: 34
    Number of basis functions: 88
    Number of Cartesian functions: 97
    Spherical Harmonics?: true
    Max angular momentum: 3

  ==> DFT Potential <==

   => Composite Functional: SCAN-D3BJ <= 

    SCAN Meta-GGA XC Functional
(10.1103/PhysRevLett.115.036402)
    J. Sun, A. Ruzsinszky, J. P. Perdew  Phys. Rev. Lett. 115, 036402, 2015


    Deriv               =              1
    GGA                 =           TRUE
    Meta                =           TRUE

    Exchange Hybrid     =          FALSE
    MP2 Hybrid          =          FALSE

   => Exchange Functionals <=

    1.0000   XC_MGGA_X_SCAN

   => Correlation Functionals <=

    1.0000   XC_MGGA_C_SCAN

   => LibXC Density Thresholds  <==

    XC_MGGA_C_SCAN:  1.00E-15 
    XC_MGGA_X_SCAN:  1.00E-15 

   => Molecular Quadrature <=

    Radial Scheme          =       TREUTLER
    Pruning Scheme         =           NONE
    Nuclear Scheme         =       TREUTLER

    BS radius alpha        =              1
    Pruning alpha          =              1
    Radial Points          =             75
    Spherical Points       =            302
    Total Points           =          88580
    Total Blocks           =            722
    Max Points             =            256
    Max Functions          =             88
    Weights Tolerance      =       1.00E-15

   => Loading Basis Set <=

    Name: (DEF2-TZVPPD AUX)
    Role: JKFIT
    Keyword: DF_BASIS_SCF
    atoms 1   entry C          line   198 file /mnt/storage/home/zw18965/.conda/envs/p4env/share/psi4/basis/def2-universal-jkfit.gbs 
    atoms 2-4 entry H          line    18 file /mnt/storage/home/zw18965/.conda/envs/p4env/share/psi4/basis/def2-universal-jkfit.gbs 

  ==> Integral Setup <==

  DFHelper Memory: AOs need 0.011 GiB; user supplied 83.268 GiB. Using in-core AOs.

  ==> MemDFJK: Density-Fitted J/K Matrices <==

    J tasked:                   Yes
    K tasked:                    No
    wK tasked:                   No
    OpenMP threads:              28
    Memory [MiB]:             85266
    Algorithm:                 Core
    Schwarz Cutoff:           1E-12
    Mask sparsity (%):       0.0000
    Fitting Condition:        1E-10

   => Auxiliary Basis Set <=

  Basis Set: (DEF2-TZVPPD AUX)
    Blend: DEF2-UNIVERSAL-JKFIT
    Number of shells: 43
    Number of basis functions: 129
    Number of Cartesian functions: 149
    Spherical Harmonics?: true
    Max angular momentum: 4

  Cached 100.0% of DFT collocation blocks in 0.551 [GiB].

  Minimum eigenvalue in the overlap matrix is 6.3181553827E-05.
  Reciprocal condition number of the overlap matrix is 8.9107266358E-06.
    Using symmetric orthogonalization.

  ==> Pre-Iterations <==

  SCF Guess: Superposition of Atomic Densities via on-the-fly atomic UHF (no occupation information).

   -------------------------
    Irrep   Nso     Nmo    
   -------------------------
     A1        37      37 
     A2        10      10 
     B1        24      24 
     B2        17      17 
   -------------------------
    Total      88      88
   -------------------------

  ==> Iterations <==

                           Total Energy        Delta E     RMS |[F,P]|

   @DF-UKS iter SAD:   -39.33704227020135   -3.93370e+01   0.00000e+00 
   @DF-UKS iter   1:   -39.68283876005052   -3.45796e-01   1.11992e-02 DIIS
   @DF-UKS iter   2:   -39.64940924031477    3.34295e-02   1.16539e-02 DIIS
   @DF-UKS iter   3:   -39.83522330453719   -1.85814e-01   6.43433e-04 DIIS
   @DF-UKS iter   4:   -39.83581194328459   -5.88639e-04   1.06075e-04 DIIS
   @DF-UKS iter   5:   -39.83582903767658   -1.70944e-05   1.96437e-05 DIIS
   @DF-UKS iter   6:   -39.83582990073991   -8.63063e-07   5.00522e-06 DIIS
   @DF-UKS iter   7:   -39.83582999470542   -9.39655e-08   8.94950e-07 DIIS
  Energy and wave function converged.


  ==> Post-Iterations <==

   Electrons on quadrature grid:
      Nalpha   =    5.0000004607 ; deviation = 4.607e-07
      Nbeta    =    3.9999998352 ; deviation = -1.648e-07
      Ntotal   =    9.0000002959 ; deviation = 2.959e-07 

   @Spin Contamination Metric:   6.562100355E-03
   @S^2 Expected:                7.500000000E-01
   @S^2 Observed:                7.565621004E-01
   @S   Expected:                5.000000000E-01
   @S   Observed:                5.000000000E-01

    Orbital Energies [Eh]
    ---------------------

    Alpha Occupied:                                                       

       1A1   -10.041319     2A1    -0.655493     1B1    -0.389035  
       3A1    -0.388917     1B2    -0.218488  

    Alpha Virtual:                                                        

       4A1     0.029227     2B1     0.115706     5A1     0.115769  
       6A1     0.148485     7A1     0.149392     3B1     0.149418  
       2B2     0.181411     1A2     0.203905     3B2     0.203938  
       8A1     0.243423     4B1     0.303466     9A1     0.303509  
      10A1     0.325975     5B1     0.327026     2A2     0.360467  
       4B2     0.360514     5B2     0.442876    11A1     0.444679  
       6B1     0.444690    12A1     0.453329    13A1     0.479781  
       7B1     0.479788    14A1     0.729468     3A2     0.746038  
       6B2     0.746067     8B1     0.747447    15A1     0.747498  
      16A1     0.903633     9B1     0.903633     7B2     1.005935  
      10B1     1.008757    17A1     1.032660     4A2     1.257509  
       8B2     1.257511    18A1     1.459739    11B1     1.500325  
      19A1     1.500368    20A1     1.513209    12B1     1.513538  
       9B2     1.641856    21A1     1.778860    13B1     1.810436  
      22A1     1.810623    23A1     2.669558    14B1     2.669564  
       5A2     2.739926    10B2     2.739953    24A1     2.784569  
      11B2     2.957023    25A1     2.979509    15B1     2.979761  
      16B1     3.004034    26A1     3.059047     6A2     3.098892  
      12B2     3.098914     7A2     3.313841    17B1     3.603489  
      27A1     3.603874    28A1     3.684700     8A2     3.809185  
      13B2     3.809275    18B1     3.828101    29A1     3.828157  
      14B2     4.060259    30A1     4.086145    19B1     4.109929  
      31A1     4.116645    20B1     4.116886    15B2     4.306666  
       9A2     4.306887    16B2     4.757139    32A1     4.833729  
      21B1     4.834111    33A1     5.099572    22B1     5.099581  
      10A2     5.154456    17B2     5.154588    34A1     5.595575  
      35A1     5.631425    23B1     5.631521    36A1     5.819050  
      24B1     6.431669    37A1    23.518747  

    Beta Occupied:                                                        

       1A1   -10.027027     2A1    -0.607443     1B1    -0.380468  
       3A1    -0.380279  

    Beta Virtual:                                                         

       1B2    -0.074047     4A1     0.058575     2B1     0.152276  
       5A1     0.152372     6A1     0.174712     7A1     0.183510  
       3B1     0.183615     2B2     0.239751     1A2     0.239803  
       3B2     0.257769     8A1     0.297396     4B1     0.394537  
       5B1     0.413825     9A1     0.414146     2A2     0.427394  
       4B2     0.427583    10A1     0.469954    11A1     0.475868  
       5B2     0.514549    12A1     0.537389     6B1     0.537481  
      13A1     0.559848     7B1     0.560428     3A2     0.787748  
       6B2     0.788249    14A1     0.830396     8B1     0.840971  
      15A1     0.841593     9B1     0.918215    16A1     0.918306  
      10B1     1.032608     7B2     1.035550    17A1     1.085795  
       4A2     1.297253     8B2     1.297676    18A1     1.483839  
      19A1     1.516432    11B1     1.516955    12B1     1.545145  
      20A1     1.545857     9B2     1.718190    21A1     1.815944  
      22A1     1.839382    13B1     1.840037    23A1     2.668766  
      14B1     2.668904    10B2     2.743692     5A2     2.743775  
      24A1     2.775204    11B2     2.977865    15B1     2.980457  
      25A1     2.980658    16B1     3.011194    26A1     3.122527  
       6A2     3.134939    12B2     3.135570     7A2     3.268749  
      27A1     3.589985    17B1     3.591572    28A1     3.662507  
       8A2     3.773825    13B2     3.774101    29A1     3.812011  
      18B1     3.812848    14B2     4.003608    19B1     4.045373  
      30A1     4.060709    31A1     4.061070    20B1     4.061104  
       9A2     4.252830    15B2     4.253905    16B2     4.701036  
      32A1     4.794139    21B1     4.794842    22B1     5.056819  
      33A1     5.057116    17B2     5.109804    10A2     5.111556  
      34A1     5.560352    23B1     5.578694    35A1     5.578891  
      36A1     5.767116    24B1     6.382192    37A1    23.505331  

    Final Occupation by Irrep:
             A1    A2    B1    B2 
    DOCC [     3,    0,    1,    0 ]
    SOCC [     0,    0,    0,    1 ]

  @DF-UKS Final Energy:   -39.83582999470542

   => Energetics <=

    Nuclear Repulsion Energy =              9.6923735875796986
    One-Electron Energy =                 -71.7055775704332632
    Two-Electron Energy =                  28.6631236995687821
    DFT Exchange-Correlation Energy =      -6.4855651214206356
    Empirical Dispersion Energy =          -0.0001845900000000
    VV10 Nonlocal Energy =                  0.0000000000000000
    Total Energy =                        -39.8358299947054206

  UHF NO Occupations:
  HONO-2 :    2 A1 1.9997134
  HONO-1 :    3 A1 1.9972792
  HONO-0 :    1 B2 1.0000000
  LUNO+0 :    4 A1 0.0027208
  LUNO+1 :    5 A1 0.0002866
  LUNO+2 :    2 B1 0.0002756
  LUNO+3 :    6 A1 0.0000018


Computation Completed


Properties will be evaluated at   0.000000,   0.000000,   0.000000 [a0]

Properties computed using the SCF density matrix

  Nuclear Dipole Moment: [e a0]
     X:     0.0000      Y:     0.0000      Z:     0.0000

  Electronic Dipole Moment: [e a0]
     X:     0.0000      Y:     0.0000      Z:    -0.0007

  Dipole Moment: [e a0]
     X:     0.0000      Y:     0.0000      Z:    -0.0007     Total:     0.0007

  Dipole Moment: [D]
     X:     0.0000      Y:     0.0000      Z:    -0.0018     Total:     0.0018


*** tstop() called on compute297.bc4.acrc.priv at Sun Nov  7 05:09:31 2021
Module time:
	user time   =     229.88 seconds =       3.83 minutes
	system time =      15.33 seconds =       0.26 minutes
	total time  =         10 seconds =       0.17 minutes
Total time:
	user time   =     229.88 seconds =       3.83 minutes
	system time =      15.33 seconds =       0.26 minutes
	total time  =         10 seconds =       0.17 minutes

    Psi4 stopped on: Sunday, 07 November 2021 05:09AM
    Psi4 wall time for execution: 0:00:10.83

*** Psi4 exiting successfully. Buy a developer a beer!
