
    -----------------------------------------------------------------------
          Psi4: An Open-Source Ab Initio Electronic Structure Package
                               Psi4 1.4.1 release

                         Git: Rev {HEAD} cd00f19 


    D. G. A. Smith, L. A. Burns, A. C. Simmonett, R. M. Parrish,
    M. C. Schieber, R. Galvelis, P. Kraus, H. Kruse, R. Di Remigio,
    A. Alenaizan, A. M. James, S. Lehtola, J. P. Misiewicz, M. Scheurer,
    R. A. Shaw, J. B. Schriber, Y. Xie, Z. L. Glick, D. A. Sirianni,
    J. S. O'Brien, J. M. Waldrop, A. Kumar, E. G. Hohenstein,
    B. P. Pritchard, B. R. Brooks, H. F. Schaefer III, A. Yu. Sokolov,
    K. Patkowski, A. E. DePrince III, U. Bozkaya, R. A. King,
    F. A. Evangelista, J. M. Turney, T. D. Crawford, C. D. Sherrill,
    J. Chem. Phys. 152(18) 184108 (2020). https://doi.org/10.1063/5.0006002

                            Additional Code Authors
    E. T. Seidl, C. L. Janssen, E. F. Valeev, M. L. Leininger,
    J. F. Gonthier, R. M. Richard, H. R. McAlexander, M. Saitow, X. Wang,
    P. Verma, and M. H. Lechner

             Previous Authors, Complete List of Code Contributors,
                       and Citations for Specific Modules
    https://github.com/psi4/psi4/blob/master/codemeta.json
    https://github.com/psi4/psi4/graphs/contributors
    http://psicode.org/psi4manual/master/introduction.html#citing-psifour

    -----------------------------------------------------------------------


    Psi4 started on: Sunday, 07 November 2021 05:10AM

    Process ID: 24037
    Host:       compute500.bc4.acrc.priv
    PSIDATADIR: /mnt/storage/home/zw18965/.conda/envs/p4env/share/psi4
    Memory:     500.0 MiB
    Threads:    28
    
  ==> Input File <==

--------------------------------------------------------------------------
memory 120 GB

molecule {
1 5
C          0.00000        0.00000        0.00000
H          0.00000        0.00000        1.10000
H          1.03709        0.00000       -0.36667
H         -0.51855        0.89815       -0.36667
Cr        -0.89567       -1.55134       -0.63333
 }

set reference uks
set dynamic_level 1
set basis Def2-TZVPPD

energy("SCAN-D3BJ")
--------------------------------------------------------------------------

  Memory set to 111.759 GiB by Python driver.

Scratch directory: /tmp/

*** tstart() called on compute500.bc4.acrc.priv
*** at Sun Nov  7 05:10:21 2021

   => Loading Basis Set <=

    Name: DEF2-TZVPPD
    Role: ORBITAL
    Keyword: BASIS
    atoms 1   entry C          line   144 file /mnt/storage/home/zw18965/.conda/envs/p4env/share/psi4/basis/def2-tzvppd.gbs 
    atoms 2-4 entry H          line    14 file /mnt/storage/home/zw18965/.conda/envs/p4env/share/psi4/basis/def2-tzvppd.gbs 
    atoms 5   entry CR         line   985 file /mnt/storage/home/zw18965/.conda/envs/p4env/share/psi4/basis/def2-tzvppd.gbs 

   => SCAN-D3(BJ): Empirical Dispersion <=

    Grimme's -D3 (BJ-damping) Dispersion Correction
    Grimme S.; Ehrlich S.; Goerigk L. (2011), J. Comput. Chem., 32: 1456
    Parametrisation from:    J.G. Brandenburg, J. E. Bates, J. Sun, J.P. Perdew, Phys. Rev. B 94, 115144, 2016

        s6 =       1.000000
        s8 =       0.000000
        a1 =       0.538000
        a2 =       5.420000


         ---------------------------------------------------------
                                   SCF
               by Justin Turney, Rob Parrish, Andy Simmonett
                          and Daniel G. A. Smith
                              UKS Reference
                       28 Threads, 114440 MiB Core
         ---------------------------------------------------------

  ==> Geometry <==

    Molecular point group: c1
    Full point group: C1

    Geometry (in Angstrom), charge = 1, multiplicity = 5:

       Center              X                  Y                   Z               Mass       
    ------------   -----------------  -----------------  -----------------  -----------------
         C            0.686920859714     1.189777030930     0.485723086351    12.000000000000
         H            0.686920859714     1.189777030930     1.585723086351     1.007825032230
         H            1.724010859714     1.189777030930     0.119053086351     1.007825032230
         H            0.168370859714     2.087927030930     0.119053086351     1.007825032230
         CR          -0.208749140286    -0.361562969070    -0.147606913649    51.940506230000

  Running in c1 symmetry.

  Rotational constants: A =      5.18388  B =      0.35603  C =      0.35603 [cm^-1]
  Rotational constants: A = 155408.77023  B =  10673.57504  C =  10673.57318 [MHz]
  Nuclear repulsion =   64.934375232826056

  Charge       = 1
  Multiplicity = 5
  Electrons    = 32
  Nalpha       = 18
  Nbeta        = 14

  ==> Algorithm <==

  SCF Algorithm Type is DF.
  DIIS enabled.
  MOM disabled.
  Fractional occupation disabled.
  Guess Type is SAD.
  Energy threshold   = 1.00e-06
  Density threshold  = 1.00e-06
  Integral threshold = 1.00e-12

  ==> Primary Basis <==

  Basis Set: DEF2-TZVPPD
    Blend: DEF2-TZVPPD
    Number of shells: 53
    Number of basis functions: 155
    Number of Cartesian functions: 180
    Spherical Harmonics?: true
    Max angular momentum: 4

  ==> DFT Potential <==

   => Composite Functional: SCAN-D3BJ <= 

    SCAN Meta-GGA XC Functional
(10.1103/PhysRevLett.115.036402)
    J. Sun, A. Ruzsinszky, J. P. Perdew  Phys. Rev. Lett. 115, 036402, 2015


    Deriv               =              1
    GGA                 =           TRUE
    Meta                =           TRUE

    Exchange Hybrid     =          FALSE
    MP2 Hybrid          =          FALSE

   => Exchange Functionals <=

    1.0000   XC_MGGA_X_SCAN

   => Correlation Functionals <=

    1.0000   XC_MGGA_C_SCAN

   => LibXC Density Thresholds  <==

    XC_MGGA_C_SCAN:  1.00E-15 
    XC_MGGA_X_SCAN:  1.00E-15 

   => Molecular Quadrature <=

    Radial Scheme          =       TREUTLER
    Pruning Scheme         =           NONE
    Nuclear Scheme         =       TREUTLER

    BS radius alpha        =              1
    Pruning alpha          =              1
    Radial Points          =             75
    Spherical Points       =            302
    Total Points           =         109586
    Total Blocks           =            887
    Max Points             =            256
    Max Functions          =            155
    Weights Tolerance      =       1.00E-15

   => Loading Basis Set <=

    Name: (DEF2-TZVPPD AUX)
    Role: JKFIT
    Keyword: DF_BASIS_SCF
    atoms 1   entry C          line   198 file /mnt/storage/home/zw18965/.conda/envs/p4env/share/psi4/basis/def2-universal-jkfit.gbs 
    atoms 2-4 entry H          line    18 file /mnt/storage/home/zw18965/.conda/envs/p4env/share/psi4/basis/def2-universal-jkfit.gbs 
    atoms 5   entry CR         line  1726 file /mnt/storage/home/zw18965/.conda/envs/p4env/share/psi4/basis/def2-universal-jkfit.gbs 

  ==> Integral Setup <==

  DFHelper Memory: AOs need 0.083 GiB; user supplied 82.753 GiB. Using in-core AOs.

  ==> MemDFJK: Density-Fitted J/K Matrices <==

    J tasked:                   Yes
    K tasked:                    No
    wK tasked:                   No
    OpenMP threads:              28
    Memory [MiB]:             84738
    Algorithm:                 Core
    Schwarz Cutoff:           1E-12
    Mask sparsity (%):       0.1249
    Fitting Condition:        1E-10

   => Auxiliary Basis Set <=

  Basis Set: (DEF2-TZVPPD AUX)
    Blend: DEF2-UNIVERSAL-JKFIT
    Number of shells: 101
    Number of basis functions: 393
    Number of Cartesian functions: 526
    Spherical Harmonics?: true
    Max angular momentum: 6

  Cached 100.0% of DFT collocation blocks in 1.066 [GiB].

  Minimum eigenvalue in the overlap matrix is 3.7668344833E-05.
  Reciprocal condition number of the overlap matrix is 4.0192041876E-06.
    Using symmetric orthogonalization.

  ==> Pre-Iterations <==

  SCF Guess: Superposition of Atomic Densities via on-the-fly atomic UHF (no occupation information).

   -------------------------
    Irrep   Nso     Nmo    
   -------------------------
     A        155     155 
   -------------------------
    Total     155     155
   -------------------------

  ==> Iterations <==

                           Total Energy        Delta E     RMS |[F,P]|

   @DF-UKS iter SAD: -1083.62883613607778   -1.08363e+03   0.00000e+00 
   @DF-UKS iter   1: -1083.27245437174201    3.56382e-01   1.08300e-02 DIIS
   @DF-UKS iter   2: -1077.35431256074821    5.91814e+00   2.10860e-02 DIIS
   @DF-UKS iter   3: -1082.95375293080360   -5.59944e+00   1.14806e-02 DIIS
   @DF-UKS iter   4: -1083.19263709634834   -2.38884e-01   1.02407e-02 DIIS
   @DF-UKS iter   5: -1084.08631149002144   -8.93674e-01   2.64875e-03 DIIS
   @DF-UKS iter   6: -1084.14961519453254   -6.33037e-02   1.20146e-03 DIIS
   @DF-UKS iter   7: -1084.16291093443351   -1.32957e-02   3.79121e-04 DIIS
   @DF-UKS iter   8: -1084.16424150234684   -1.33057e-03   8.07705e-05 DIIS
   @DF-UKS iter   9: -1084.16430180552175   -6.03032e-05   2.26762e-05 DIIS
   @DF-UKS iter  10: -1084.16430751779808   -5.71228e-06   4.80196e-06 DIIS
   @DF-UKS iter  11: -1084.16430795185897   -4.34061e-07   3.51088e-06 DIIS
   @DF-UKS iter  12: -1084.16430811451528   -1.62656e-07   4.85963e-07 DIIS
  Energy and wave function converged.


  ==> Post-Iterations <==

   Electrons on quadrature grid:
      Nalpha   =   17.9999982105 ; deviation = -1.790e-06
      Nbeta    =   13.9999975898 ; deviation = -2.410e-06
      Ntotal   =   31.9999958002 ; deviation = -4.200e-06 

   @Spin Contamination Metric:   8.782928788E-02
   @S^2 Expected:                6.000000000E+00
   @S^2 Observed:                6.087829288E+00
   @S   Expected:                2.000000000E+00
   @S   Observed:                2.000000000E+00

    Orbital Energies [Eh]
    ---------------------

    Alpha Occupied:                                                       

       1A   -215.606647     2A    -24.760873     3A    -21.037212  
       4A    -21.032279     5A    -21.032279     6A    -10.190208  
       7A     -3.112714     8A     -2.067853     9A     -2.067852  
      10A     -2.047362    11A     -0.825606    12A     -0.565236  
      13A     -0.565216    14A     -0.474213    15A     -0.444082  
      16A     -0.444068    17A     -0.433917    18A     -0.433886  

    Alpha Virtual:                                                        

      19A     -0.376301    20A     -0.283165    21A     -0.203113  
      22A     -0.203106    23A     -0.120320    24A     -0.075230  
      25A     -0.068643    26A     -0.068608    27A     -0.056709  
      28A     -0.056706    29A     -0.038985    30A     -0.036469  
      31A     -0.036458    32A     -0.002684    33A      0.000099  
      34A      0.000146    35A      0.025779    36A      0.059818  
      37A      0.059832    38A      0.090662    39A      0.151901  
      40A      0.152006    41A      0.168522    42A      0.168541  
      43A      0.171418    44A      0.190789    45A      0.190850  
      46A      0.190902    47A      0.195955    48A      0.205964  
      49A      0.205987    50A      0.217331    51A      0.274289  
      52A      0.298688    53A      0.298789    54A      0.342130  
      55A      0.342936    56A      0.342949    57A      0.379731  
      58A      0.379836    59A      0.407856    60A      0.533869  
      61A      0.533942    62A      0.588541    63A      0.588603  
      64A      0.599709    65A      0.626096    66A      0.650354  
      67A      0.650436    68A      0.867676    69A      0.878296  
      70A      0.878424    71A      0.913170    72A      0.969762  
      73A      0.969799    74A      1.088542    75A      1.088732  
      76A      1.095506    77A      1.237782    78A      1.248602  
      79A      1.377362    80A      1.423413    81A      1.423510  
      82A      1.503709    83A      1.509128    84A      1.509295  
      85A      1.547601    86A      1.547671    87A      1.635220  
      88A      1.635245    89A      1.645186    90A      1.742193  
      91A      1.789365    92A      1.817265    93A      1.817342  
      94A      1.843653    95A      1.843684    96A      1.852394  
      97A      2.050485    98A      2.050605    99A      2.289842  
     100A      2.618831   101A      2.621097   102A      2.621254  
     103A      2.735876   104A      2.832508   105A      2.833028  
     106A      2.846222   107A      2.846517   108A      3.012220  
     109A      3.016385   110A      3.016539   111A      3.240665  
     112A      3.365539   113A      3.365901   114A      3.455763  
     115A      3.455828   116A      3.484507   117A      3.733618  
     118A      3.771747   119A      3.771932   120A      3.877976  
     121A      3.982674   122A      3.983020   123A      4.088435  
     124A      4.175100   125A      4.175436   126A      4.240204  
     127A      4.544597   128A      4.544740   129A      4.588212  
     130A      4.997699   131A      4.998187   132A      5.081253  
     133A      5.097249   134A      5.205372   135A      5.302772  
     136A      5.302893   137A      5.380322   138A      5.380408  
     139A      5.382585   140A      5.388490   141A      5.459740  
     142A      5.460322   143A      5.529436   144A      5.529653  
     145A      5.573421   146A      5.573575   147A      5.599621  
     148A      5.955450   149A      5.964380   150A      6.041534  
     151A      6.041813   152A      6.250719   153A      6.250733  
     154A      6.348005   155A     23.125740  

    Beta Occupied:                                                        

       1A   -215.606924     2A    -24.731850     3A    -21.008833  
       4A    -20.991795     5A    -20.991793     6A    -10.195482  
       7A     -2.926383     8A     -1.897590     9A     -1.859376  
      10A     -1.859375    11A     -0.835285    12A     -0.557767  
      13A     -0.557747    14A     -0.457810  

    Beta Virtual:                                                         

      15A     -0.282505    16A     -0.251732    17A     -0.251693  
      18A     -0.245176    19A     -0.245129    20A     -0.219847  
      21A     -0.147570    22A     -0.147478    23A     -0.106763  
      24A     -0.051283    25A     -0.051269    26A     -0.045895  
      27A     -0.034619    28A     -0.034607    29A     -0.024829  
      30A     -0.011965    31A     -0.011942    32A      0.020534  
      33A      0.020603    34A      0.030560    35A      0.036388  
      36A      0.071506    37A      0.071546    38A      0.115491  
      39A      0.167227    40A      0.167353    41A      0.187860  
      42A      0.187961    43A      0.190724    44A      0.197914  
      45A      0.214407    46A      0.219085    47A      0.219161  
      48A      0.227838    49A      0.235146    50A      0.235162  
      51A      0.331596    52A      0.354657    53A      0.354734  
      54A      0.365957    55A      0.381444    56A      0.381566  
      57A      0.415364    58A      0.415405    59A      0.447181  
      60A      0.585063    61A      0.585166    62A      0.606571  
      63A      0.606797    64A      0.614574    65A      0.666034  
      66A      0.666342    67A      0.671712    68A      0.875369  
      69A      0.898731    70A      0.899222    71A      0.937479  
      72A      0.997979    73A      0.998335    74A      1.116091  
      75A      1.146278    76A      1.146556    77A      1.353716  
      78A      1.417345    79A      1.437389    80A      1.503378  
      81A      1.503480    82A      1.556772    83A      1.590556  
      84A      1.590734    85A      1.624251    86A      1.624332  
      87A      1.695981    88A      1.748628    89A      1.748691  
      90A      1.835628    91A      1.932175    92A      1.982096  
      93A      1.983419    94A      1.983539    95A      2.008251  
      96A      2.008353    97A      2.161497    98A      2.161649  
      99A      2.325750   100A      2.643392   101A      2.644121  
     102A      2.644397   103A      2.746687   104A      2.846746  
     105A      2.846835   106A      2.887289   107A      2.887724  
     108A      3.024615   109A      3.024827   110A      3.058050  
     111A      3.263335   112A      3.392237   113A      3.392600  
     114A      3.491110   115A      3.491357   116A      3.515809  
     117A      3.771199   118A      3.802637   119A      3.802704  
     120A      3.918012   121A      4.011815   122A      4.012027  
     123A      4.116418   124A      4.210179   125A      4.210469  
     126A      4.281265   127A      4.577978   128A      4.578427  
     129A      4.623756   130A      5.039278   131A      5.039489  
     132A      5.121130   133A      5.129464   134A      5.237427  
     135A      5.342936   136A      5.343093   137A      5.569130  
     138A      5.569284   139A      5.611282   140A      5.611517  
     141A      5.620900   142A      5.625354   143A      5.679305  
     144A      5.680512   145A      5.753740   146A      5.753776  
     147A      5.791138   148A      6.191803   149A      6.200315  
     150A      6.280664   151A      6.281043   152A      6.478278  
     153A      6.478317   154A      6.507743   155A     23.134549  

    Final Occupation by Irrep:
              A 
    DOCC [    14 ]
    SOCC [     4 ]

  @DF-UKS Final Energy: -1084.16430811451528

   => Energetics <=

    Nuclear Repulsion Energy =             64.9343752328260564
    One-Electron Energy =               -1612.0021993591763021
    Two-Electron Energy =                 518.0861225069803595
    DFT Exchange-Correlation Energy =     -55.1821090651454114
    Empirical Dispersion Energy =          -0.0004974300000000
    VV10 Nonlocal Energy =                  0.0000000000000000
    Total Energy =                      -1084.1643081145150518

  UHF NO Occupations:
  HONO-2 :   16  A 1.0000000
  HONO-1 :   17  A 1.0000000
  HONO-0 :   18  A 1.0000000
  LUNO+0 :   19  A 0.0439208
  LUNO+1 :   20  A 0.0002358
  LUNO+2 :   21  A 0.0002342
  LUNO+3 :   22  A 0.0002221


Computation Completed


Properties will be evaluated at   0.000000,   0.000000,   0.000000 [a0]

Properties computed using the SCF density matrix

  Nuclear Dipole Moment: [e a0]
     X:     3.1952      Y:     5.5343      Z:     2.2594

  Electronic Dipole Moment: [e a0]
     X:    -3.6534      Y:    -6.3277      Z:    -2.5834

  Dipole Moment: [e a0]
     X:    -0.4581      Y:    -0.7934      Z:    -0.3240     Total:     0.9718

  Dipole Moment: [D]
     X:    -1.1645      Y:    -2.0167      Z:    -0.8236     Total:     2.4700


*** tstop() called on compute500.bc4.acrc.priv at Sun Nov  7 05:10:48 2021
Module time:
	user time   =     679.63 seconds =      11.33 minutes
	system time =      30.76 seconds =       0.51 minutes
	total time  =         27 seconds =       0.45 minutes
Total time:
	user time   =     679.63 seconds =      11.33 minutes
	system time =      30.76 seconds =       0.51 minutes
	total time  =         27 seconds =       0.45 minutes

    Psi4 stopped on: Sunday, 07 November 2021 05:10AM
    Psi4 wall time for execution: 0:00:27.57

*** Psi4 exiting successfully. Buy a developer a beer!
