
    -----------------------------------------------------------------------
          Psi4: An Open-Source Ab Initio Electronic Structure Package
                               Psi4 1.4.1 release

                         Git: Rev {HEAD} cd00f19 


    D. G. A. Smith, L. A. Burns, A. C. Simmonett, R. M. Parrish,
    M. C. Schieber, R. Galvelis, P. Kraus, H. Kruse, R. Di Remigio,
    A. Alenaizan, A. M. James, S. Lehtola, J. P. Misiewicz, M. Scheurer,
    R. A. Shaw, J. B. Schriber, Y. Xie, Z. L. Glick, D. A. Sirianni,
    J. S. O'Brien, J. M. Waldrop, A. Kumar, E. G. Hohenstein,
    B. P. Pritchard, B. R. Brooks, H. F. Schaefer III, A. Yu. Sokolov,
    K. Patkowski, A. E. DePrince III, U. Bozkaya, R. A. King,
    F. A. Evangelista, J. M. Turney, T. D. Crawford, C. D. Sherrill,
    J. Chem. Phys. 152(18) 184108 (2020). https://doi.org/10.1063/5.0006002

                            Additional Code Authors
    E. T. Seidl, C. L. Janssen, E. F. Valeev, M. L. Leininger,
    J. F. Gonthier, R. M. Richard, H. R. McAlexander, M. Saitow, X. Wang,
    P. Verma, and M. H. Lechner

             Previous Authors, Complete List of Code Contributors,
                       and Citations for Specific Modules
    https://github.com/psi4/psi4/blob/master/codemeta.json
    https://github.com/psi4/psi4/graphs/contributors
    http://psicode.org/psi4manual/master/introduction.html#citing-psifour

    -----------------------------------------------------------------------


    Psi4 started on: Sunday, 07 November 2021 05:10AM

    Process ID: 2741
    Host:       compute348.bc4.acrc.priv
    PSIDATADIR: /mnt/storage/home/zw18965/.conda/envs/p4env/share/psi4
    Memory:     500.0 MiB
    Threads:    28
    
  ==> Input File <==

--------------------------------------------------------------------------
memory 120 GB

molecule {
0 2
Cu         0.00000        0.00000        0.00000
 }

set reference uks
set dynamic_level 1
set basis Def2-TZVPPD

energy("SCAN-D3BJ")
--------------------------------------------------------------------------

  Memory set to 111.759 GiB by Python driver.

Scratch directory: /tmp/

*** tstart() called on compute348.bc4.acrc.priv
*** at Sun Nov  7 05:10:21 2021

   => Loading Basis Set <=

    Name: DEF2-TZVPPD
    Role: ORBITAL
    Keyword: BASIS
    atoms 1 entry CU         line  1290 file /mnt/storage/home/zw18965/.conda/envs/p4env/share/psi4/basis/def2-tzvppd.gbs 

   => SCAN-D3(BJ): Empirical Dispersion <=

    Grimme's -D3 (BJ-damping) Dispersion Correction
    Grimme S.; Ehrlich S.; Goerigk L. (2011), J. Comput. Chem., 32: 1456
    Parametrisation from:    J.G. Brandenburg, J. E. Bates, J. Sun, J.P. Perdew, Phys. Rev. B 94, 115144, 2016

        s6 =       1.000000
        s8 =       0.000000
        a1 =       0.538000
        a2 =       5.420000


         ---------------------------------------------------------
                                   SCF
               by Justin Turney, Rob Parrish, Andy Simmonett
                          and Daniel G. A. Smith
                              UKS Reference
                       28 Threads, 114440 MiB Core
         ---------------------------------------------------------

  ==> Geometry <==

    Molecular point group: d2h
    Geometry (in Angstrom), charge = 0, multiplicity = 2:

       Center              X                  Y                   Z               Mass       
    ------------   -----------------  -----------------  -----------------  -----------------
         CU           0.000000000000     0.000000000000     0.000000000000    62.929597720000

  Running in d2h symmetry.

  Rotational constants: A = ************  B = ************  C = ************ [cm^-1]
  Rotational constants: A = ************  B = ************  C = ************ [MHz]
  Nuclear repulsion =    0.000000000000000

  Charge       = 0
  Multiplicity = 2
  Electrons    = 29
  Nalpha       = 15
  Nbeta        = 14

  ==> Algorithm <==

  SCF Algorithm Type is DF.
  DIIS enabled.
  MOM disabled.
  Fractional occupation disabled.
  Guess Type is CORE.
  Energy threshold   = 1.00e-06
  Density threshold  = 1.00e-06
  Integral threshold = 1.00e-12

  ==> Primary Basis <==

  Basis Set: DEF2-TZVPPD
    Blend: DEF2-TZVPPD
    Number of shells: 19
    Number of basis functions: 67
    Number of Cartesian functions: 83
    Spherical Harmonics?: true
    Max angular momentum: 4

  ==> DFT Potential <==

   => Composite Functional: SCAN-D3BJ <= 

    SCAN Meta-GGA XC Functional
(10.1103/PhysRevLett.115.036402)
    J. Sun, A. Ruzsinszky, J. P. Perdew  Phys. Rev. Lett. 115, 036402, 2015


    Deriv               =              1
    GGA                 =           TRUE
    Meta                =           TRUE

    Exchange Hybrid     =          FALSE
    MP2 Hybrid          =          FALSE

   => Exchange Functionals <=

    1.0000   XC_MGGA_X_SCAN

   => Correlation Functionals <=

    1.0000   XC_MGGA_C_SCAN

   => LibXC Density Thresholds  <==

    XC_MGGA_C_SCAN:  1.00E-15 
    XC_MGGA_X_SCAN:  1.00E-15 

   => Molecular Quadrature <=

    Radial Scheme          =       TREUTLER
    Pruning Scheme         =           NONE
    Nuclear Scheme         =       TREUTLER

    BS radius alpha        =              1
    Pruning alpha          =              1
    Radial Points          =             75
    Spherical Points       =            302
    Total Points           =          21738
    Total Blocks           =            245
    Max Points             =            245
    Max Functions          =             67
    Weights Tolerance      =       1.00E-15

   => Loading Basis Set <=

    Name: (DEF2-TZVPPD AUX)
    Role: JKFIT
    Keyword: DF_BASIS_SCF
    atoms 1 entry CU         line  2356 file /mnt/storage/home/zw18965/.conda/envs/p4env/share/psi4/basis/def2-universal-jkfit.gbs 

  ==> Integral Setup <==

  DFHelper Memory: AOs need 0.012 GiB; user supplied 83.735 GiB. Using in-core AOs.

  ==> MemDFJK: Density-Fitted J/K Matrices <==

    J tasked:                   Yes
    K tasked:                    No
    wK tasked:                   No
    OpenMP threads:              28
    Memory [MiB]:             85744
    Algorithm:                 Core
    Schwarz Cutoff:           1E-12
    Mask sparsity (%):       0.0000
    Fitting Condition:        1E-10

   => Auxiliary Basis Set <=

  Basis Set: (DEF2-TZVPPD AUX)
    Blend: DEF2-UNIVERSAL-JKFIT
    Number of shells: 58
    Number of basis functions: 264
    Number of Cartesian functions: 377
    Spherical Harmonics?: true
    Max angular momentum: 6

  Cached 100.0% of DFT collocation blocks in 0.084 [GiB].

  Minimum eigenvalue in the overlap matrix is 5.2350090433E-02.
  Reciprocal condition number of the overlap matrix is 1.9381610677E-02.
    Using symmetric orthogonalization.

  ==> Pre-Iterations <==

  SCF Guess: Core (One-Electron) Hamiltonian.

   -------------------------------------------------------
    Irrep   Nso     Nmo     Nalpha   Nbeta   Ndocc  Nsocc
   -------------------------------------------------------
     Ag        17      17       5       5       5       0
     B1g        6       6       1       1       1       0
     B2g        6       6       1       1       1       0
     B3g        6       6       1       1       1       0
     Au         2       2       0       0       0       0
     B1u       10      10       2       2       2       0
     B2u       10      10       2       2       2       0
     B3u       10      10       3       2       2       1
   -------------------------------------------------------
    Total      67      67      15      14      14       1
   -------------------------------------------------------

  ==> Iterations <==

                           Total Energy        Delta E     RMS |[F,P]|

    Occupation by irrep:
             Ag   B1g   B2g   B3g    Au   B1u   B2u   B3u 
    DOCC [     5,    0,    0,    0,    0,    3,    3,    3 ]
    SOCC [     0,    0,    0,    1,    0,    0,    0,    0 ]

   @DF-UKS iter   1: -1589.20771101323294   -1.58921e+03   4.38941e-01 DIIS
    Occupation by irrep:
             Ag   B1g   B2g   B3g    Au   B1u   B2u   B3u 
    DOCC [     5,    1,    1,    1,    0,    2,    2,    2 ]
    SOCC [     1,    0,    0,    0,    0,    0,    0,    0 ]

   @DF-UKS iter   2: -1518.92162873804182    7.02861e+01   5.23625e-01 DIIS
   @DF-UKS iter   3: -1638.12327949331029   -1.19202e+02   1.33148e-01 DIIS
   @DF-UKS iter   4: -1638.90989482246141   -7.86615e-01   1.19701e-01 DIIS
   @DF-UKS iter   5: -1640.57176556884406   -1.66187e+00   2.56076e-02 DIIS
   @DF-UKS iter   6: -1640.66404267513576   -9.22771e-02   5.35245e-03 DIIS
   @DF-UKS iter   7: -1640.66793350878243   -3.89083e-03   1.40811e-03 DIIS
   @DF-UKS iter   8: -1640.66799960422577   -6.60954e-05   1.07547e-03 DIIS
   @DF-UKS iter   9: -1640.66813875576281   -1.39152e-04   1.13479e-04 DIIS
   @DF-UKS iter  10: -1640.66814270354780   -3.94778e-06   9.27727e-06 DIIS
   @DF-UKS iter  11: -1640.66814279040796   -8.68602e-08   7.46886e-06 DIIS
   @DF-UKS iter  12: -1640.66814279877190   -8.36394e-09   8.29687e-07 DIIS
  Energy and wave function converged.


  ==> Post-Iterations <==

   Electrons on quadrature grid:
      Nalpha   =   14.9999999797 ; deviation = -2.027e-08
      Nbeta    =   13.9999999798 ; deviation = -2.025e-08
      Ntotal   =   28.9999999595 ; deviation = -4.052e-08 

   @Spin Contamination Metric:   5.788469284E-03
   @S^2 Expected:                7.500000000E-01
   @S^2 Observed:                7.557884693E-01
   @S   Expected:                5.000000000E-01
   @S   Observed:                5.000000000E-01

    Orbital Energies [Eh]
    ---------------------

    Alpha Occupied:                                                       

       1Ag  -322.367796     2Ag   -38.614930     1B1u  -33.797798  
       1B3u  -33.797798     1B2u  -33.797798     3Ag    -4.239879  
       2B1u   -2.708680     2B3u   -2.708680     2B2u   -2.708680  
       1B3g   -0.195214     1B2g   -0.195214     4Ag    -0.195214  
       1B1g   -0.195214     5Ag    -0.195214     6Ag    -0.186204  

    Alpha Virtual:                                                        

       3B2u   -0.028051     3B3u   -0.028051     3B1u   -0.028051  
       7Ag     0.089420     4B2u    0.143204     4B3u    0.143204  
       4B1u    0.143204     8Ag     0.169805     2B1g    0.169805  
       9Ag     0.169805     2B2g    0.169805     2B3g    0.169805  
       5B2u    0.639738     5B3u    0.639738     5B1u    0.639738  
      10Ag     0.862768     3B1g    0.862768    11Ag     0.862769  
       3B3g    0.862769     3B2g    0.862769    12Ag     2.884928  
       6B3u    2.987985     6B2u    2.987985     6B1u    2.987985  
       7B3u    3.435116     7B2u    3.435116     7B1u    3.435116  
       1Au     3.435116     8B2u    3.435116     8B3u    3.435116  
       8B1u    3.435116    13Ag     3.666241     4B1g    3.666241  
       4B3g    3.666241     4B2g    3.666241    14Ag     3.666241  
      15Ag    13.152905     5B1g   13.152905     5B2g   13.152905  
       5B3g   13.152905     6B2g   13.152905     6B3g   13.152905  
      16Ag    13.152905     6B1g   13.152905    17Ag    13.152905  
       9B3u   13.235073     9B1u   13.235073     9B2u   13.235073  
       2Au    13.235073    10B1u   13.235073    10B3u   13.235073  
      10B2u   13.235073  

    Beta Occupied:                                                        

       1Ag  -322.365346     2Ag   -38.619687     1B1u  -33.800657  
       1B2u  -33.800657     1B3u  -33.800657     3Ag    -4.245224  
       2B2u   -2.713618     2B3u   -2.713617     2B1u   -2.713617  
       4Ag    -0.189870     1B1g   -0.189870     5Ag    -0.189870  
       1B3g   -0.189870     1B2g   -0.189870  

    Beta Virtual:                                                         

       6Ag    -0.124163     3B1u    0.008674     3B3u    0.008674  
       3B2u    0.008674     7Ag     0.104901     4B1u    0.143649  
       4B3u    0.143649     4B2u    0.143649     2B2g    0.196297  
       8Ag     0.196297     2B3g    0.196297     2B1g    0.196297  
       9Ag     0.196297     5B1u    0.668102     5B3u    0.668102  
       5B2u    0.668102     3B2g    0.893771     3B3g    0.893771  
      10Ag     0.893771     3B1g    0.893771    11Ag     0.893771  
      12Ag     2.886777     6B2u    2.990428     6B3u    2.990428  
       6B1u    2.990428     7B2u    3.444515     7B3u    3.444515  
       7B1u    3.444515     1Au     3.444515     8B1u    3.444515  
       8B2u    3.444515     8B3u    3.444515    13Ag     3.665060  
       4B1g    3.665060    14Ag     3.665060     4B3g    3.665060  
       4B2g    3.665060    15Ag    13.159984     5B1g   13.159984  
       5B3g   13.159984     5B2g   13.159984    16Ag    13.159984  
       6B1g   13.159984     6B3g   13.159984     6B2g   13.159984  
      17Ag    13.159984     9B2u   13.236526     9B3u   13.236526  
       9B1u   13.236526    10B2u   13.236526     2Au    13.236526  
      10B1u   13.236526    10B3u   13.236526  

    Final Occupation by Irrep:
             Ag   B1g   B2g   B3g    Au   B1u   B2u   B3u 
    DOCC [     5,    1,    1,    1,    0,    2,    2,    2 ]
    SOCC [     1,    0,    0,    0,    0,    0,    0,    0 ]

  @DF-UKS Final Energy: -1640.66814279877190

   => Energetics <=

    Nuclear Repulsion Energy =              0.0000000000000000
    One-Electron Energy =               -2288.0235145872602516
    Two-Electron Energy =                 714.7555560349624102
    DFT Exchange-Correlation Energy =     -67.4001842464739838
    Empirical Dispersion Energy =           0.0000000000000000
    VV10 Nonlocal Energy =                  0.0000000000000000
    Total Energy =                      -1640.6681427987718962

  UHF NO Occupations:
  HONO-2 :    1B1g 1.9994239
  HONO-1 :    5 Ag 1.9994239
  HONO-0 :    6 Ag 1.0000000
  LUNO+0 :    7 Ag 0.0005761
  LUNO+1 :    2B1g 0.0005761
  LUNO+2 :    8 Ag 0.0005761
  LUNO+3 :    2B3g 0.0005761


Computation Completed


Properties will be evaluated at   0.000000,   0.000000,   0.000000 [a0]

Properties computed using the SCF density matrix

  Nuclear Dipole Moment: [e a0]
     X:     0.0000      Y:     0.0000      Z:     0.0000

  Electronic Dipole Moment: [e a0]
     X:     0.0000      Y:     0.0000      Z:     0.0000

  Dipole Moment: [e a0]
     X:     0.0000      Y:     0.0000      Z:     0.0000     Total:     0.0000

  Dipole Moment: [D]
     X:     0.0000      Y:     0.0000      Z:     0.0000     Total:     0.0000


*** tstop() called on compute348.bc4.acrc.priv at Sun Nov  7 05:10:25 2021
Module time:
	user time   =      74.30 seconds =       1.24 minutes
	system time =       2.76 seconds =       0.05 minutes
	total time  =          4 seconds =       0.07 minutes
Total time:
	user time   =      74.30 seconds =       1.24 minutes
	system time =       2.76 seconds =       0.05 minutes
	total time  =          4 seconds =       0.07 minutes

    Psi4 stopped on: Sunday, 07 November 2021 05:10AM
    Psi4 wall time for execution: 0:00:04.44

*** Psi4 exiting successfully. Buy a developer a beer!
