
    -----------------------------------------------------------------------
          Psi4: An Open-Source Ab Initio Electronic Structure Package
                               Psi4 1.4.1 release

                         Git: Rev {HEAD} cd00f19 


    D. G. A. Smith, L. A. Burns, A. C. Simmonett, R. M. Parrish,
    M. C. Schieber, R. Galvelis, P. Kraus, H. Kruse, R. Di Remigio,
    A. Alenaizan, A. M. James, S. Lehtola, J. P. Misiewicz, M. Scheurer,
    R. A. Shaw, J. B. Schriber, Y. Xie, Z. L. Glick, D. A. Sirianni,
    J. S. O'Brien, J. M. Waldrop, A. Kumar, E. G. Hohenstein,
    B. P. Pritchard, B. R. Brooks, H. F. Schaefer III, A. Yu. Sokolov,
    K. Patkowski, A. E. DePrince III, U. Bozkaya, R. A. King,
    F. A. Evangelista, J. M. Turney, T. D. Crawford, C. D. Sherrill,
    J. Chem. Phys. 152(18) 184108 (2020). https://doi.org/10.1063/5.0006002

                            Additional Code Authors
    E. T. Seidl, C. L. Janssen, E. F. Valeev, M. L. Leininger,
    J. F. Gonthier, R. M. Richard, H. R. McAlexander, M. Saitow, X. Wang,
    P. Verma, and M. H. Lechner

             Previous Authors, Complete List of Code Contributors,
                       and Citations for Specific Modules
    https://github.com/psi4/psi4/blob/master/codemeta.json
    https://github.com/psi4/psi4/graphs/contributors
    http://psicode.org/psi4manual/master/introduction.html#citing-psifour

    -----------------------------------------------------------------------


    Psi4 started on: Sunday, 07 November 2021 05:09AM

    Process ID: 15066
    Host:       compute416.bc4.acrc.priv
    PSIDATADIR: /mnt/storage/home/zw18965/.conda/envs/p4env/share/psi4
    Memory:     500.0 MiB
    Threads:    28
    
  ==> Input File <==

--------------------------------------------------------------------------
memory 120 GB

molecule {
0 1
Cu         0.00000        0.00000        0.00000
Ag         0.00000        0.00000        2.25929
 }

set dynamic_level 1
set basis Def2-TZVPPD

energy("SCAN-D3BJ")
--------------------------------------------------------------------------

  Memory set to 111.759 GiB by Python driver.

Scratch directory: /tmp/

*** tstart() called on compute416.bc4.acrc.priv
*** at Sun Nov  7 05:09:21 2021

   => Loading Basis Set <=

    Name: DEF2-TZVPPD
    Role: ORBITAL
    Keyword: BASIS
    atoms 1 entry CU         line  1290 file /mnt/storage/home/zw18965/.conda/envs/p4env/share/psi4/basis/def2-tzvppd.gbs 
    atoms 2 entry AG         line  2174 (ECP: line  3646) file /mnt/storage/home/zw18965/.conda/envs/p4env/share/psi4/basis/def2-tzvppd.gbs 

    !!!  WARNING: ECP capability is in beta. Please check occupations closely.  !!!

   => SCAN-D3(BJ): Empirical Dispersion <=

    Grimme's -D3 (BJ-damping) Dispersion Correction
    Grimme S.; Ehrlich S.; Goerigk L. (2011), J. Comput. Chem., 32: 1456
    Parametrisation from:    J.G. Brandenburg, J. E. Bates, J. Sun, J.P. Perdew, Phys. Rev. B 94, 115144, 2016

        s6 =       1.000000
        s8 =       0.000000
        a1 =       0.538000
        a2 =       5.420000


         ---------------------------------------------------------
                                   SCF
               by Justin Turney, Rob Parrish, Andy Simmonett
                          and Daniel G. A. Smith
                              RKS Reference
                       28 Threads, 114440 MiB Core
         ---------------------------------------------------------

  ==> Geometry <==

    Molecular point group: c2v
    Full point group: C_inf_v

    Geometry (in Angstrom), charge = 0, multiplicity = 1:

       Center              X                  Y                   Z               Mass       
    ------------   -----------------  -----------------  -----------------  -----------------
         CU           0.000000000000     0.000000000000    -1.422145295334    62.929597720000
         AG           0.000000000000     0.000000000000     0.837144704666   106.905091600000

  Running in c2v symmetry.

  Rotational constants: A = ************  B =      0.08337  C =      0.08337 [cm^-1]
  Rotational constants: A = ************  B =   2499.46060  C =   2499.46060 [MHz]
  Nuclear repulsion =  129.056758131612156

  Charge       = 0
  Multiplicity = 1
  Electrons    = 48
  Nalpha       = 24
  Nbeta        = 24

  ==> Algorithm <==

  SCF Algorithm Type is DF.
  DIIS enabled.
  MOM disabled.
  Fractional occupation disabled.
  Guess Type is SAD.
  Energy threshold   = 1.00e-06
  Density threshold  = 1.00e-06
  Integral threshold = 1.00e-12

  ==> Primary Basis <==

  Basis Set: DEF2-TZVPPD
    Blend: DEF2-TZVPPD
    Number of shells: 35
    Number of basis functions: 123
    Number of Cartesian functions: 154
    Spherical Harmonics?: true
    Max angular momentum: 4

  Core potential: DEF2-TZVPPD
    Number of shells: 4
    Number of ECP primitives: 14
    Number of ECP core electrons: 28
    Max angular momentum: 3

  ==> DFT Potential <==

   => Composite Functional: SCAN-D3BJ <= 

    SCAN Meta-GGA XC Functional
(10.1103/PhysRevLett.115.036402)
    J. Sun, A. Ruzsinszky, J. P. Perdew  Phys. Rev. Lett. 115, 036402, 2015


    Deriv               =              1
    GGA                 =           TRUE
    Meta                =           TRUE

    Exchange Hybrid     =          FALSE
    MP2 Hybrid          =          FALSE

   => Exchange Functionals <=

    1.0000   XC_MGGA_X_SCAN

   => Correlation Functionals <=

    1.0000   XC_MGGA_C_SCAN

   => LibXC Density Thresholds  <==

    XC_MGGA_C_SCAN:  1.00E-15 
    XC_MGGA_X_SCAN:  1.00E-15 

   => Molecular Quadrature <=

    Radial Scheme          =       TREUTLER
    Pruning Scheme         =           NONE
    Nuclear Scheme         =       TREUTLER

    BS radius alpha        =              1
    Pruning alpha          =              1
    Radial Points          =             75
    Spherical Points       =            302
    Total Points           =          42944
    Total Blocks           =            427
    Max Points             =            256
    Max Functions          =            121
    Weights Tolerance      =       1.00E-15

   => Loading Basis Set <=

    Name: (DEF2-TZVPPD AUX)
    Role: JKFIT
    Keyword: DF_BASIS_SCF
    atoms 1 entry CU         line  2356 file /mnt/storage/home/zw18965/.conda/envs/p4env/share/psi4/basis/def2-universal-jkfit.gbs 
    atoms 2 entry AG         line  4364 file /mnt/storage/home/zw18965/.conda/envs/p4env/share/psi4/basis/def2-universal-jkfit.gbs 

  ==> Integral Setup <==

  DFHelper Memory: AOs need 0.067 GiB; user supplied 83.548 GiB. Using in-core AOs.

  ==> MemDFJK: Density-Fitted J/K Matrices <==

    J tasked:                   Yes
    K tasked:                    No
    wK tasked:                   No
    OpenMP threads:              28
    Memory [MiB]:             85552
    Algorithm:                 Core
    Schwarz Cutoff:           1E-12
    Mask sparsity (%):       1.5070
    Fitting Condition:        1E-10

   => Auxiliary Basis Set <=

  Basis Set: (DEF2-TZVPPD AUX)
    Blend: DEF2-UNIVERSAL-JKFIT
    Number of shells: 107
    Number of basis functions: 519
    Number of Cartesian functions: 761
    Spherical Harmonics?: true
    Max angular momentum: 6

  Cached 100.0% of DFT collocation blocks in 0.271 [GiB].

  Minimum eigenvalue in the overlap matrix is 1.3894909060E-03.
  Reciprocal condition number of the overlap matrix is 3.1777066296E-04.
    Using symmetric orthogonalization.

  ==> Pre-Iterations <==

  SCF Guess: Superposition of Atomic Densities via on-the-fly atomic UHF (no occupation information).

   -------------------------
    Irrep   Nso     Nmo    
   -------------------------
     A1        50      50 
     A2        15      15 
     B1        29      29 
     B2        29      29 
   -------------------------
    Total     123     123
   -------------------------

  ==> Iterations <==

                           Total Energy        Delta E     RMS |[F,P]|

   @DF-RKS iter SAD: -1785.29515734100846   -1.78530e+03   0.00000e+00 
    Occupation by irrep:
             A1    A2    B1    B2 
    DOCC [    12,    1,    5,    6 ]

   @DF-RKS iter   1: -1782.28454317735986    3.01061e+00   7.74805e-02 DIIS
    Occupation by irrep:
             A1    A2    B1    B2 
    DOCC [    12,    2,    5,    5 ]

   @DF-RKS iter   2: -1729.87259260018118    5.24120e+01   1.61092e-01 DIIS
    Occupation by irrep:
             A1    A2    B1    B2 
    DOCC [    12,    1,    6,    5 ]

   @DF-RKS iter   3: -1786.61341943520119   -5.67408e+01   2.67403e-02 DIIS
    Occupation by irrep:
             A1    A2    B1    B2 
    DOCC [    12,    2,    5,    5 ]

   @DF-RKS iter   4: -1754.12369138638132    3.24897e+01   1.12665e-01 DIIS
   @DF-RKS iter   5: -1787.48203645461899   -3.33583e+01   1.23809e-02 DIIS
   @DF-RKS iter   6: -1787.67400474840542   -1.91968e-01   6.95583e-03 DIIS
   @DF-RKS iter   7: -1787.72192551129365   -4.79208e-02   2.76317e-03 DIIS
   @DF-RKS iter   8: -1787.73067231980303   -8.74681e-03   1.24309e-03 DIIS
   @DF-RKS iter   9: -1787.73279181211205   -2.11949e-03   5.02539e-04 DIIS
   @DF-RKS iter  10: -1787.73279783297062   -6.02086e-06   4.19173e-04 DIIS
   @DF-RKS iter  11: -1787.73299376252839   -1.95930e-04   2.01745e-05 DIIS
   @DF-RKS iter  12: -1787.73299517977148   -1.41724e-06   7.22319e-06 DIIS
   @DF-RKS iter  13: -1787.73299527197469   -9.22032e-08   7.46112e-07 DIIS
  Energy and wave function converged.


  ==> Post-Iterations <==

   Electrons on quadrature grid:
      Ntotal   =   47.9999966888 ; deviation = -3.311e-06 

    Orbital Energies [Eh]
    ---------------------

    Doubly Occupied:                                                      

       1A1  -322.368616     2A1   -38.622509     3A1   -33.804600  
       1B1   -33.803779     1B2   -33.803779     4A1    -4.246404  
       5A1    -3.684336     6A1    -2.718445     2B2    -2.712686  
       2B1    -2.712686     7A1    -2.276602     3B1    -2.268956  
       3B2    -2.268956     8A1    -0.303172     4B1    -0.284996  
       4B2    -0.284996     9A1    -0.269411     1A2    -0.269372  
      10A1    -0.205304     5B1    -0.191141     5B2    -0.191141  
       2A2    -0.191091    11A1    -0.191048    12A1    -0.187482  

    Virtual:                                                              

      13A1    -0.103022     6B1    -0.032566     6B2    -0.032566  
      14A1    -0.005425     7B1     0.046508     7B2     0.046508  
      15A1     0.069948    16A1     0.112688     8B1     0.134178  
       8B2     0.134178    17A1     0.152656    18A1     0.180186  
       3A2     0.194831    19A1     0.194836     9B1     0.207570  
       9B2     0.207570    20A1     0.270721    10B1     0.270983  
      10B2     0.270983    21A1     0.448528    22A1     0.451524  
       4A2     0.451528    11B1     0.574523    11B2     0.574523  
      23A1     0.636966    12B2     0.677521    12B1     0.677521  
      24A1     0.746202    25A1     0.898191     5A2     0.898255  
      13B2     0.901585    13B1     0.901585    26A1     1.014068  
      27A1     1.593213     6A2     1.593307    14B2     1.594691  
      14B1     1.594691    15B1     1.629034    15B2     1.629034  
      16B1     1.676006    16B2     1.676006    28A1     1.683373  
      29A1     1.784771     7A2     2.060600    30A1     2.060604  
      17B1     2.148162    17B2     2.148162    31A1     2.160237  
      32A1     2.285981    18B2     3.016858    18B1     3.016858  
      33A1     3.115557    34A1     3.180942    35A1     3.440834  
       8A2     3.440835    19B1     3.444840    19B2     3.444840  
      20B2     3.456481    20B1     3.456481    36A1     3.572525  
       9A2     3.671787    37A1     3.671972    21B2     3.711548  
      21B1     3.711548    38A1     3.956283    22B1     4.881561  
      22B2     4.881561    10A2     4.882211    39A1     4.882378  
      23B1     4.944138    23B2     4.944138    40A1     5.160531  
      11A2     5.637008    41A1     5.637009    24B2     5.639948  
      24B1     5.639948    42A1     5.643417    25B1     5.643844  
      25B2     5.643844    12A2     5.644025    43A1     5.665301  
      26B2    13.149389    26B1    13.149389    13A2    13.150207  
      44A1    13.150865    45A1    13.152004    27B1    13.153889  
      27B2    13.153889    46A1    13.156778    14A2    13.157135  
      15A2    13.231066    47A1    13.231583    28B1    13.233168  
      28B2    13.233168    29B1    13.239670    29B2    13.239670  
      48A1    13.283959    49A1    33.634679    50A1   110.921539  

    Final Occupation by Irrep:
             A1    A2    B1    B2 
    DOCC [    12,    2,    5,    5 ]

  @DF-RKS Final Energy: -1787.73299527197469

   => Energetics <=

    Nuclear Repulsion Energy =            129.0567581316121561
    One-Electron Energy =               -2807.3085655256850259
    Two-Electron Energy =                 972.1111100865709886
    DFT Exchange-Correlation Energy =     -81.5921250544728025
    Empirical Dispersion Energy =          -0.0001729100000000
    VV10 Nonlocal Energy =                  0.0000000000000000
    Total Energy =                      -1787.7329952719744597

Computation Completed


Properties will be evaluated at   0.000000,   0.000000,   0.000000 [a0]

Properties computed using the SCF density matrix

  Nuclear Dipole Moment: [e a0]
     X:     0.0000      Y:     0.0000      Z:   -47.8790

  Electronic Dipole Moment: [e a0]
     X:     0.0000      Y:     0.0000      Z:    47.8664

  Dipole Moment: [e a0]
     X:     0.0000      Y:     0.0000      Z:    -0.0126     Total:     0.0126

  Dipole Moment: [D]
     X:     0.0000      Y:     0.0000      Z:    -0.0321     Total:     0.0321


*** tstop() called on compute416.bc4.acrc.priv at Sun Nov  7 05:09:28 2021
Module time:
	user time   =      68.16 seconds =       1.14 minutes
	system time =       2.97 seconds =       0.05 minutes
	total time  =          7 seconds =       0.12 minutes
Total time:
	user time   =      68.16 seconds =       1.14 minutes
	system time =       2.97 seconds =       0.05 minutes
	total time  =          7 seconds =       0.12 minutes

    Psi4 stopped on: Sunday, 07 November 2021 05:09AM
    Psi4 wall time for execution: 0:00:07.77

*** Psi4 exiting successfully. Buy a developer a beer!
