
    -----------------------------------------------------------------------
          Psi4: An Open-Source Ab Initio Electronic Structure Package
                               Psi4 1.4.1 release

                         Git: Rev {HEAD} cd00f19 


    D. G. A. Smith, L. A. Burns, A. C. Simmonett, R. M. Parrish,
    M. C. Schieber, R. Galvelis, P. Kraus, H. Kruse, R. Di Remigio,
    A. Alenaizan, A. M. James, S. Lehtola, J. P. Misiewicz, M. Scheurer,
    R. A. Shaw, J. B. Schriber, Y. Xie, Z. L. Glick, D. A. Sirianni,
    J. S. O'Brien, J. M. Waldrop, A. Kumar, E. G. Hohenstein,
    B. P. Pritchard, B. R. Brooks, H. F. Schaefer III, A. Yu. Sokolov,
    K. Patkowski, A. E. DePrince III, U. Bozkaya, R. A. King,
    F. A. Evangelista, J. M. Turney, T. D. Crawford, C. D. Sherrill,
    J. Chem. Phys. 152(18) 184108 (2020). https://doi.org/10.1063/5.0006002

                            Additional Code Authors
    E. T. Seidl, C. L. Janssen, E. F. Valeev, M. L. Leininger,
    J. F. Gonthier, R. M. Richard, H. R. McAlexander, M. Saitow, X. Wang,
    P. Verma, and M. H. Lechner

             Previous Authors, Complete List of Code Contributors,
                       and Citations for Specific Modules
    https://github.com/psi4/psi4/blob/master/codemeta.json
    https://github.com/psi4/psi4/graphs/contributors
    http://psicode.org/psi4manual/master/introduction.html#citing-psifour

    -----------------------------------------------------------------------


    Psi4 started on: Sunday, 07 November 2021 05:09AM

    Process ID: 17301
    Host:       compute423.bc4.acrc.priv
    PSIDATADIR: /mnt/storage/home/zw18965/.conda/envs/p4env/share/psi4
    Memory:     500.0 MiB
    Threads:    28
    
  ==> Input File <==

--------------------------------------------------------------------------
memory 120 GB

molecule {
1 1
Cu         0.00000        0.00000       -0.49385
O          0.00000        0.00000        1.33615
H         -0.83138        0.00000        1.81615
H          0.83138        0.00000        1.81615
 }

set dynamic_level 1
set basis Def2-TZVPPD

energy("SCAN-D3BJ")
--------------------------------------------------------------------------

  Memory set to 111.759 GiB by Python driver.

Scratch directory: /tmp/

*** tstart() called on compute423.bc4.acrc.priv
*** at Sun Nov  7 05:09:21 2021

   => Loading Basis Set <=

    Name: DEF2-TZVPPD
    Role: ORBITAL
    Keyword: BASIS
    atoms 1   entry CU         line  1290 file /mnt/storage/home/zw18965/.conda/envs/p4env/share/psi4/basis/def2-tzvppd.gbs 
    atoms 2   entry O          line   218 file /mnt/storage/home/zw18965/.conda/envs/p4env/share/psi4/basis/def2-tzvppd.gbs 
    atoms 3-4 entry H          line    14 file /mnt/storage/home/zw18965/.conda/envs/p4env/share/psi4/basis/def2-tzvppd.gbs 

   => SCAN-D3(BJ): Empirical Dispersion <=

    Grimme's -D3 (BJ-damping) Dispersion Correction
    Grimme S.; Ehrlich S.; Goerigk L. (2011), J. Comput. Chem., 32: 1456
    Parametrisation from:    J.G. Brandenburg, J. E. Bates, J. Sun, J.P. Perdew, Phys. Rev. B 94, 115144, 2016

        s6 =       1.000000
        s8 =       0.000000
        a1 =       0.538000
        a2 =       5.420000


         ---------------------------------------------------------
                                   SCF
               by Justin Turney, Rob Parrish, Andy Simmonett
                          and Daniel G. A. Smith
                              RKS Reference
                       28 Threads, 114440 MiB Core
         ---------------------------------------------------------

  ==> Geometry <==

    Molecular point group: c2v
    Full point group: C2v

    Geometry (in Angstrom), charge = 1, multiplicity = 1:

       Center              X                  Y                   Z               Mass       
    ------------   -----------------  -----------------  -----------------  -----------------
         CU           0.000000000000    -0.000000000000    -0.419159591420    62.929597720000
         O            0.000000000000    -0.000000000000     1.410840408580    15.994914619570
         H           -0.831380000000    -0.000000000000     1.890840408580     1.007825032230
         H            0.831380000000     0.000000000000     1.890840408580     1.007825032230

  Running in c2v symmetry.

  Rotational constants: A =     12.09991  B =      0.33648  C =      0.32737 [cm^-1]
  Rotational constants: A = 362746.23798  B =  10087.34150  C =   9814.41957 [MHz]
  Nuclear repulsion =   88.726523002405358

  Charge       = 1
  Multiplicity = 1
  Electrons    = 38
  Nalpha       = 19
  Nbeta        = 19

  ==> Algorithm <==

  SCF Algorithm Type is DF.
  DIIS enabled.
  MOM disabled.
  Fractional occupation disabled.
  Guess Type is SAD.
  Energy threshold   = 1.00e-06
  Density threshold  = 1.00e-06
  Integral threshold = 1.00e-12

  ==> Primary Basis <==

  Basis Set: DEF2-TZVPPD
    Blend: DEF2-TZVPPD
    Number of shells: 47
    Number of basis functions: 141
    Number of Cartesian functions: 165
    Spherical Harmonics?: true
    Max angular momentum: 4

  ==> DFT Potential <==

   => Composite Functional: SCAN-D3BJ <= 

    SCAN Meta-GGA XC Functional
(10.1103/PhysRevLett.115.036402)
    J. Sun, A. Ruzsinszky, J. P. Perdew  Phys. Rev. Lett. 115, 036402, 2015


    Deriv               =              1
    GGA                 =           TRUE
    Meta                =           TRUE

    Exchange Hybrid     =          FALSE
    MP2 Hybrid          =          FALSE

   => Exchange Functionals <=

    1.0000   XC_MGGA_X_SCAN

   => Correlation Functionals <=

    1.0000   XC_MGGA_C_SCAN

   => LibXC Density Thresholds  <==

    XC_MGGA_C_SCAN:  1.00E-15 
    XC_MGGA_X_SCAN:  1.00E-15 

   => Molecular Quadrature <=

    Radial Scheme          =       TREUTLER
    Pruning Scheme         =           NONE
    Nuclear Scheme         =       TREUTLER

    BS radius alpha        =              1
    Pruning alpha          =              1
    Radial Points          =             75
    Spherical Points       =            302
    Total Points           =          87793
    Total Blocks           =            725
    Max Points             =            256
    Max Functions          =            140
    Weights Tolerance      =       1.00E-15

   => Loading Basis Set <=

    Name: (DEF2-TZVPPD AUX)
    Role: JKFIT
    Keyword: DF_BASIS_SCF
    atoms 1   entry CU         line  2356 file /mnt/storage/home/zw18965/.conda/envs/p4env/share/psi4/basis/def2-universal-jkfit.gbs 
    atoms 2   entry O          line   318 file /mnt/storage/home/zw18965/.conda/envs/p4env/share/psi4/basis/def2-universal-jkfit.gbs 
    atoms 3-4 entry H          line    18 file /mnt/storage/home/zw18965/.conda/envs/p4env/share/psi4/basis/def2-universal-jkfit.gbs 

  ==> Integral Setup <==

  DFHelper Memory: AOs need 0.067 GiB; user supplied 83.109 GiB. Using in-core AOs.

  ==> MemDFJK: Density-Fitted J/K Matrices <==

    J tasked:                   Yes
    K tasked:                    No
    wK tasked:                   No
    OpenMP threads:              28
    Memory [MiB]:             85103
    Algorithm:                 Core
    Schwarz Cutoff:           1E-12
    Mask sparsity (%):       0.3923
    Fitting Condition:        1E-10

   => Auxiliary Basis Set <=

  Basis Set: (DEF2-TZVPPD AUX)
    Blend: DEF2-UNIVERSAL-JKFIT
    Number of shells: 95
    Number of basis functions: 377
    Number of Cartesian functions: 510
    Spherical Harmonics?: true
    Max angular momentum: 6

  Cached 100.0% of DFT collocation blocks in 0.710 [GiB].

  Minimum eigenvalue in the overlap matrix is 2.0118118913E-04.
  Reciprocal condition number of the overlap matrix is 2.8635659721E-05.
    Using symmetric orthogonalization.

  ==> Pre-Iterations <==

  SCF Guess: Superposition of Atomic Densities via on-the-fly atomic UHF (no occupation information).

   -------------------------
    Irrep   Nso     Nmo    
   -------------------------
     A1        57      57 
     A2        17      17 
     B1        37      37 
     B2        30      30 
   -------------------------
    Total     141     141
   -------------------------

  ==> Iterations <==

                           Total Energy        Delta E     RMS |[F,P]|

   @DF-RKS iter SAD: -1714.79605007910914   -1.71480e+03   0.00000e+00 
    Occupation by irrep:
             A1    A2    B1    B2 
    DOCC [    10,    0,    5,    4 ]

   @DF-RKS iter   1: -1713.80344737145970    9.92603e-01   5.73454e-02 DIIS
    Occupation by irrep:
             A1    A2    B1    B2 
    DOCC [    11,    1,    4,    3 ]

   @DF-RKS iter   2: -1675.38368443679133    3.84198e+01   1.19369e-01 DIIS
    Occupation by irrep:
             A1    A2    B1    B2 
    DOCC [    10,    1,    4,    4 ]

   @DF-RKS iter   3: -1713.25718597336345   -3.78735e+01   3.96072e-02 DIIS
   @DF-RKS iter   4: -1715.71430062766581   -2.45711e+00   2.59288e-02 DIIS
   @DF-RKS iter   5: -1716.23549840699616   -5.21198e-01   2.06613e-02 DIIS
   @DF-RKS iter   6: -1716.82752168978914   -5.92023e-01   6.67210e-03 DIIS
   @DF-RKS iter   7: -1716.87116884063835   -4.36472e-02   1.03592e-03 DIIS
   @DF-RKS iter   8: -1716.87313063594092   -1.96180e-03   1.96296e-04 DIIS
   @DF-RKS iter   9: -1716.87317488624080   -4.42503e-05   2.96687e-05 DIIS
   @DF-RKS iter  10: -1716.87317586956465   -9.83324e-07   1.02103e-05 DIIS
   @DF-RKS iter  11: -1716.87317596213825   -9.25736e-08   2.19288e-06 DIIS
   @DF-RKS iter  12: -1716.87317596735784   -5.21959e-09   1.62640e-07 DIIS
  Energy and wave function converged.


  ==> Post-Iterations <==

   Electrons on quadrature grid:
      Ntotal   =   37.9999961524 ; deviation = -3.848e-06 

    Orbital Energies [Eh]
    ---------------------

    Doubly Occupied:                                                      

       1A1  -322.633035     2A1   -38.882218     1B1   -34.064949  
       1B2   -34.063600     3A1   -34.063417     4A1   -19.250300  
       5A1    -4.510697     6A1    -2.983270     2B1    -2.978965  
       2B2    -2.976724     7A1    -1.261431     3B1    -0.804217  
       8A1    -0.682639     3B2    -0.574867     4B1    -0.460334  
       9A1    -0.456254     1A2    -0.456105     4B2    -0.449024  
      10A1    -0.441779  

    Virtual:                                                              

      11A1    -0.328950     5B1    -0.191388    12A1    -0.185903  
       5B2    -0.178987     6B1    -0.102026    13A1    -0.077125  
      14A1    -0.055078     6B2    -0.048265    15A1    -0.044457  
       7B1    -0.024960     7B2    -0.017165     2A2    -0.009416  
      16A1     0.001088     8B1     0.023760    17A1     0.034081  
       8B2     0.077737    18A1     0.079840     9B1     0.085514  
       3A2     0.091468    19A1     0.110685     9B2     0.151578  
      20A1     0.179923    10B1     0.187751    21A1     0.189789  
      11B1     0.197606    12B1     0.260415     4A2     0.304021  
      22A1     0.307475    10B2     0.339515    23A1     0.363846  
      11B2     0.456197    13B1     0.457676    24A1     0.484150  
      25A1     0.501828    12B2     0.525751    14B1     0.570751  
      26A1     0.664686     5A2     0.674573    13B2     0.745559  
      27A1     0.782859    15B1     0.787773    16B1     0.814909  
      28A1     0.815275     6A2     0.845930    14B2     0.906104  
      29A1     0.926521    17B1     1.030643    30A1     1.177668  
      18B1     1.269238    31A1     1.276946    15B2     1.574737  
       7A2     1.663255    32A1     1.723239    19B1     1.891973  
      33A1     2.041918    34A1     2.477755    20B1     2.534418  
      16B2     2.564406    35A1     2.565314    17B2     2.756952  
      21B1     2.806595    36A1     2.938931    37A1     3.005050  
      18B2     3.080950     8A2     3.135226    22B1     3.172685  
      19B2     3.173958    23B1     3.186787    38A1     3.192138  
       9A2     3.198150    24B1     3.214715    39A1     3.250694  
      20B2     3.303376    25B1     3.310007    40A1     3.418658  
      10A2     3.422256    41A1     3.445808    21B2     3.494990  
      26B1     3.565510    27B1     3.585867    42A1     3.643876  
      22B2     3.717060    11A2     3.756239    43A1     3.761480  
      44A1     4.044085    12A2     4.076776    23B2     4.116046  
      45A1     4.157930    28B1     4.215916    29B1     4.604237  
      46A1     4.906013    30B1     4.961869    47A1     5.096656  
      24B2     5.352856    48A1     5.797200    13A2     6.312785  
      25B2     6.322856    26B2     6.580374    14A2     6.613737  
      49A1     6.662715    31B1     6.843165    50A1     7.070257  
      32B1     7.138832    33B1     7.359002    51A1     7.875765  
      15A2    12.886248    52A1    12.886642    27B2    12.887236  
      34B1    12.887690    28B2    12.888966    35B1    12.889206  
      53A1    12.893425    54A1    12.893563    16A2    12.893596  
      29B2    12.970814    36B1    12.971051    17A2    12.977417  
      55A1    12.984130    30B2    13.007804    37B1    13.041369  
      56A1    13.197932    57A1    43.748909  

    Final Occupation by Irrep:
             A1    A2    B1    B2 
    DOCC [    10,    1,    4,    4 ]

  @DF-RKS Final Energy: -1716.87317596735784

   => Energetics <=

    Nuclear Repulsion Energy =             88.7265230024053579
    One-Electron Energy =               -2559.6091655656678086
    Two-Electron Energy =                 830.5523839775779606
    DFT Exchange-Correlation Energy =     -76.5426381716734880
    Empirical Dispersion Energy =          -0.0002792100000000
    VV10 Nonlocal Energy =                  0.0000000000000000
    Total Energy =                      -1716.8731759673578381

Computation Completed


Properties will be evaluated at   0.000000,   0.000000,   0.000000 [a0]

Properties computed using the SCF density matrix

  Nuclear Dipole Moment: [e a0]
     X:     0.0000      Y:     0.0000      Z:     5.5043

  Electronic Dipole Moment: [e a0]
     X:     0.0000      Y:     0.0000      Z:    -4.8385

  Dipole Moment: [e a0]
     X:     0.0000      Y:     0.0000      Z:     0.6658     Total:     0.6658

  Dipole Moment: [D]
     X:     0.0000      Y:     0.0000      Z:     1.6923     Total:     1.6923


*** tstop() called on compute423.bc4.acrc.priv at Sun Nov  7 05:09:25 2021
Module time:
	user time   =      56.26 seconds =       0.94 minutes
	system time =       3.63 seconds =       0.06 minutes
	total time  =          4 seconds =       0.07 minutes
Total time:
	user time   =      56.26 seconds =       0.94 minutes
	system time =       3.63 seconds =       0.06 minutes
	total time  =          4 seconds =       0.07 minutes

    Psi4 stopped on: Sunday, 07 November 2021 05:09AM
    Psi4 wall time for execution: 0:00:04.24

*** Psi4 exiting successfully. Buy a developer a beer!
