
    -----------------------------------------------------------------------
          Psi4: An Open-Source Ab Initio Electronic Structure Package
                               Psi4 1.4.1 release

                         Git: Rev {HEAD} cd00f19 


    D. G. A. Smith, L. A. Burns, A. C. Simmonett, R. M. Parrish,
    M. C. Schieber, R. Galvelis, P. Kraus, H. Kruse, R. Di Remigio,
    A. Alenaizan, A. M. James, S. Lehtola, J. P. Misiewicz, M. Scheurer,
    R. A. Shaw, J. B. Schriber, Y. Xie, Z. L. Glick, D. A. Sirianni,
    J. S. O'Brien, J. M. Waldrop, A. Kumar, E. G. Hohenstein,
    B. P. Pritchard, B. R. Brooks, H. F. Schaefer III, A. Yu. Sokolov,
    K. Patkowski, A. E. DePrince III, U. Bozkaya, R. A. King,
    F. A. Evangelista, J. M. Turney, T. D. Crawford, C. D. Sherrill,
    J. Chem. Phys. 152(18) 184108 (2020). https://doi.org/10.1063/5.0006002

                            Additional Code Authors
    E. T. Seidl, C. L. Janssen, E. F. Valeev, M. L. Leininger,
    J. F. Gonthier, R. M. Richard, H. R. McAlexander, M. Saitow, X. Wang,
    P. Verma, and M. H. Lechner

             Previous Authors, Complete List of Code Contributors,
                       and Citations for Specific Modules
    https://github.com/psi4/psi4/blob/master/codemeta.json
    https://github.com/psi4/psi4/graphs/contributors
    http://psicode.org/psi4manual/master/introduction.html#citing-psifour

    -----------------------------------------------------------------------


    Psi4 started on: Sunday, 07 November 2021 05:09AM

    Process ID: 10742
    Host:       compute431.bc4.acrc.priv
    PSIDATADIR: /mnt/storage/home/zw18965/.conda/envs/p4env/share/psi4
    Memory:     500.0 MiB
    Threads:    28
    
  ==> Input File <==

--------------------------------------------------------------------------
memory 120 GB

molecule {
0 1
O          0.00000        0.00000        0.00000
H          0.00000        0.00000        0.95691
H          0.92636        0.00000       -0.23987
 }

set dynamic_level 1
set basis Def2-TZVPPD

energy("SCAN-D3BJ")
--------------------------------------------------------------------------

  Memory set to 111.759 GiB by Python driver.

Scratch directory: /tmp/

*** tstart() called on compute431.bc4.acrc.priv
*** at Sun Nov  7 05:09:20 2021

   => Loading Basis Set <=

    Name: DEF2-TZVPPD
    Role: ORBITAL
    Keyword: BASIS
    atoms 1   entry O          line   218 file /mnt/storage/home/zw18965/.conda/envs/p4env/share/psi4/basis/def2-tzvppd.gbs 
    atoms 2-3 entry H          line    14 file /mnt/storage/home/zw18965/.conda/envs/p4env/share/psi4/basis/def2-tzvppd.gbs 

   => SCAN-D3(BJ): Empirical Dispersion <=

    Grimme's -D3 (BJ-damping) Dispersion Correction
    Grimme S.; Ehrlich S.; Goerigk L. (2011), J. Comput. Chem., 32: 1456
    Parametrisation from:    J.G. Brandenburg, J. E. Bates, J. Sun, J.P. Perdew, Phys. Rev. B 94, 115144, 2016

        s6 =       1.000000
        s8 =       0.000000
        a1 =       0.538000
        a2 =       5.420000


         ---------------------------------------------------------
                                   SCF
               by Justin Turney, Rob Parrish, Andy Simmonett
                          and Daniel G. A. Smith
                              RKS Reference
                       28 Threads, 114440 MiB Core
         ---------------------------------------------------------

  ==> Geometry <==

    Molecular point group: cs
    Full point group: Cs

    Geometry (in Angstrom), charge = 0, multiplicity = 1:

       Center              X                  Y                   Z               Mass       
    ------------   -----------------  -----------------  -----------------  -----------------
         O            0.051836731010    -0.040123720371     0.000000000000    15.994914619570
         H            0.051836731010     0.916786279629     0.000000000000     1.007825032230
         H           -0.874523268990    -0.279993720371     0.000000000000     1.007825032230

  Running in cs symmetry.

  Rotational constants: A =     27.44992  B =     14.60580  C =      9.53326 [cm^-1]
  Rotational constants: A = 822927.94090  B = 437870.75215  C = 285799.84928 [MHz]
  Nuclear repulsion =    9.197748699306425

  Charge       = 0
  Multiplicity = 1
  Electrons    = 10
  Nalpha       = 5
  Nbeta        = 5

  ==> Algorithm <==

  SCF Algorithm Type is DF.
  DIIS enabled.
  MOM disabled.
  Fractional occupation disabled.
  Guess Type is SAD.
  Energy threshold   = 1.00e-06
  Density threshold  = 1.00e-06
  Integral threshold = 1.00e-12

  ==> Primary Basis <==

  Basis Set: DEF2-TZVPPD
    Blend: DEF2-TZVPPD
    Number of shells: 28
    Number of basis functions: 74
    Number of Cartesian functions: 82
    Spherical Harmonics?: true
    Max angular momentum: 3

  ==> DFT Potential <==

   => Composite Functional: SCAN-D3BJ <= 

    SCAN Meta-GGA XC Functional
(10.1103/PhysRevLett.115.036402)
    J. Sun, A. Ruzsinszky, J. P. Perdew  Phys. Rev. Lett. 115, 036402, 2015


    Deriv               =              1
    GGA                 =           TRUE
    Meta                =           TRUE

    Exchange Hybrid     =          FALSE
    MP2 Hybrid          =          FALSE

   => Exchange Functionals <=

    1.0000   XC_MGGA_X_SCAN

   => Correlation Functionals <=

    1.0000   XC_MGGA_C_SCAN

   => LibXC Density Thresholds  <==

    XC_MGGA_C_SCAN:  1.00E-15 
    XC_MGGA_X_SCAN:  1.00E-15 

   => Molecular Quadrature <=

    Radial Scheme          =       TREUTLER
    Pruning Scheme         =           NONE
    Nuclear Scheme         =       TREUTLER

    BS radius alpha        =              1
    Pruning alpha          =              1
    Radial Points          =             75
    Spherical Points       =            302
    Total Points           =          66708
    Total Blocks           =            563
    Max Points             =            255
    Max Functions          =             74
    Weights Tolerance      =       1.00E-15

   => Loading Basis Set <=

    Name: (DEF2-TZVPPD AUX)
    Role: JKFIT
    Keyword: DF_BASIS_SCF
    atoms 1   entry O          line   318 file /mnt/storage/home/zw18965/.conda/envs/p4env/share/psi4/basis/def2-universal-jkfit.gbs 
    atoms 2-3 entry H          line    18 file /mnt/storage/home/zw18965/.conda/envs/p4env/share/psi4/basis/def2-universal-jkfit.gbs 

  ==> Integral Setup <==

  DFHelper Memory: AOs need 0.007 GiB; user supplied 83.473 GiB. Using in-core AOs.

  ==> MemDFJK: Density-Fitted J/K Matrices <==

    J tasked:                   Yes
    K tasked:                    No
    wK tasked:                   No
    OpenMP threads:              28
    Memory [MiB]:             85475
    Algorithm:                 Core
    Schwarz Cutoff:           1E-12
    Mask sparsity (%):       0.0000
    Fitting Condition:        1E-10

   => Auxiliary Basis Set <=

  Basis Set: (DEF2-TZVPPD AUX)
    Blend: DEF2-UNIVERSAL-JKFIT
    Number of shells: 37
    Number of basis functions: 113
    Number of Cartesian functions: 133
    Spherical Harmonics?: true
    Max angular momentum: 4

  Cached 100.0% of DFT collocation blocks in 0.346 [GiB].

  Minimum eigenvalue in the overlap matrix is 6.6004688097E-04.
  Reciprocal condition number of the overlap matrix is 1.0131033719E-04.
    Using symmetric orthogonalization.

  ==> Pre-Iterations <==

  SCF Guess: Superposition of Atomic Densities via on-the-fly atomic UHF (no occupation information).

   -------------------------
    Irrep   Nso     Nmo    
   -------------------------
     A'        51      51 
     A"        23      23 
   -------------------------
    Total      74      74
   -------------------------

  ==> Iterations <==

                           Total Energy        Delta E     RMS |[F,P]|

   @DF-RKS iter SAD:   -76.08774637366125   -7.60877e+01   0.00000e+00 
   @DF-RKS iter   1:   -76.25193262934074   -1.64186e-01   1.28722e-02 DIIS
   @DF-RKS iter   2:   -75.72059019430930    5.31342e-01   2.39169e-02 DIIS
   @DF-RKS iter   3:   -76.43149851995500   -7.10908e-01   1.36441e-03 DIIS
   @DF-RKS iter   4:   -76.43400523410619   -2.50671e-03   1.20580e-04 DIIS
   @DF-RKS iter   5:   -76.43401675684538   -1.15227e-05   4.37129e-05 DIIS
   @DF-RKS iter   6:   -76.43401890026634   -2.14342e-06   2.33640e-06 DIIS
   @DF-RKS iter   7:   -76.43401890443130   -4.16496e-09   4.51251e-07 DIIS
  Energy and wave function converged.


  ==> Post-Iterations <==

   Electrons on quadrature grid:
      Ntotal   =   10.0000000595 ; deviation = 5.950e-08 

    Orbital Energies [Eh]
    ---------------------

    Doubly Occupied:                                                      

       1Ap   -18.960962     2Ap    -0.982447     3Ap    -0.501262  
       4Ap    -0.357984     1App   -0.280002  

    Virtual:                                                              

       5Ap     0.004994     6Ap     0.065843     2App    0.100694  
       7Ap     0.101033     8Ap     0.153229     9Ap     0.185297  
      10Ap     0.212343     3App    0.220464     4App    0.246419  
      11Ap     0.282873    12Ap     0.290056    13Ap     0.341397  
      14Ap     0.425543    15Ap     0.440243     5App    0.475846  
      16Ap     0.516411     6App    0.535689    17Ap     0.658254  
      18Ap     0.699927     7App    0.710130    19Ap     0.723434  
      20Ap     0.885988    21Ap     0.993600     8App    0.996158  
       9App    1.067494    22Ap     1.122080    23Ap     1.208833  
      24Ap     1.338568    25Ap     1.392162    10App    1.856245  
      11App    1.918171    26Ap     1.999982    27Ap     2.106505  
      28Ap     2.241869    29Ap     2.519692    30Ap     2.733251  
      12App    2.782744    31Ap     3.064378    13App    3.207925  
      32Ap     3.318150    33Ap     3.415363    34Ap     3.484892  
      14App    3.513025    35Ap     3.520867    36Ap     3.724355  
      15App    3.919506    16App    3.961801    37Ap     4.078073  
      17App    4.203385    18App    4.274267    38Ap     4.315540  
      39Ap     4.394210    40Ap     4.812068    41Ap     4.899034  
      42Ap     5.083715    43Ap     5.338235    19App    5.761606  
      44Ap     6.367456    20App    6.557466    21App    6.590139  
      22App    6.742974    45Ap     6.753415    46Ap     6.803093  
      23App    7.015997    47Ap     7.087983    48Ap     7.615950  
      49Ap     7.775532    50Ap     7.986623    51Ap    43.871772  

    Final Occupation by Irrep:
             Ap   App 
    DOCC [     4,    1 ]

  @DF-RKS Final Energy:   -76.43401890443130

   => Energetics <=

    Nuclear Repulsion Energy =              9.1977486993064250
    One-Electron Energy =                -123.0766493287969183
    Two-Electron Energy =                  46.7510739723897899
    DFT Exchange-Correlation Energy =      -9.3061128573306124
    Empirical Dispersion Energy =          -0.0000793900000000
    VV10 Nonlocal Energy =                  0.0000000000000000
    Total Energy =                        -76.4340189044313121

Computation Completed


Properties will be evaluated at   0.000000,   0.000000,   0.000000 [a0]

Properties computed using the SCF density matrix

  Nuclear Dipole Moment: [e a0]
     X:    -0.7710      Y:     0.5968      Z:     0.0000

  Electronic Dipole Moment: [e a0]
     X:     0.1995      Y:    -0.1544      Z:     0.0000

  Dipole Moment: [e a0]
     X:    -0.5715      Y:     0.4424      Z:     0.0000     Total:     0.7227

  Dipole Moment: [D]
     X:    -1.4526      Y:     1.1244      Z:     0.0000     Total:     1.8369


*** tstop() called on compute431.bc4.acrc.priv at Sun Nov  7 05:09:22 2021
Module time:
	user time   =      20.77 seconds =       0.35 minutes
	system time =       1.81 seconds =       0.03 minutes
	total time  =          2 seconds =       0.03 minutes
Total time:
	user time   =      20.77 seconds =       0.35 minutes
	system time =       1.81 seconds =       0.03 minutes
	total time  =          2 seconds =       0.03 minutes

    Psi4 stopped on: Sunday, 07 November 2021 05:09AM
    Psi4 wall time for execution: 0:00:02.40

*** Psi4 exiting successfully. Buy a developer a beer!
