
    -----------------------------------------------------------------------
          Psi4: An Open-Source Ab Initio Electronic Structure Package
                               Psi4 1.4.1 release

                         Git: Rev {HEAD} cd00f19 


    D. G. A. Smith, L. A. Burns, A. C. Simmonett, R. M. Parrish,
    M. C. Schieber, R. Galvelis, P. Kraus, H. Kruse, R. Di Remigio,
    A. Alenaizan, A. M. James, S. Lehtola, J. P. Misiewicz, M. Scheurer,
    R. A. Shaw, J. B. Schriber, Y. Xie, Z. L. Glick, D. A. Sirianni,
    J. S. O'Brien, J. M. Waldrop, A. Kumar, E. G. Hohenstein,
    B. P. Pritchard, B. R. Brooks, H. F. Schaefer III, A. Yu. Sokolov,
    K. Patkowski, A. E. DePrince III, U. Bozkaya, R. A. King,
    F. A. Evangelista, J. M. Turney, T. D. Crawford, C. D. Sherrill,
    J. Chem. Phys. 152(18) 184108 (2020). https://doi.org/10.1063/5.0006002

                            Additional Code Authors
    E. T. Seidl, C. L. Janssen, E. F. Valeev, M. L. Leininger,
    J. F. Gonthier, R. M. Richard, H. R. McAlexander, M. Saitow, X. Wang,
    P. Verma, and M. H. Lechner

             Previous Authors, Complete List of Code Contributors,
                       and Citations for Specific Modules
    https://github.com/psi4/psi4/blob/master/codemeta.json
    https://github.com/psi4/psi4/graphs/contributors
    http://psicode.org/psi4manual/master/introduction.html#citing-psifour

    -----------------------------------------------------------------------


    Psi4 started on: Sunday, 07 November 2021 05:09AM

    Process ID: 10638
    Host:       compute133.bc4.acrc.priv
    PSIDATADIR: /mnt/storage/home/zw18965/.conda/envs/p4env/share/psi4
    Memory:     500.0 MiB
    Threads:    28
    
  ==> Input File <==

--------------------------------------------------------------------------
memory 120 GB

molecule {
0 1
Li         0.00000        0.00000        0.00000
Cl         0.00000        0.00000        2.02067
 }

set dynamic_level 1
set basis Def2-TZVPPD

energy("SCAN-D3BJ")
--------------------------------------------------------------------------

  Memory set to 111.759 GiB by Python driver.

Scratch directory: /tmp/

*** tstart() called on compute133.bc4.acrc.priv
*** at Sun Nov  7 05:09:21 2021

   => Loading Basis Set <=

    Name: DEF2-TZVPPD
    Role: ORBITAL
    Keyword: BASIS
    atoms 1 entry LI         line    50 file /mnt/storage/home/zw18965/.conda/envs/p4env/share/psi4/basis/def2-tzvppd.gbs 
    atoms 2 entry CL         line   607 file /mnt/storage/home/zw18965/.conda/envs/p4env/share/psi4/basis/def2-tzvppd.gbs 

   => SCAN-D3(BJ): Empirical Dispersion <=

    Grimme's -D3 (BJ-damping) Dispersion Correction
    Grimme S.; Ehrlich S.; Goerigk L. (2011), J. Comput. Chem., 32: 1456
    Parametrisation from:    J.G. Brandenburg, J. E. Bates, J. Sun, J.P. Perdew, Phys. Rev. B 94, 115144, 2016

        s6 =       1.000000
        s8 =       0.000000
        a1 =       0.538000
        a2 =       5.420000


         ---------------------------------------------------------
                                   SCF
               by Justin Turney, Rob Parrish, Andy Simmonett
                          and Daniel G. A. Smith
                              RKS Reference
                       28 Threads, 114440 MiB Core
         ---------------------------------------------------------

  ==> Geometry <==

    Molecular point group: c2v
    Full point group: C_inf_v

    Geometry (in Angstrom), charge = 0, multiplicity = 1:

       Center              X                  Y                   Z               Mass       
    ------------   -----------------  -----------------  -----------------  -----------------
         LI           0.000000000000     0.000000000000    -1.682999969068     7.016003436600
         CL           0.000000000000     0.000000000000     0.337670030932    34.968852682000

  Running in c2v symmetry.

  Rotational constants: A = ************  B =      0.70652  C =      0.70652 [cm^-1]
  Rotational constants: A = ************  B =  21181.07044  C =  21181.07044 [MHz]
  Nuclear repulsion =   13.355984769492297

  Charge       = 0
  Multiplicity = 1
  Electrons    = 20
  Nalpha       = 10
  Nbeta        = 10

  ==> Algorithm <==

  SCF Algorithm Type is DF.
  DIIS enabled.
  MOM disabled.
  Fractional occupation disabled.
  Guess Type is SAD.
  Energy threshold   = 1.00e-06
  Density threshold  = 1.00e-06
  Integral threshold = 1.00e-12

  ==> Primary Basis <==

  Basis Set: DEF2-TZVPPD
    Blend: DEF2-TZVPPD
    Number of shells: 27
    Number of basis functions: 73
    Number of Cartesian functions: 81
    Spherical Harmonics?: true
    Max angular momentum: 3

  ==> DFT Potential <==

   => Composite Functional: SCAN-D3BJ <= 

    SCAN Meta-GGA XC Functional
(10.1103/PhysRevLett.115.036402)
    J. Sun, A. Ruzsinszky, J. P. Perdew  Phys. Rev. Lett. 115, 036402, 2015


    Deriv               =              1
    GGA                 =           TRUE
    Meta                =           TRUE

    Exchange Hybrid     =          FALSE
    MP2 Hybrid          =          FALSE

   => Exchange Functionals <=

    1.0000   XC_MGGA_X_SCAN

   => Correlation Functionals <=

    1.0000   XC_MGGA_C_SCAN

   => LibXC Density Thresholds  <==

    XC_MGGA_C_SCAN:  1.00E-15 
    XC_MGGA_X_SCAN:  1.00E-15 

   => Molecular Quadrature <=

    Radial Scheme          =       TREUTLER
    Pruning Scheme         =           NONE
    Nuclear Scheme         =       TREUTLER

    BS radius alpha        =              1
    Pruning alpha          =              1
    Radial Points          =             75
    Spherical Points       =            302
    Total Points           =          44401
    Total Blocks           =            440
    Max Points             =            256
    Max Functions          =             72
    Weights Tolerance      =       1.00E-15

   => Loading Basis Set <=

    Name: (DEF2-TZVPPD AUX)
    Role: JKFIT
    Keyword: DF_BASIS_SCF
    atoms 1 entry LI         line    54 file /mnt/storage/home/zw18965/.conda/envs/p4env/share/psi4/basis/def2-universal-jkfit.gbs 
    atoms 2 entry CL         line   986 file /mnt/storage/home/zw18965/.conda/envs/p4env/share/psi4/basis/def2-universal-jkfit.gbs 

  ==> Integral Setup <==

  DFHelper Memory: AOs need 0.009 GiB; user supplied 83.635 GiB. Using in-core AOs.

  ==> MemDFJK: Density-Fitted J/K Matrices <==

    J tasked:                   Yes
    K tasked:                    No
    wK tasked:                   No
    OpenMP threads:              28
    Memory [MiB]:             85642
    Algorithm:                 Core
    Schwarz Cutoff:           1E-12
    Mask sparsity (%):       1.0133
    Fitting Condition:        1E-10

   => Auxiliary Basis Set <=

  Basis Set: (DEF2-TZVPPD AUX)
    Blend: DEF2-UNIVERSAL-JKFIT
    Number of shells: 55
    Number of basis functions: 179
    Number of Cartesian functions: 215
    Spherical Harmonics?: true
    Max angular momentum: 4

  Cached 100.0% of DFT collocation blocks in 0.184 [GiB].

  Minimum eigenvalue in the overlap matrix is 3.9842851479E-03.
  Reciprocal condition number of the overlap matrix is 9.3918265097E-04.
    Using symmetric orthogonalization.

  ==> Pre-Iterations <==

  SCF Guess: Superposition of Atomic Densities via on-the-fly atomic UHF (no occupation information).

   -------------------------
    Irrep   Nso     Nmo    
   -------------------------
     A1        33      33 
     A2         6       6 
     B1        17      17 
     B2        17      17 
   -------------------------
    Total      73      73
   -------------------------

  ==> Iterations <==

                           Total Energy        Delta E     RMS |[F,P]|

   @DF-RKS iter SAD:  -467.52744317822697   -4.67527e+02   0.00000e+00 
   @DF-RKS iter   1:  -467.75143599891510   -2.23993e-01   1.16212e-02 DIIS
   @DF-RKS iter   2:  -467.68077276121369    7.06632e-02   1.49824e-02 DIIS
   @DF-RKS iter   3:  -467.84835680839080   -1.67584e-01   1.84898e-03 DIIS
   @DF-RKS iter   4:  -467.85101630163541   -2.65949e-03   5.94477e-04 DIIS
   @DF-RKS iter   5:  -467.85127217515173   -2.55874e-04   4.38681e-05 DIIS
   @DF-RKS iter   6:  -467.85127313196205   -9.56810e-07   1.18534e-05 DIIS
   @DF-RKS iter   7:  -467.85127326750370   -1.35542e-07   2.54189e-07 DIIS
  Energy and wave function converged.


  ==> Post-Iterations <==

   Electrons on quadrature grid:
      Ntotal   =   20.0000005710 ; deviation = 5.710e-07 

    Orbital Energies [Eh]
    ---------------------

    Doubly Occupied:                                                      

       1A1  -101.152512     2A1    -9.290717     3A1    -7.023600  
       1B1    -7.023043     1B2    -7.023043     4A1    -1.960535  
       5A1    -0.672606     6A1    -0.247763     2B1    -0.225340  
       2B2    -0.225340  

    Virtual:                                                              

       7A1    -0.038440     3B2     0.012342     3B1     0.012342  
       8A1     0.031607     9A1     0.070324     4B2     0.078539  
       4B1     0.078539    10A1     0.112914     5B1     0.113671  
       5B2     0.113671    11A1     0.171698     1A2     0.211018  
      12A1     0.211023    13A1     0.232069     6B1     0.256964  
       6B2     0.256964    14A1     0.274242    15A1     0.366453  
       2A2     0.366509    16A1     0.434761     7B1     0.442260  
       7B2     0.442260     8B1     0.540290     8B2     0.540290  
      17A1     0.561770     9B1     0.641430     9B2     0.641430  
       3A2     0.646585    18A1     0.646611    10B1     0.680814  
      10B2     0.680814    19A1     0.717448    20A1     0.890487  
      21A1     1.122143    22A1     1.467111     4A2     1.993523  
      23A1     1.993581    11B1     2.017584    11B2     2.017584  
      24A1     2.083283    12B1     2.191189    12B2     2.191189  
       5A2     2.193388    25A1     2.193463    13B1     2.222373  
      13B2     2.222373    14B1     2.457023    14B2     2.457023  
      26A1     2.461391    27A1     2.570471    15B2     5.803440  
      15B1     5.803440    28A1     6.096190     6A2     8.225155  
      29A1     8.225474    16B1     8.243172    16B2     8.243172  
      30A1     8.307981    17B1    10.904500    17B2    10.904500  
      31A1    11.000212    32A1    14.258351    33A1    24.956214  

    Final Occupation by Irrep:
             A1    A2    B1    B2 
    DOCC [     6,    0,    2,    2 ]

  @DF-RKS Final Energy:  -467.85127326750370

   => Energetics <=

    Nuclear Repulsion Energy =             13.3559847694922968
    One-Electron Energy =                -673.6266171787806343
    Two-Electron Energy =                 222.6609186789982857
    DFT Exchange-Correlation Energy =     -30.2414483872137119
    Empirical Dispersion Energy =          -0.0001111500000000
    VV10 Nonlocal Energy =                  0.0000000000000000
    Total Energy =                       -467.8512732675037000

Computation Completed


Properties will be evaluated at   0.000000,   0.000000,   0.000000 [a0]

Properties computed using the SCF density matrix

  Nuclear Dipole Moment: [e a0]
     X:     0.0000      Y:     0.0000      Z:     1.3065

  Electronic Dipole Moment: [e a0]
     X:     0.0000      Y:     0.0000      Z:    -4.0795

  Dipole Moment: [e a0]
     X:     0.0000      Y:     0.0000      Z:    -2.7730     Total:     2.7730

  Dipole Moment: [D]
     X:     0.0000      Y:     0.0000      Z:    -7.0483     Total:     7.0483


*** tstop() called on compute133.bc4.acrc.priv at Sun Nov  7 05:09:23 2021
Module time:
	user time   =      20.83 seconds =       0.35 minutes
	system time =       1.08 seconds =       0.02 minutes
	total time  =          2 seconds =       0.03 minutes
Total time:
	user time   =      20.83 seconds =       0.35 minutes
	system time =       1.08 seconds =       0.02 minutes
	total time  =          2 seconds =       0.03 minutes

    Psi4 stopped on: Sunday, 07 November 2021 05:09AM
    Psi4 wall time for execution: 0:00:02.41

*** Psi4 exiting successfully. Buy a developer a beer!
