
    -----------------------------------------------------------------------
          Psi4: An Open-Source Ab Initio Electronic Structure Package
                               Psi4 1.4.1 release

                         Git: Rev {HEAD} cd00f19 


    D. G. A. Smith, L. A. Burns, A. C. Simmonett, R. M. Parrish,
    M. C. Schieber, R. Galvelis, P. Kraus, H. Kruse, R. Di Remigio,
    A. Alenaizan, A. M. James, S. Lehtola, J. P. Misiewicz, M. Scheurer,
    R. A. Shaw, J. B. Schriber, Y. Xie, Z. L. Glick, D. A. Sirianni,
    J. S. O'Brien, J. M. Waldrop, A. Kumar, E. G. Hohenstein,
    B. P. Pritchard, B. R. Brooks, H. F. Schaefer III, A. Yu. Sokolov,
    K. Patkowski, A. E. DePrince III, U. Bozkaya, R. A. King,
    F. A. Evangelista, J. M. Turney, T. D. Crawford, C. D. Sherrill,
    J. Chem. Phys. 152(18) 184108 (2020). https://doi.org/10.1063/5.0006002

                            Additional Code Authors
    E. T. Seidl, C. L. Janssen, E. F. Valeev, M. L. Leininger,
    J. F. Gonthier, R. M. Richard, H. R. McAlexander, M. Saitow, X. Wang,
    P. Verma, and M. H. Lechner

             Previous Authors, Complete List of Code Contributors,
                       and Citations for Specific Modules
    https://github.com/psi4/psi4/blob/master/codemeta.json
    https://github.com/psi4/psi4/graphs/contributors
    http://psicode.org/psi4manual/master/introduction.html#citing-psifour

    -----------------------------------------------------------------------


    Psi4 started on: Sunday, 07 November 2021 05:10AM

    Process ID: 20411
    Host:       compute267.bc4.acrc.priv
    PSIDATADIR: /mnt/storage/home/zw18965/.conda/envs/p4env/share/psi4
    Memory:     500.0 MiB
    Threads:    28
    
  ==> Input File <==

--------------------------------------------------------------------------
memory 120 GB

molecule {
1 5
V          0.00000        0.00000        0.00000
C          0.00000        0.00000        2.11314
O          0.00000        0.00000        3.23351
 }

set reference uks
set dynamic_level 1
set basis Def2-TZVPPD

energy("SCAN-D3BJ")
--------------------------------------------------------------------------

  Memory set to 111.759 GiB by Python driver.

Scratch directory: /tmp/

*** tstart() called on compute267.bc4.acrc.priv
*** at Sun Nov  7 05:10:21 2021

   => Loading Basis Set <=

    Name: DEF2-TZVPPD
    Role: ORBITAL
    Keyword: BASIS
    atoms 1 entry V          line   924 file /mnt/storage/home/zw18965/.conda/envs/p4env/share/psi4/basis/def2-tzvppd.gbs 
    atoms 2 entry C          line   144 file /mnt/storage/home/zw18965/.conda/envs/p4env/share/psi4/basis/def2-tzvppd.gbs 
    atoms 3 entry O          line   218 file /mnt/storage/home/zw18965/.conda/envs/p4env/share/psi4/basis/def2-tzvppd.gbs 

   => SCAN-D3(BJ): Empirical Dispersion <=

    Grimme's -D3 (BJ-damping) Dispersion Correction
    Grimme S.; Ehrlich S.; Goerigk L. (2011), J. Comput. Chem., 32: 1456
    Parametrisation from:    J.G. Brandenburg, J. E. Bates, J. Sun, J.P. Perdew, Phys. Rev. B 94, 115144, 2016

        s6 =       1.000000
        s8 =       0.000000
        a1 =       0.538000
        a2 =       5.420000


         ---------------------------------------------------------
                                   SCF
               by Justin Turney, Rob Parrish, Andy Simmonett
                          and Daniel G. A. Smith
                              UKS Reference
                       28 Threads, 114440 MiB Core
         ---------------------------------------------------------

  ==> Geometry <==

    Molecular point group: c2v
    Full point group: C_inf_v

    Geometry (in Angstrom), charge = 1, multiplicity = 5:

       Center              X                  Y                   Z               Mass       
    ------------   -----------------  -----------------  -----------------  -----------------
         V            0.000000000000     0.000000000000    -0.976418775074    50.943957040000
         C            0.000000000000     0.000000000000     1.136721224926    12.000000000000
         O            0.000000000000     0.000000000000     2.257091224926    15.994914619570

  Running in c2v symmetry.

  Rotational constants: A = ************  B =      0.11581  C =      0.11581 [cm^-1]
  Rotational constants: A = ************  B =   3471.94608  C =   3471.94608 [MHz]
  Nuclear repulsion =   87.342156794418941

  Charge       = 1
  Multiplicity = 5
  Electrons    = 36
  Nalpha       = 20
  Nbeta        = 16

  ==> Algorithm <==

  SCF Algorithm Type is DF.
  DIIS enabled.
  MOM disabled.
  Fractional occupation disabled.
  Guess Type is SAD.
  Energy threshold   = 1.00e-06
  Density threshold  = 1.00e-06
  Integral threshold = 1.00e-12

  ==> Primary Basis <==

  Basis Set: DEF2-TZVPPD
    Blend: DEF2-TZVPPD
    Number of shells: 46
    Number of basis functions: 144
    Number of Cartesian functions: 172
    Spherical Harmonics?: true
    Max angular momentum: 4

  ==> DFT Potential <==

   => Composite Functional: SCAN-D3BJ <= 

    SCAN Meta-GGA XC Functional
(10.1103/PhysRevLett.115.036402)
    J. Sun, A. Ruzsinszky, J. P. Perdew  Phys. Rev. Lett. 115, 036402, 2015


    Deriv               =              1
    GGA                 =           TRUE
    Meta                =           TRUE

    Exchange Hybrid     =          FALSE
    MP2 Hybrid          =          FALSE

   => Exchange Functionals <=

    1.0000   XC_MGGA_X_SCAN

   => Correlation Functionals <=

    1.0000   XC_MGGA_C_SCAN

   => LibXC Density Thresholds  <==

    XC_MGGA_C_SCAN:  1.00E-15 
    XC_MGGA_X_SCAN:  1.00E-15 

   => Molecular Quadrature <=

    Radial Scheme          =       TREUTLER
    Pruning Scheme         =           NONE
    Nuclear Scheme         =       TREUTLER

    BS radius alpha        =              1
    Pruning alpha          =              1
    Radial Points          =             75
    Spherical Points       =            302
    Total Points           =          66346
    Total Blocks           =            580
    Max Points             =            255
    Max Functions          =            142
    Weights Tolerance      =       1.00E-15

   => Loading Basis Set <=

    Name: (DEF2-TZVPPD AUX)
    Role: JKFIT
    Keyword: DF_BASIS_SCF
    atoms 1 entry V          line  1600 file /mnt/storage/home/zw18965/.conda/envs/p4env/share/psi4/basis/def2-universal-jkfit.gbs 
    atoms 2 entry C          line   198 file /mnt/storage/home/zw18965/.conda/envs/p4env/share/psi4/basis/def2-universal-jkfit.gbs 
    atoms 3 entry O          line   318 file /mnt/storage/home/zw18965/.conda/envs/p4env/share/psi4/basis/def2-universal-jkfit.gbs 

  ==> Integral Setup <==

  DFHelper Memory: AOs need 0.074 GiB; user supplied 83.260 GiB. Using in-core AOs.

  ==> MemDFJK: Density-Fitted J/K Matrices <==

    J tasked:                   Yes
    K tasked:                    No
    wK tasked:                   No
    OpenMP threads:              28
    Memory [MiB]:             85257
    Algorithm:                 Core
    Schwarz Cutoff:           1E-12
    Mask sparsity (%):       2.3341
    Fitting Condition:        1E-10

   => Auxiliary Basis Set <=

  Basis Set: (DEF2-TZVPPD AUX)
    Blend: DEF2-UNIVERSAL-JKFIT
    Number of shells: 108
    Number of basis functions: 416
    Number of Cartesian functions: 559
    Spherical Harmonics?: true
    Max angular momentum: 6

  Cached 100.0% of DFT collocation blocks in 0.559 [GiB].

  Minimum eigenvalue in the overlap matrix is 1.0074175382E-04.
  Reciprocal condition number of the overlap matrix is 1.4209822468E-05.
    Using symmetric orthogonalization.

  ==> Pre-Iterations <==

  SCF Guess: Superposition of Atomic Densities via on-the-fly atomic UHF (no occupation information).

   -------------------------
    Irrep   Nso     Nmo    
   -------------------------
     A1        62      62 
     A2        16      16 
     B1        33      33 
     B2        33      33 
   -------------------------
    Total     144     144
   -------------------------

  ==> Iterations <==

                           Total Energy        Delta E     RMS |[F,P]|

   @DF-UKS iter SAD: -1056.65817250805935   -1.05666e+03   0.00000e+00 
    Occupation by irrep:
             A1    A2    B1    B2 
    DOCC [    10,    0,    3,    3 ]
    SOCC [     1,    0,    1,    2 ]

   @DF-UKS iter   1: -1056.77678852341978   -1.18616e-01   1.32391e-02 DIIS
    Occupation by irrep:
             A1    A2    B1    B2 
    DOCC [    10,    0,    3,    3 ]
    SOCC [     1,    1,    1,    1 ]

   @DF-UKS iter   2: -1053.96240893680056    2.81438e+00   2.78614e-02 DIIS
   @DF-UKS iter   3: -1056.70290135031314   -2.74049e+00   1.20283e-02 DIIS
   @DF-UKS iter   4: -1057.04900692902970   -3.46106e-01   5.07128e-03 DIIS
   @DF-UKS iter   5: -1057.02183161383300    2.71753e-02   6.43141e-03 DIIS
   @DF-UKS iter   6: -1057.11934688685096   -9.75153e-02   9.31826e-04 DIIS
   @DF-UKS iter   7: -1057.12181749954243   -2.47061e-03   1.61922e-04 DIIS
   @DF-UKS iter   8: -1057.12193755225439   -1.20053e-04   6.06394e-05 DIIS
   @DF-UKS iter   9: -1057.12201371720926   -7.61650e-05   6.85759e-05 DIIS
   @DF-UKS iter  10: -1057.12191984781134    9.38694e-05   4.82866e-05 DIIS
   @DF-UKS iter  11: -1057.12183790569611    8.19421e-05   3.97384e-05 DIIS
   @DF-UKS iter  12: -1057.12183969944795   -1.79375e-06   2.96188e-05 DIIS
   @DF-UKS iter  13: -1057.12184402730554   -4.32786e-06   2.26543e-05 DIIS
   @DF-UKS iter  14: -1057.12184324196005    7.85345e-07   6.94963e-06 DIIS
   @DF-UKS iter  15: -1057.12184328761577   -4.56557e-08   7.16010e-07 DIIS
  Energy and wave function converged.


  ==> Post-Iterations <==

   Electrons on quadrature grid:
      Nalpha   =   19.9999993841 ; deviation = -6.159e-07
      Nbeta    =   15.9999996791 ; deviation = -3.209e-07
      Ntotal   =   35.9999990632 ; deviation = -9.368e-07 

   @Spin Contamination Metric:   6.251759396E-03
   @S^2 Expected:                6.000000000E+00
   @S^2 Observed:                6.006251759E+00
   @S   Expected:                2.000000000E+00
   @S   Observed:                2.000000000E+00

    Orbital Energies [Eh]
    ---------------------

    Alpha Occupied:                                                       

       1A1  -196.582098     2A1   -22.259690     3A1   -19.250806  
       4A1   -18.745408     1B1   -18.738111     1B2   -18.738107  
       5A1   -10.336840     6A1    -2.780882     2B1    -1.819570  
       2B2    -1.819558     7A1    -1.811636     8A1    -1.320027  
       9A1    -0.727792     3B1    -0.635370     3B2    -0.635370  
      10A1    -0.613703     4B1    -0.400318     4B2    -0.400297  
      11A1    -0.354771     1A2    -0.354667  

    Alpha Virtual:                                                        

      12A1    -0.333634    13A1    -0.285150     5B1    -0.272201  
       5B2    -0.272201     6B2    -0.169016     6B1    -0.169009  
      14A1    -0.108279    15A1    -0.085475    16A1    -0.054910  
       7B2    -0.053058     7B1    -0.053056     2A2    -0.036372  
      17A1    -0.036364     8B2    -0.033009     8B1    -0.033007  
      18A1    -0.006183    19A1     0.006204     9B1     0.020675  
       9B2     0.020675    20A1     0.066317    21A1     0.070655  
       3A2     0.070665    22A1     0.135685    10B2     0.172009  
      10B1     0.172012    23A1     0.184747    11B1     0.208813  
      11B2     0.208813    24A1     0.214676    12B2     0.283024  
      12B1     0.283024    25A1     0.314503    26A1     0.347761  
       4A2     0.347767    13B1     0.367923    13B2     0.367925  
      27A1     0.382057    28A1     0.414821     5A2     0.414849  
      29A1     0.499654    14B1     0.540304    14B2     0.540308  
      30A1     0.600264     6A2     0.639839    31A1     0.639992  
      32A1     0.698375    15B1     0.727104    15B2     0.727106  
      33A1     0.728974    16B1     0.798961    16B2     0.798963  
      17B1     0.893029    17B2     0.893031     7A2     0.939069  
      34A1     0.939331    35A1     0.960351    36A1     1.157038  
      18B1     1.228925    18B2     1.228932    19B1     1.460638  
      19B2     1.460639    37A1     1.499842    20B1     1.530579  
      20B2     1.530600     8A2     1.550400    38A1     1.550470  
      39A1     1.647578    40A1     1.721109    41A1     1.964200  
      21B1     2.036370    21B2     2.036371    42A1     2.111746  
      43A1     2.210076     9A2     2.210136    44A1     2.228220  
      22B1     2.244834    22B2     2.244864    23B1     2.481346  
      23B2     2.481346    45A1     2.579250    10A2     2.706438  
      46A1     2.706886    24B2     2.734866    24B1     2.734866  
      47A1     2.889968    11A2     2.890176    25B1     3.032921  
      25B2     3.032921    48A1     3.113542    49A1     3.241531  
      26B2     3.458314    26B1     3.458316    50A1     3.901465  
      27B2     3.931808    27B1     3.931817    12A2     3.939550  
      51A1     3.939829    13A2     3.947376    52A1     3.947383  
      28B2     4.120711    28B1     4.120718    53A1     4.260026  
      14A2     4.398923    54A1     4.399054    29B1     4.404240  
      29B2     4.404244    55A1     4.484687    30B1     4.566676  
      30B2     4.566692    56A1     5.009423    31B2     5.018122  
      31B1     5.018122    15A2     5.464918    57A1     5.464992  
      32B2     6.262289    32B1     6.262290    58A1     6.281289  
      16A2     6.281319    59A1     6.575062    33B2     6.732214  
      33B1     6.732216    60A1     7.138221    61A1    22.475814  
      62A1    43.803984  

    Beta Occupied:                                                        

       1A1  -196.580176     2A1   -22.183545     3A1   -19.249964  
       4A1   -18.709172     1B1   -18.684270     1B2   -18.684262  
       5A1   -10.337751     6A1    -2.631834     7A1    -1.707465  
       2B1    -1.649909     2B2    -1.649883     8A1    -1.314956  
       9A1    -0.720847     3B1    -0.627606     3B2    -0.627605  
      10A1    -0.597114  

    Beta Virtual:                                                         

       4B1    -0.288042     4B2    -0.288037    11A1    -0.248478  
      12A1    -0.208145     1A2    -0.195222    13A1    -0.195148  
       5B1    -0.187308     5B2    -0.187301     6B1    -0.112102  
       6B2    -0.112097    14A1    -0.084829    15A1    -0.058672  
       7B1    -0.027740     7B2    -0.027738    16A1    -0.024989  
       8B1    -0.008263     8B2    -0.008259     2A2     0.014738  
      17A1     0.014812    18A1     0.016397    19A1     0.030588  
       9B1     0.049976     9B2     0.049977    20A1     0.087280  
       3A2     0.096471    21A1     0.096485    22A1     0.160360  
      10B1     0.202604    10B2     0.202606    23A1     0.204145  
      11B1     0.260932    11B2     0.260936    24A1     0.271816  
      25A1     0.331130    12B1     0.340960    12B2     0.340965  
       4A2     0.367351    26A1     0.367424    27A1     0.403564  
      13B1     0.405233    13B2     0.405236     5A2     0.517252  
      28A1     0.517299    29A1     0.555122    30A1     0.618486  
      14B1     0.630716    14B2     0.630722     6A2     0.670960  
      31A1     0.671302    32A1     0.717145    15B1     0.748981  
      15B2     0.748983    33A1     0.799092    16B1     0.844904  
      16B2     0.844910    34A1     0.987314    17B2     1.057437  
      17B1     1.057437    35A1     1.098016     7A2     1.098391  
      36A1     1.214356    18B1     1.321937    18B2     1.321945  
      19B1     1.492404    19B2     1.492407    37A1     1.535327  
       8A2     1.565102    38A1     1.565142    20B1     1.663490  
      20B2     1.663509    39A1     1.740221    40A1     1.769454  
      41A1     2.056662    21B1     2.070895    21B2     2.070899  
      42A1     2.187290    43A1     2.280792    44A1     2.371959  
       9A2     2.372005    22B1     2.400374    22B2     2.400381  
      23B1     2.507577    23B2     2.507577    45A1     2.651274  
      46A1     2.725873    10A2     2.726316    24B1     2.758409  
      24B2     2.758412    47A1     2.911886    11A2     2.912146  
      25B1     3.027969    25B2     3.027972    48A1     3.134120  
      49A1     3.265303    26B1     3.496315    26B2     3.496321  
      50A1     3.995249    51A1     4.156842    12A2     4.157681  
      27B2     4.162939    27B1     4.162940    13A2     4.179408  
      52A1     4.179786    28B1     4.289639    28B2     4.289654  
      53A1     4.292450    54A1     4.560868    29B1     4.581301  
      29B2     4.581302    55A1     4.590041    14A2     4.590319  
      30B1     4.722347    30B2     4.722359    31B1     5.040720  
      31B2     5.040720    56A1     5.125783    57A1     5.482179  
      15A2     5.482278    32B1     6.278160    32B2     6.278163  
      58A1     6.307564    16A2     6.307627    59A1     6.582274  
      33B1     6.742412    33B2     6.742414    60A1     7.146620  
      61A1    22.478553    62A1    43.809618  

    Final Occupation by Irrep:
             A1    A2    B1    B2 
    DOCC [    10,    0,    3,    3 ]
    SOCC [     1,    1,    1,    1 ]

  @DF-UKS Final Energy: -1057.12184328761577

   => Energetics <=

    Nuclear Repulsion Energy =             87.3421567944189405
    One-Electron Energy =               -1617.1837426378538112
    Two-Electron Energy =                 531.9497151987209236
    DFT Exchange-Correlation Energy =     -59.2296418929016824
    Empirical Dispersion Energy =          -0.0003307500000000
    VV10 Nonlocal Energy =                  0.0000000000000000
    Total Energy =                      -1057.1218432876157749

  UHF NO Occupations:
  HONO-2 :    1 A2 1.0000000
  HONO-1 :    4 B2 1.0000000
  HONO-0 :    4 B1 1.0000000
  LUNO+0 :   12 A1 0.0020828
  LUNO+1 :    5 B2 0.0003099
  LUNO+2 :    5 B1 0.0003098
  LUNO+3 :   13 A1 0.0002134


Computation Completed


Properties will be evaluated at   0.000000,   0.000000,   0.000000 [a0]

Properties computed using the SCF density matrix

  Nuclear Dipole Moment: [e a0]
     X:     0.0000      Y:     0.0000      Z:     4.5721

  Electronic Dipole Moment: [e a0]
     X:     0.0000      Y:     0.0000      Z:    -6.4005

  Dipole Moment: [e a0]
     X:     0.0000      Y:     0.0000      Z:    -1.8284     Total:     1.8284

  Dipole Moment: [D]
     X:     0.0000      Y:     0.0000      Z:    -4.6474     Total:     4.6474


*** tstop() called on compute267.bc4.acrc.priv at Sun Nov  7 05:10:39 2021
Module time:
	user time   =     434.68 seconds =       7.24 minutes
	system time =      16.93 seconds =       0.28 minutes
	total time  =         18 seconds =       0.30 minutes
Total time:
	user time   =     434.68 seconds =       7.24 minutes
	system time =      16.93 seconds =       0.28 minutes
	total time  =         18 seconds =       0.30 minutes

    Psi4 stopped on: Sunday, 07 November 2021 05:10AM
    Psi4 wall time for execution: 0:00:18.19

*** Psi4 exiting successfully. Buy a developer a beer!
