
    -----------------------------------------------------------------------
          Psi4: An Open-Source Ab Initio Electronic Structure Package
                               Psi4 1.4.1 release

                         Git: Rev {HEAD} cd00f19 


    D. G. A. Smith, L. A. Burns, A. C. Simmonett, R. M. Parrish,
    M. C. Schieber, R. Galvelis, P. Kraus, H. Kruse, R. Di Remigio,
    A. Alenaizan, A. M. James, S. Lehtola, J. P. Misiewicz, M. Scheurer,
    R. A. Shaw, J. B. Schriber, Y. Xie, Z. L. Glick, D. A. Sirianni,
    J. S. O'Brien, J. M. Waldrop, A. Kumar, E. G. Hohenstein,
    B. P. Pritchard, B. R. Brooks, H. F. Schaefer III, A. Yu. Sokolov,
    K. Patkowski, A. E. DePrince III, U. Bozkaya, R. A. King,
    F. A. Evangelista, J. M. Turney, T. D. Crawford, C. D. Sherrill,
    J. Chem. Phys. 152(18) 184108 (2020). https://doi.org/10.1063/5.0006002

                            Additional Code Authors
    E. T. Seidl, C. L. Janssen, E. F. Valeev, M. L. Leininger,
    J. F. Gonthier, R. M. Richard, H. R. McAlexander, M. Saitow, X. Wang,
    P. Verma, and M. H. Lechner

             Previous Authors, Complete List of Code Contributors,
                       and Citations for Specific Modules
    https://github.com/psi4/psi4/blob/master/codemeta.json
    https://github.com/psi4/psi4/graphs/contributors
    http://psicode.org/psi4manual/master/introduction.html#citing-psifour

    -----------------------------------------------------------------------


    Psi4 started on: Sunday, 07 November 2021 05:02AM

    Process ID: 11808
    Host:       compute350.bc4.acrc.priv
    PSIDATADIR: /mnt/storage/home/zw18965/.conda/envs/p4env/share/psi4
    Memory:     500.0 MiB
    Threads:    28
    
  ==> Input File <==

--------------------------------------------------------------------------
memory 120 GB

molecule {
0 2
B          0.00000        0.00000        0.00000
 }

set reference uks
set dynamic_level 1
set basis Def2-TZVPPD

energy("GAM")
--------------------------------------------------------------------------

  Memory set to 111.759 GiB by Python driver.

Scratch directory: /tmp/

*** tstart() called on compute350.bc4.acrc.priv
*** at Sun Nov  7 05:02:37 2021

   => Loading Basis Set <=

    Name: DEF2-TZVPPD
    Role: ORBITAL
    Keyword: BASIS
    atoms 1 entry B          line   107 file /mnt/storage/home/zw18965/.conda/envs/p4env/share/psi4/basis/def2-tzvppd.gbs 


         ---------------------------------------------------------
                                   SCF
               by Justin Turney, Rob Parrish, Andy Simmonett
                          and Daniel G. A. Smith
                              UKS Reference
                       28 Threads, 114440 MiB Core
         ---------------------------------------------------------

  ==> Geometry <==

    Molecular point group: d2h
    Geometry (in Angstrom), charge = 0, multiplicity = 2:

       Center              X                  Y                   Z               Mass       
    ------------   -----------------  -----------------  -----------------  -----------------
         B            0.000000000000     0.000000000000     0.000000000000    11.009305360000

  Running in d2h symmetry.

  Rotational constants: A = ************  B = ************  C = ************ [cm^-1]
  Rotational constants: A = ************  B = ************  C = ************ [MHz]
  Nuclear repulsion =    0.000000000000000

  Charge       = 0
  Multiplicity = 2
  Electrons    = 5
  Nalpha       = 3
  Nbeta        = 2

  ==> Algorithm <==

  SCF Algorithm Type is DF.
  DIIS enabled.
  MOM disabled.
  Fractional occupation disabled.
  Guess Type is CORE.
  Energy threshold   = 1.00e-06
  Density threshold  = 1.00e-06
  Integral threshold = 1.00e-12

  ==> Primary Basis <==

  Basis Set: DEF2-TZVPPD
    Blend: DEF2-TZVPPD
    Number of shells: 13
    Number of basis functions: 37
    Number of Cartesian functions: 43
    Spherical Harmonics?: true
    Max angular momentum: 3

  ==> DFT Potential <==

   => Composite Functional: GAM <= 

   GAM GGA Minessota Exchange-Correlation Functional

    H.S. Yu, et al., Phys. Chem. Chem. Phys. 17, 12146, 2015


    Deriv               =              1
    GGA                 =           TRUE
    Meta                =          FALSE

    Exchange Hybrid     =          FALSE
    MP2 Hybrid          =          FALSE

   => Exchange Functionals <=

    1.0000     XC_GGA_X_GAM

   => Correlation Functionals <=

    1.0000     XC_GGA_C_GAM

   => LibXC Density Thresholds  <==

    XC_GGA_C_GAM:  1.00E-14 
    XC_GGA_X_GAM:  1.00E-14 

   => Molecular Quadrature <=

    Radial Scheme          =       TREUTLER
    Pruning Scheme         =           NONE
    Nuclear Scheme         =       TREUTLER

    BS radius alpha        =              1
    Pruning alpha          =              1
    Radial Points          =             75
    Spherical Points       =            302
    Total Points           =          22348
    Total Blocks           =            236
    Max Points             =            252
    Max Functions          =             37
    Weights Tolerance      =       1.00E-15

   => Loading Basis Set <=

    Name: (DEF2-TZVPPD AUX)
    Role: JKFIT
    Keyword: DF_BASIS_SCF
    atoms 1 entry B          line   138 file /mnt/storage/home/zw18965/.conda/envs/p4env/share/psi4/basis/def2-universal-jkfit.gbs 

  ==> Integral Setup <==

  DFHelper Memory: AOs need 0.001 GiB; user supplied 83.796 GiB. Using in-core AOs.

  ==> MemDFJK: Density-Fitted J/K Matrices <==

    J tasked:                   Yes
    K tasked:                    No
    wK tasked:                   No
    OpenMP threads:              28
    Memory [MiB]:             85806
    Algorithm:                 Core
    Schwarz Cutoff:           1E-12
    Mask sparsity (%):       0.0000
    Fitting Condition:        1E-10

   => Auxiliary Basis Set <=

  Basis Set: (DEF2-TZVPPD AUX)
    Blend: DEF2-UNIVERSAL-JKFIT
    Number of shells: 25
    Number of basis functions: 75
    Number of Cartesian functions: 89
    Spherical Harmonics?: true
    Max angular momentum: 4

  Cached 100.0% of DFT collocation blocks in 0.023 [GiB].

  Minimum eigenvalue in the overlap matrix is 7.9670122663E-03.
  Reciprocal condition number of the overlap matrix is 2.3780472251E-03.
    Using symmetric orthogonalization.

  ==> Pre-Iterations <==

  SCF Guess: Core (One-Electron) Hamiltonian.

   -------------------------------------------------------
    Irrep   Nso     Nmo     Nalpha   Nbeta   Ndocc  Nsocc
   -------------------------------------------------------
     Ag        12      12       2       2       2       0
     B1g        3       3       0       0       0       0
     B2g        3       3       0       0       0       0
     B3g        3       3       0       0       0       0
     Au         1       1       0       0       0       0
     B1u        5       5       0       0       0       0
     B2u        5       5       1       0       0       1
     B3u        5       5       0       0       0       0
   -------------------------------------------------------
    Total      37      37       3       2       2       1
   -------------------------------------------------------

  ==> Iterations <==

                           Total Energy        Delta E     RMS |[F,P]|

    Occupation by irrep:
             Ag   B1g   B2g   B3g    Au   B1u   B2u   B3u 
    DOCC [     2,    0,    0,    0,    0,    0,    0,    0 ]
    SOCC [     1,    0,    0,    0,    0,    0,    0,    0 ]

   @DF-UKS iter   1:   -23.58689899720797   -2.35869e+01   1.34198e-01 DIIS
    Occupation by irrep:
             Ag   B1g   B2g   B3g    Au   B1u   B2u   B3u 
    DOCC [     2,    0,    0,    0,    0,    0,    0,    0 ]
    SOCC [     0,    0,    0,    0,    0,    0,    1,    0 ]

   @DF-UKS iter   2:   -24.30297427775799   -7.16075e-01   3.40850e-02 DIIS
   @DF-UKS iter   3:   -24.65274951855985   -3.49775e-01   1.27405e-02 DIIS
   @DF-UKS iter   4:   -24.69277022586484   -4.00207e-02   1.31046e-03 DIIS
   @DF-UKS iter   5:   -24.69335560913552   -5.85383e-04   2.92961e-04 DIIS
   @DF-UKS iter   6:   -24.69338566177260   -3.00526e-05   2.87733e-05 DIIS
   @DF-UKS iter   7:   -24.69338600189305   -3.40120e-07   6.78828e-06 DIIS
   @DF-UKS iter   8:   -24.69338601621173   -1.43187e-08   1.62963e-06 DIIS
   @DF-UKS iter   9:   -24.69338601719307   -9.81341e-10   2.00651e-07 DIIS
  Energy and wave function converged.


  ==> Post-Iterations <==

   Electrons on quadrature grid:
      Nalpha   =    3.0000000000 ; deviation = -1.841e-11
      Nbeta    =    2.0000000000 ; deviation = -1.839e-11
      Ntotal   =    5.0000000000 ; deviation = -3.680e-11 

   @Spin Contamination Metric:   5.906736779E-03
   @S^2 Expected:                7.500000000E-01
   @S^2 Observed:                7.559067368E-01
   @S   Expected:                5.000000000E-01
   @S   Observed:                5.000000000E-01

    Orbital Energies [Eh]
    ---------------------

    Alpha Occupied:                                                       

       1Ag    -6.669247     2Ag    -0.350986     1B2u   -0.151924  

    Alpha Virtual:                                                        

       1B3u   -0.124729     1B1u   -0.124729     3Ag     0.015885  
       1B2g    0.126328     4Ag     0.126328     5Ag     0.127411  
       1B1g    0.129568     1B3g    0.129568     2B2u    0.135703  
       2B3u    0.141364     2B1u    0.141364     6Ag     0.188839  
       2B1g    0.481381     2B3g    0.481381     7Ag     0.489157  
       2B2g    0.492531     8Ag     0.492531     3B2u    0.813033  
       3B1u    0.834428     3B3u    0.834428     9Ag     0.835990  
       4B2u    1.631586     1Au     1.634539     5B2u    1.634540  
       4B1u    1.634661     4B3u    1.634661     5B1u    1.652436  
       5B3u    1.652436     3B1g    1.769643     3B3g    1.769643  
      10Ag     1.781748    11Ag     1.812437     3B2g    1.812440  
      12Ag    13.213852  

    Beta Occupied:                                                        

       1Ag    -6.661831     2Ag    -0.306801  

    Beta Virtual:                                                         

       1B3u   -0.108817     1B1u   -0.108817     1B2u   -0.081398  
       3Ag     0.018421     4Ag     0.100682     1B1g    0.106548  
       1B3g    0.106548     2B2u    0.116674     5Ag     0.129680  
       1B2g    0.129680     2B3u    0.135794     2B1u    0.135794  
       6Ag     0.220101     7Ag     0.503214     2B2g    0.503214  
       2B3g    0.533818     2B1g    0.533818     8Ag     0.541120  
       3B1u    0.864558     3B3u    0.864558     9Ag     0.874763  
       3B2u    0.907654     4B1u    1.650854     4B3u    1.650854  
       1Au     1.679990     4B2u    1.679990     5B1u    1.698532  
       5B3u    1.698532     5B2u    1.705268    10Ag     1.812392  
       3B2g    1.812392     3B1g    1.852279     3B3g    1.852279  
      11Ag     1.866080    12Ag    13.226575  

    Final Occupation by Irrep:
             Ag   B1g   B2g   B3g    Au   B1u   B2u   B3u 
    DOCC [     2,    0,    0,    0,    0,    0,    0,    0 ]
    SOCC [     0,    0,    0,    0,    0,    0,    1,    0 ]

  @DF-UKS Final Energy:   -24.69338601719307

   => Energetics <=

    Nuclear Repulsion Energy =              0.0000000000000000
    One-Electron Energy =                 -32.3941871115496340
    Two-Electron Energy =                  11.6273748186206731
    DFT Exchange-Correlation Energy =      -3.9265737242641081
    Empirical Dispersion Energy =           0.0000000000000000
    VV10 Nonlocal Energy =                  0.0000000000000000
    Total Energy =                        -24.6933860171930704

  UHF NO Occupations:
  HONO-2 :    1 Ag 1.9999979
  HONO-1 :    2 Ag 1.9970444
  HONO-0 :    1B2u 1.0000000
  LUNO+0 :    3 Ag 0.0029556
  LUNO+1 :    4 Ag 0.0000021
  LUNO+2 :    5 Ag 0.0000000
  LUNO+3 :    6 Ag 0.0000000


Computation Completed


Properties will be evaluated at   0.000000,   0.000000,   0.000000 [a0]

Properties computed using the SCF density matrix

  Nuclear Dipole Moment: [e a0]
     X:     0.0000      Y:     0.0000      Z:     0.0000

  Electronic Dipole Moment: [e a0]
     X:     0.0000      Y:     0.0000      Z:     0.0000

  Dipole Moment: [e a0]
     X:     0.0000      Y:     0.0000      Z:     0.0000     Total:     0.0000

  Dipole Moment: [D]
     X:     0.0000      Y:     0.0000      Z:     0.0000     Total:     0.0000


*** tstop() called on compute350.bc4.acrc.priv at Sun Nov  7 05:02:38 2021
Module time:
	user time   =      30.32 seconds =       0.51 minutes
	system time =       1.44 seconds =       0.02 minutes
	total time  =          1 seconds =       0.02 minutes
Total time:
	user time   =      30.32 seconds =       0.51 minutes
	system time =       1.44 seconds =       0.02 minutes
	total time  =          1 seconds =       0.02 minutes

    Psi4 stopped on: Sunday, 07 November 2021 05:02AM
    Psi4 wall time for execution: 0:00:01.76

*** Psi4 exiting successfully. Buy a developer a beer!
