
    -----------------------------------------------------------------------
          Psi4: An Open-Source Ab Initio Electronic Structure Package
                               Psi4 1.4.1 release

                         Git: Rev {HEAD} cd00f19 


    D. G. A. Smith, L. A. Burns, A. C. Simmonett, R. M. Parrish,
    M. C. Schieber, R. Galvelis, P. Kraus, H. Kruse, R. Di Remigio,
    A. Alenaizan, A. M. James, S. Lehtola, J. P. Misiewicz, M. Scheurer,
    R. A. Shaw, J. B. Schriber, Y. Xie, Z. L. Glick, D. A. Sirianni,
    J. S. O'Brien, J. M. Waldrop, A. Kumar, E. G. Hohenstein,
    B. P. Pritchard, B. R. Brooks, H. F. Schaefer III, A. Yu. Sokolov,
    K. Patkowski, A. E. DePrince III, U. Bozkaya, R. A. King,
    F. A. Evangelista, J. M. Turney, T. D. Crawford, C. D. Sherrill,
    J. Chem. Phys. 152(18) 184108 (2020). https://doi.org/10.1063/5.0006002

                            Additional Code Authors
    E. T. Seidl, C. L. Janssen, E. F. Valeev, M. L. Leininger,
    J. F. Gonthier, R. M. Richard, H. R. McAlexander, M. Saitow, X. Wang,
    P. Verma, and M. H. Lechner

             Previous Authors, Complete List of Code Contributors,
                       and Citations for Specific Modules
    https://github.com/psi4/psi4/blob/master/codemeta.json
    https://github.com/psi4/psi4/graphs/contributors
    http://psicode.org/psi4manual/master/introduction.html#citing-psifour

    -----------------------------------------------------------------------


    Psi4 started on: Sunday, 07 November 2021 05:02AM

    Process ID: 16501
    Host:       compute423.bc4.acrc.priv
    PSIDATADIR: /mnt/storage/home/zw18965/.conda/envs/p4env/share/psi4
    Memory:     500.0 MiB
    Threads:    28
    
  ==> Input File <==

--------------------------------------------------------------------------
memory 120 GB

molecule {
0 1
C          0.00000        0.00000       -0.62000
C          0.00000        0.00000        0.62000
 }

set dynamic_level 1
set basis Def2-TZVPPD

energy("GAM")
--------------------------------------------------------------------------

  Memory set to 111.759 GiB by Python driver.

Scratch directory: /tmp/

*** tstart() called on compute423.bc4.acrc.priv
*** at Sun Nov  7 05:02:37 2021

   => Loading Basis Set <=

    Name: DEF2-TZVPPD
    Role: ORBITAL
    Keyword: BASIS
    atoms 1-2 entry C          line   144 file /mnt/storage/home/zw18965/.conda/envs/p4env/share/psi4/basis/def2-tzvppd.gbs 


         ---------------------------------------------------------
                                   SCF
               by Justin Turney, Rob Parrish, Andy Simmonett
                          and Daniel G. A. Smith
                              RKS Reference
                       28 Threads, 114440 MiB Core
         ---------------------------------------------------------

  ==> Geometry <==

    Molecular point group: d2h
    Full point group: D_inf_h

    Geometry (in Angstrom), charge = 0, multiplicity = 1:

       Center              X                  Y                   Z               Mass       
    ------------   -----------------  -----------------  -----------------  -----------------
         C            0.000000000000     0.000000000000    -0.620000000000    12.000000000000
         C            0.000000000000     0.000000000000     0.620000000000    12.000000000000

  Running in d2h symmetry.

  Rotational constants: A = ************  B =      1.82727  C =      1.82727 [cm^-1]
  Rotational constants: A = ************  B =  54780.06946  C =  54780.06946 [MHz]
  Nuclear repulsion =   15.363209342032256

  Charge       = 0
  Multiplicity = 1
  Electrons    = 12
  Nalpha       = 6
  Nbeta        = 6

  ==> Algorithm <==

  SCF Algorithm Type is DF.
  DIIS enabled.
  MOM disabled.
  Fractional occupation disabled.
  Guess Type is SAD.
  Energy threshold   = 1.00e-06
  Density threshold  = 1.00e-06
  Integral threshold = 1.00e-12

  ==> Primary Basis <==

  Basis Set: DEF2-TZVPPD
    Blend: DEF2-TZVPPD
    Number of shells: 26
    Number of basis functions: 74
    Number of Cartesian functions: 86
    Spherical Harmonics?: true
    Max angular momentum: 3

  ==> DFT Potential <==

   => Composite Functional: GAM <= 

   GAM GGA Minessota Exchange-Correlation Functional

    H.S. Yu, et al., Phys. Chem. Chem. Phys. 17, 12146, 2015


    Deriv               =              1
    GGA                 =           TRUE
    Meta                =          FALSE

    Exchange Hybrid     =          FALSE
    MP2 Hybrid          =          FALSE

   => Exchange Functionals <=

    1.0000     XC_GGA_X_GAM

   => Correlation Functionals <=

    1.0000     XC_GGA_C_GAM

   => LibXC Density Thresholds  <==

    XC_GGA_C_GAM:  1.00E-14 
    XC_GGA_X_GAM:  1.00E-14 

   => Molecular Quadrature <=

    Radial Scheme          =       TREUTLER
    Pruning Scheme         =           NONE
    Nuclear Scheme         =       TREUTLER

    BS radius alpha        =              1
    Pruning alpha          =              1
    Radial Points          =             75
    Spherical Points       =            302
    Total Points           =          44636
    Total Blocks           =            420
    Max Points             =            256
    Max Functions          =             74
    Weights Tolerance      =       1.00E-15

   => Loading Basis Set <=

    Name: (DEF2-TZVPPD AUX)
    Role: JKFIT
    Keyword: DF_BASIS_SCF
    atoms 1-2 entry C          line   198 file /mnt/storage/home/zw18965/.conda/envs/p4env/share/psi4/basis/def2-universal-jkfit.gbs 

  ==> Integral Setup <==

  DFHelper Memory: AOs need 0.009 GiB; user supplied 83.729 GiB. Using in-core AOs.

  ==> MemDFJK: Density-Fitted J/K Matrices <==

    J tasked:                   Yes
    K tasked:                    No
    wK tasked:                   No
    OpenMP threads:              28
    Memory [MiB]:             85738
    Algorithm:                 Core
    Schwarz Cutoff:           1E-12
    Mask sparsity (%):       0.0365
    Fitting Condition:        1E-10

   => Auxiliary Basis Set <=

  Basis Set: (DEF2-TZVPPD AUX)
    Blend: DEF2-UNIVERSAL-JKFIT
    Number of shells: 50
    Number of basis functions: 150
    Number of Cartesian functions: 178
    Spherical Harmonics?: true
    Max angular momentum: 4

  Cached 100.0% of DFT collocation blocks in 0.090 [GiB].

  Minimum eigenvalue in the overlap matrix is 4.1490784434E-05.
  Reciprocal condition number of the overlap matrix is 7.6448122492E-06.
    Using symmetric orthogonalization.

  ==> Pre-Iterations <==

  SCF Guess: Superposition of Atomic Densities via on-the-fly atomic UHF (no occupation information).

   -------------------------
    Irrep   Nso     Nmo    
   -------------------------
     Ag        17      17 
     B1g        4       4 
     B2g        8       8 
     B3g        8       8 
     Au         4       4 
     B1u       17      17 
     B2u        8       8 
     B3u        8       8 
   -------------------------
    Total      74      74
   -------------------------

  ==> Iterations <==

                           Total Energy        Delta E     RMS |[F,P]|

   @DF-RKS iter SAD:   -75.50545287210829   -7.55055e+01   0.00000e+00 
    Occupation by irrep:
             Ag   B1g   B2g   B3g    Au   B1u   B2u   B3u 
    DOCC [     3,    0,    0,    0,    0,    2,    0,    1 ]

   @DF-RKS iter   1:   -75.81694109171626   -3.11488e-01   1.76405e-02 DIIS
    Occupation by irrep:
             Ag   B1g   B2g   B3g    Au   B1u   B2u   B3u 
    DOCC [     2,    0,    0,    0,    0,    2,    1,    1 ]

   @DF-RKS iter   2:   -75.72656494723074    9.03761e-02   1.81131e-02 DIIS
   @DF-RKS iter   3:   -75.96284049783475   -2.36276e-01   2.97238e-03 DIIS
   @DF-RKS iter   4:   -75.96755480587959   -4.71431e-03   6.18609e-04 DIIS
   @DF-RKS iter   5:   -75.96770471265725   -1.49907e-04   7.45609e-05 DIIS
   @DF-RKS iter   6:   -75.96770721727616   -2.50462e-06   6.96982e-06 DIIS
   @DF-RKS iter   7:   -75.96770724453134   -2.72552e-08   4.01918e-07 DIIS
  Energy and wave function converged.


  ==> Post-Iterations <==

   Electrons on quadrature grid:
      Ntotal   =   12.0000001637 ; deviation = 1.637e-07 

    Orbital Energies [Eh]
    ---------------------

    Doubly Occupied:                                                      

       1Ag   -10.029627     1B1u  -10.028118     2Ag    -0.723612  
       2B1u   -0.373636     1B3u   -0.289649     1B2u   -0.289649  

    Virtual:                                                              

       3Ag    -0.285137     1B2g   -0.024252     1B3g   -0.024252  
       4Ag     0.039461     3B1u    0.064315     5Ag     0.146293  
       2B3u    0.170350     2B2u    0.170350     6Ag     0.179194  
       1B1g    0.179194     2B2g    0.203100     2B3g    0.203100  
       4B1u    0.231458     5B1u    0.294716     1Au     0.294716  
       3B3u    0.304243     3B2u    0.304243     7Ag     0.329121  
       6B1u    0.329283     8Ag     0.467137     7B1u    0.488080  
       3B2g    0.518365     3B3g    0.518365     9Ag     0.725426  
       2B1g    0.725428     8B1u    0.753539     4B3u    0.817889  
       4B2u    0.817889     9B1u    0.976956     2Au     0.976956  
      10Ag     0.988091     4B2g    1.100079     4B3g    1.100079  
      10B1u    1.232927     5B3u    1.360900     5B2u    1.360900  
      11Ag     1.411860    11B1u    1.642030     5B2g    1.735561  
       5B3g    1.735561    12Ag     1.834963    12B1u    1.958565  
      13Ag     2.377356     3B1g    2.377376     6B3u    2.433196  
       6B2u    2.433196     7B3u    2.499932     7B2u    2.499932  
      14Ag     2.769767     6B2g    2.816137     6B3g    2.816137  
       7B2g    2.948447     7B3g    2.948447    15Ag     2.950659  
       4B1g    2.950670    13B1u    3.036526     3Au     3.036538  
       8B3u    3.404188     8B2u    3.404188    14B1u    3.435587  
       4Au     3.435603    15B1u    3.451679    16Ag     4.330162  
       8B2g    4.423361     8B3g    4.423361    16B1u    4.503773  
      17Ag    21.441559    17B1u   22.239302  

    Final Occupation by Irrep:
             Ag   B1g   B2g   B3g    Au   B1u   B2u   B3u 
    DOCC [     2,    0,    0,    0,    0,    2,    1,    1 ]

  @DF-RKS Final Energy:   -75.96770724453134

   => Energetics <=

    Nuclear Repulsion Energy =             15.3632093420322562
    One-Electron Energy =                -131.5748306789883770
    Two-Electron Energy =                  50.8717048814169459
    DFT Exchange-Correlation Energy =     -10.6277907889921686
    Empirical Dispersion Energy =           0.0000000000000000
    VV10 Nonlocal Energy =                  0.0000000000000000
    Total Energy =                        -75.9677072445313399

Computation Completed


Properties will be evaluated at   0.000000,   0.000000,   0.000000 [a0]

Properties computed using the SCF density matrix

  Nuclear Dipole Moment: [e a0]
     X:     0.0000      Y:     0.0000      Z:     0.0000

  Electronic Dipole Moment: [e a0]
     X:     0.0000      Y:     0.0000      Z:     0.0000

  Dipole Moment: [e a0]
     X:     0.0000      Y:     0.0000      Z:     0.0000     Total:     0.0000

  Dipole Moment: [D]
     X:     0.0000      Y:     0.0000      Z:     0.0000     Total:     0.0000


*** tstop() called on compute423.bc4.acrc.priv at Sun Nov  7 05:02:38 2021
Module time:
	user time   =      17.56 seconds =       0.29 minutes
	system time =       0.99 seconds =       0.02 minutes
	total time  =          1 seconds =       0.02 minutes
Total time:
	user time   =      17.56 seconds =       0.29 minutes
	system time =       0.99 seconds =       0.02 minutes
	total time  =          1 seconds =       0.02 minutes

    Psi4 stopped on: Sunday, 07 November 2021 05:02AM
    Psi4 wall time for execution: 0:00:01.47

*** Psi4 exiting successfully. Buy a developer a beer!
