
    -----------------------------------------------------------------------
          Psi4: An Open-Source Ab Initio Electronic Structure Package
                               Psi4 1.4.1 release

                         Git: Rev {HEAD} cd00f19 


    D. G. A. Smith, L. A. Burns, A. C. Simmonett, R. M. Parrish,
    M. C. Schieber, R. Galvelis, P. Kraus, H. Kruse, R. Di Remigio,
    A. Alenaizan, A. M. James, S. Lehtola, J. P. Misiewicz, M. Scheurer,
    R. A. Shaw, J. B. Schriber, Y. Xie, Z. L. Glick, D. A. Sirianni,
    J. S. O'Brien, J. M. Waldrop, A. Kumar, E. G. Hohenstein,
    B. P. Pritchard, B. R. Brooks, H. F. Schaefer III, A. Yu. Sokolov,
    K. Patkowski, A. E. DePrince III, U. Bozkaya, R. A. King,
    F. A. Evangelista, J. M. Turney, T. D. Crawford, C. D. Sherrill,
    J. Chem. Phys. 152(18) 184108 (2020). https://doi.org/10.1063/5.0006002

                            Additional Code Authors
    E. T. Seidl, C. L. Janssen, E. F. Valeev, M. L. Leininger,
    J. F. Gonthier, R. M. Richard, H. R. McAlexander, M. Saitow, X. Wang,
    P. Verma, and M. H. Lechner

             Previous Authors, Complete List of Code Contributors,
                       and Citations for Specific Modules
    https://github.com/psi4/psi4/blob/master/codemeta.json
    https://github.com/psi4/psi4/graphs/contributors
    http://psicode.org/psi4manual/master/introduction.html#citing-psifour

    -----------------------------------------------------------------------


    Psi4 started on: Sunday, 07 November 2021 05:02AM

    Process ID: 27395
    Host:       compute424.bc4.acrc.priv
    PSIDATADIR: /mnt/storage/home/zw18965/.conda/envs/p4env/share/psi4
    Memory:     500.0 MiB
    Threads:    28
    
  ==> Input File <==

--------------------------------------------------------------------------
memory 120 GB

molecule {
0 3
C          0.00000        0.00000        0.00000
H          0.00000        0.00000        1.07672
H          0.77665        0.00000       -0.74575
 }

set reference uks
set dynamic_level 1
set basis Def2-TZVPPD

energy("GAM")
--------------------------------------------------------------------------

  Memory set to 111.759 GiB by Python driver.

Scratch directory: /tmp/

*** tstart() called on compute424.bc4.acrc.priv
*** at Sun Nov  7 05:02:37 2021

   => Loading Basis Set <=

    Name: DEF2-TZVPPD
    Role: ORBITAL
    Keyword: BASIS
    atoms 1   entry C          line   144 file /mnt/storage/home/zw18965/.conda/envs/p4env/share/psi4/basis/def2-tzvppd.gbs 
    atoms 2-3 entry H          line    14 file /mnt/storage/home/zw18965/.conda/envs/p4env/share/psi4/basis/def2-tzvppd.gbs 


         ---------------------------------------------------------
                                   SCF
               by Justin Turney, Rob Parrish, Andy Simmonett
                          and Daniel G. A. Smith
                              UKS Reference
                       28 Threads, 114440 MiB Core
         ---------------------------------------------------------

  ==> Geometry <==

    Molecular point group: cs
    Full point group: Cs

    Geometry (in Angstrom), charge = 0, multiplicity = 3:

       Center              X                  Y                   Z               Mass       
    ------------   -----------------  -----------------  -----------------  -----------------
         C            0.055846664813    -0.023799099534     0.000000000000    12.000000000000
         H            0.055846664813     1.052920900466     0.000000000000     1.007825032230
         H           -0.720803335187    -0.769549099534     0.000000000000     1.007825032230

  Running in cs symmetry.

  Rotational constants: A =     54.82145  B =      8.52409  C =      7.37704 [cm^-1]
  Rotational constants: A = 1643505.75863  B = 255545.73237  C = 221158.23859 [MHz]
  Nuclear repulsion =    6.164774012406175

  Charge       = 0
  Multiplicity = 3
  Electrons    = 8
  Nalpha       = 5
  Nbeta        = 3

  ==> Algorithm <==

  SCF Algorithm Type is DF.
  DIIS enabled.
  MOM disabled.
  Fractional occupation disabled.
  Guess Type is SAD.
  Energy threshold   = 1.00e-06
  Density threshold  = 1.00e-06
  Integral threshold = 1.00e-12

  ==> Primary Basis <==

  Basis Set: DEF2-TZVPPD
    Blend: DEF2-TZVPPD
    Number of shells: 27
    Number of basis functions: 71
    Number of Cartesian functions: 79
    Spherical Harmonics?: true
    Max angular momentum: 3

  ==> DFT Potential <==

   => Composite Functional: GAM <= 

   GAM GGA Minessota Exchange-Correlation Functional

    H.S. Yu, et al., Phys. Chem. Chem. Phys. 17, 12146, 2015


    Deriv               =              1
    GGA                 =           TRUE
    Meta                =          FALSE

    Exchange Hybrid     =          FALSE
    MP2 Hybrid          =          FALSE

   => Exchange Functionals <=

    1.0000     XC_GGA_X_GAM

   => Correlation Functionals <=

    1.0000     XC_GGA_C_GAM

   => LibXC Density Thresholds  <==

    XC_GGA_C_GAM:  1.00E-14 
    XC_GGA_X_GAM:  1.00E-14 

   => Molecular Quadrature <=

    Radial Scheme          =       TREUTLER
    Pruning Scheme         =           NONE
    Nuclear Scheme         =       TREUTLER

    BS radius alpha        =              1
    Pruning alpha          =              1
    Radial Points          =             75
    Spherical Points       =            302
    Total Points           =          66756
    Total Blocks           =            559
    Max Points             =            251
    Max Functions          =             71
    Weights Tolerance      =       1.00E-15

   => Loading Basis Set <=

    Name: (DEF2-TZVPPD AUX)
    Role: JKFIT
    Keyword: DF_BASIS_SCF
    atoms 1   entry C          line   198 file /mnt/storage/home/zw18965/.conda/envs/p4env/share/psi4/basis/def2-universal-jkfit.gbs 
    atoms 2-3 entry H          line    18 file /mnt/storage/home/zw18965/.conda/envs/p4env/share/psi4/basis/def2-universal-jkfit.gbs 

  ==> Integral Setup <==

  DFHelper Memory: AOs need 0.006 GiB; user supplied 83.685 GiB. Using in-core AOs.

  ==> MemDFJK: Density-Fitted J/K Matrices <==

    J tasked:                   Yes
    K tasked:                    No
    wK tasked:                   No
    OpenMP threads:              28
    Memory [MiB]:             85693
    Algorithm:                 Core
    Schwarz Cutoff:           1E-12
    Mask sparsity (%):       0.0000
    Fitting Condition:        1E-10

   => Auxiliary Basis Set <=

  Basis Set: (DEF2-TZVPPD AUX)
    Blend: DEF2-UNIVERSAL-JKFIT
    Number of shells: 37
    Number of basis functions: 111
    Number of Cartesian functions: 129
    Spherical Harmonics?: true
    Max angular momentum: 4

  Cached 100.0% of DFT collocation blocks in 0.134 [GiB].

  Minimum eigenvalue in the overlap matrix is 1.0167975771E-04.
  Reciprocal condition number of the overlap matrix is 1.5978122319E-05.
    Using symmetric orthogonalization.

  ==> Pre-Iterations <==

  SCF Guess: Superposition of Atomic Densities via on-the-fly atomic UHF (no occupation information).

   -------------------------
    Irrep   Nso     Nmo    
   -------------------------
     A'        49      49 
     A"        22      22 
   -------------------------
    Total      71      71
   -------------------------

  ==> Iterations <==

                           Total Energy        Delta E     RMS |[F,P]|

   @DF-UKS iter SAD:   -38.73543439896237   -3.87354e+01   0.00000e+00 
   @DF-UKS iter   1:   -39.09173453327065   -3.56300e-01   7.60536e-03 DIIS
   @DF-UKS iter   2:   -39.08114435991901    1.05902e-02   7.87670e-03 DIIS
   @DF-UKS iter   3:   -39.18827179207187   -1.07127e-01   6.22005e-04 DIIS
   @DF-UKS iter   4:   -39.18911538058683   -8.43589e-04   1.65748e-04 DIIS
   @DF-UKS iter   5:   -39.18916779203652   -5.24114e-05   8.06890e-05 DIIS
   @DF-UKS iter   6:   -39.18917810120288   -1.03092e-05   3.26362e-05 DIIS
   @DF-UKS iter   7:   -39.18917993448073   -1.83328e-06   7.46920e-06 DIIS
   @DF-UKS iter   8:   -39.18918001876797   -8.42872e-08   9.44468e-07 DIIS
  Energy and wave function converged.


  ==> Post-Iterations <==

   Electrons on quadrature grid:
      Nalpha   =    5.0000001914 ; deviation = 1.914e-07
      Nbeta    =    3.0000001573 ; deviation = 1.573e-07
      Ntotal   =    8.0000003486 ; deviation = 3.486e-07 

   @Spin Contamination Metric:   1.308896458E-02
   @S^2 Expected:                2.000000000E+00
   @S^2 Observed:                2.013088965E+00
   @S   Expected:                1.000000000E+00
   @S   Observed:                1.000000000E+00

    Orbital Energies [Eh]
    ---------------------

    Alpha Occupied:                                                       

       1Ap    -9.963590     2Ap    -0.622401     3Ap    -0.414201  
       4Ap    -0.243636     1App   -0.208061  

    Alpha Virtual:                                                        

       5Ap     0.017970     6Ap     0.088542     7Ap     0.098261  
       8Ap     0.149341     9Ap     0.164390     2App    0.175568  
       3App    0.182895    10Ap     0.212237     4App    0.214212  
      11Ap     0.230160    12Ap     0.288534    13Ap     0.296535  
      14Ap     0.318154     5App    0.349195     6App    0.378619  
      15Ap     0.385720    16Ap     0.435146    17Ap     0.471439  
      18Ap     0.657624    19Ap     0.696592     7App    0.697796  
       8App    0.763468    20Ap     0.763570    21Ap     0.793366  
      22Ap     0.900804     9App    0.961024    23Ap     1.102898  
      10App    1.213443    24Ap     1.225655    25Ap     1.391846  
      26Ap     1.418501    11App    1.498647    27Ap     1.587341  
      28Ap     1.631602    29Ap     1.706674    30Ap     2.481883  
      12App    2.491447    31Ap     2.511078    13App    2.551587  
      32Ap     2.573559    33Ap     2.640455    14App    2.727116  
      34Ap     2.803186    15App    2.858363    35Ap     2.888234  
      16App    2.925170    36Ap     3.004763    37Ap     3.263727  
      38Ap     3.401973    17App    3.458496    18App    3.539004  
      39Ap     3.628951    40Ap     3.658897    41Ap     3.862738  
      19App    3.906319    20App    3.940855    42Ap     3.965353  
      43Ap     4.449995    44Ap     4.738195    21App    4.746913  
      22App    4.773257    45Ap     4.903208    46Ap     5.098260  
      47Ap     5.488805    48Ap     5.529066    49Ap    22.556584  

    Beta Occupied:                                                        

       1Ap    -9.945430     2Ap    -0.535590     3Ap    -0.381180  

    Beta Virtual:                                                         

       4Ap    -0.139487     1App   -0.107770     5Ap     0.016569  
       6Ap     0.087531     7Ap     0.088302     8Ap     0.136998  
       2App    0.137622     9Ap     0.138684     3App    0.152490  
      10Ap     0.167213     4App    0.184012    11Ap     0.240461  
      12Ap     0.291597    13Ap     0.294499    14Ap     0.316049  
       5App    0.319490     6App    0.324459    15Ap     0.370710  
      16Ap     0.420931    17Ap     0.532367    18Ap     0.653216  
      19Ap     0.687739     7App    0.731708    20Ap     0.807346  
      21Ap     0.840025     8App    0.858720    22Ap     0.962141  
       9App    1.013423    23Ap     1.161842    24Ap     1.259793  
      10App    1.279355    25Ap     1.412308    26Ap     1.451471  
      11App    1.613911    27Ap     1.652654    28Ap     1.704578  
      29Ap     1.752923    30Ap     2.489016    31Ap     2.575811  
      12App    2.628013    13App    2.652617    32Ap     2.703230  
      33Ap     2.706070    14App    2.841099    34Ap     2.895714  
      15App    2.960309    35Ap     3.106272    36Ap     3.115454  
      16App    3.136491    37Ap     3.302140    38Ap     3.441589  
      17App    3.519837    18App    3.573852    39Ap     3.656468  
      40Ap     3.722423    41Ap     3.868024    19App    3.923375  
      20App    3.954558    42Ap     4.001166    43Ap     4.499798  
      44Ap     4.765542    21App    4.830111    22App    4.831310  
      45Ap     4.955973    46Ap     5.146051    47Ap     5.520321  
      48Ap     5.581293    49Ap    22.601778  

    Final Occupation by Irrep:
             Ap   App 
    DOCC [     3,    0 ]
    SOCC [     1,    1 ]

  @DF-UKS Final Energy:   -39.18918001876797

   => Energetics <=

    Nuclear Repulsion Energy =              6.1647740124061752
    One-Electron Energy =                 -64.0203309010528585
    Two-Electron Energy =                  24.7924564330436183
    DFT Exchange-Correlation Energy =      -6.1260795631649030
    Empirical Dispersion Energy =           0.0000000000000000
    VV10 Nonlocal Energy =                  0.0000000000000000
    Total Energy =                        -39.1891800187679635

  UHF NO Occupations:
  HONO-2 :    3 Ap 1.9952232
  HONO-1 :    1App 1.0000000
  HONO-0 :    4 Ap 1.0000000
  LUNO+0 :    5 Ap 0.0047768
  LUNO+1 :    6 Ap 0.0017789
  LUNO+2 :    7 Ap 0.0000018
  LUNO+3 :    8 Ap 0.0000000


Computation Completed


Properties will be evaluated at   0.000000,   0.000000,   0.000000 [a0]

Properties computed using the SCF density matrix

  Nuclear Dipole Moment: [e a0]
     X:    -0.6234      Y:     0.2657      Z:     0.0000

  Electronic Dipole Moment: [e a0]
     X:     0.4198      Y:    -0.1789      Z:     0.0000

  Dipole Moment: [e a0]
     X:    -0.2036      Y:     0.0868      Z:     0.0000     Total:     0.2213

  Dipole Moment: [D]
     X:    -0.5175      Y:     0.2205      Z:     0.0000     Total:     0.5625


*** tstop() called on compute424.bc4.acrc.priv at Sun Nov  7 05:02:41 2021
Module time:
	user time   =     105.16 seconds =       1.75 minutes
	system time =       4.88 seconds =       0.08 minutes
	total time  =          4 seconds =       0.07 minutes
Total time:
	user time   =     105.16 seconds =       1.75 minutes
	system time =       4.88 seconds =       0.08 minutes
	total time  =          4 seconds =       0.07 minutes

    Psi4 stopped on: Sunday, 07 November 2021 05:02AM
    Psi4 wall time for execution: 0:00:04.79

*** Psi4 exiting successfully. Buy a developer a beer!
