
    -----------------------------------------------------------------------
          Psi4: An Open-Source Ab Initio Electronic Structure Package
                               Psi4 1.4.1 release

                         Git: Rev {HEAD} cd00f19 


    D. G. A. Smith, L. A. Burns, A. C. Simmonett, R. M. Parrish,
    M. C. Schieber, R. Galvelis, P. Kraus, H. Kruse, R. Di Remigio,
    A. Alenaizan, A. M. James, S. Lehtola, J. P. Misiewicz, M. Scheurer,
    R. A. Shaw, J. B. Schriber, Y. Xie, Z. L. Glick, D. A. Sirianni,
    J. S. O'Brien, J. M. Waldrop, A. Kumar, E. G. Hohenstein,
    B. P. Pritchard, B. R. Brooks, H. F. Schaefer III, A. Yu. Sokolov,
    K. Patkowski, A. E. DePrince III, U. Bozkaya, R. A. King,
    F. A. Evangelista, J. M. Turney, T. D. Crawford, C. D. Sherrill,
    J. Chem. Phys. 152(18) 184108 (2020). https://doi.org/10.1063/5.0006002

                            Additional Code Authors
    E. T. Seidl, C. L. Janssen, E. F. Valeev, M. L. Leininger,
    J. F. Gonthier, R. M. Richard, H. R. McAlexander, M. Saitow, X. Wang,
    P. Verma, and M. H. Lechner

             Previous Authors, Complete List of Code Contributors,
                       and Citations for Specific Modules
    https://github.com/psi4/psi4/blob/master/codemeta.json
    https://github.com/psi4/psi4/graphs/contributors
    http://psicode.org/psi4manual/master/introduction.html#citing-psifour

    -----------------------------------------------------------------------


    Psi4 started on: Sunday, 07 November 2021 05:04AM

    Process ID: 20607
    Host:       compute270.bc4.acrc.priv
    PSIDATADIR: /mnt/storage/home/zw18965/.conda/envs/p4env/share/psi4
    Memory:     500.0 MiB
    Threads:    28
    
  ==> Input File <==

--------------------------------------------------------------------------
memory 120 GB

molecule {
0 1
Cl         0.00000        0.00000        1.02117
Cl         0.00000        0.00000       -1.02117
 }

set dynamic_level 1
set basis Def2-TZVPPD

energy("GAM")
--------------------------------------------------------------------------

  Memory set to 111.759 GiB by Python driver.

Scratch directory: /tmp/

*** tstart() called on compute270.bc4.acrc.priv
*** at Sun Nov  7 05:04:26 2021

   => Loading Basis Set <=

    Name: DEF2-TZVPPD
    Role: ORBITAL
    Keyword: BASIS
    atoms 1-2 entry CL         line   607 file /mnt/storage/home/zw18965/.conda/envs/p4env/share/psi4/basis/def2-tzvppd.gbs 


         ---------------------------------------------------------
                                   SCF
               by Justin Turney, Rob Parrish, Andy Simmonett
                          and Daniel G. A. Smith
                              RKS Reference
                       28 Threads, 114440 MiB Core
         ---------------------------------------------------------

  ==> Geometry <==

    Molecular point group: d2h
    Full point group: D_inf_h

    Geometry (in Angstrom), charge = 0, multiplicity = 1:

       Center              X                  Y                   Z               Mass       
    ------------   -----------------  -----------------  -----------------  -----------------
         CL           0.000000000000     0.000000000000     1.021170000000    34.968852682000
         CL           0.000000000000     0.000000000000    -1.021170000000    34.968852682000

  Running in d2h symmetry.

  Rotational constants: A = ************  B =      0.23115  C =      0.23115 [cm^-1]
  Rotational constants: A = ************  B =   6929.62487  C =   6929.62487 [MHz]
  Nuclear repulsion =   74.880878738912273

  Charge       = 0
  Multiplicity = 1
  Electrons    = 34
  Nalpha       = 17
  Nbeta        = 17

  ==> Algorithm <==

  SCF Algorithm Type is DF.
  DIIS enabled.
  MOM disabled.
  Fractional occupation disabled.
  Guess Type is SAD.
  Energy threshold   = 1.00e-06
  Density threshold  = 1.00e-06
  Integral threshold = 1.00e-12

  ==> Primary Basis <==

  Basis Set: DEF2-TZVPPD
    Blend: DEF2-TZVPPD
    Number of shells: 34
    Number of basis functions: 102
    Number of Cartesian functions: 116
    Spherical Harmonics?: true
    Max angular momentum: 3

  ==> DFT Potential <==

   => Composite Functional: GAM <= 

   GAM GGA Minessota Exchange-Correlation Functional

    H.S. Yu, et al., Phys. Chem. Chem. Phys. 17, 12146, 2015


    Deriv               =              1
    GGA                 =           TRUE
    Meta                =          FALSE

    Exchange Hybrid     =          FALSE
    MP2 Hybrid          =          FALSE

   => Exchange Functionals <=

    1.0000     XC_GGA_X_GAM

   => Correlation Functionals <=

    1.0000     XC_GGA_C_GAM

   => LibXC Density Thresholds  <==

    XC_GGA_C_GAM:  1.00E-14 
    XC_GGA_X_GAM:  1.00E-14 

   => Molecular Quadrature <=

    Radial Scheme          =       TREUTLER
    Pruning Scheme         =           NONE
    Nuclear Scheme         =       TREUTLER

    BS radius alpha        =              1
    Pruning alpha          =              1
    Radial Points          =             75
    Spherical Points       =            302
    Total Points           =          44038
    Total Blocks           =            422
    Max Points             =            256
    Max Functions          =            100
    Weights Tolerance      =       1.00E-15

   => Loading Basis Set <=

    Name: (DEF2-TZVPPD AUX)
    Role: JKFIT
    Keyword: DF_BASIS_SCF
    atoms 1-2 entry CL         line   986 file /mnt/storage/home/zw18965/.conda/envs/p4env/share/psi4/basis/def2-universal-jkfit.gbs 

  ==> Integral Setup <==

  DFHelper Memory: AOs need 0.024 GiB; user supplied 83.718 GiB. Using in-core AOs.

  ==> MemDFJK: Density-Fitted J/K Matrices <==

    J tasked:                   Yes
    K tasked:                    No
    wK tasked:                   No
    OpenMP threads:              28
    Memory [MiB]:             85727
    Algorithm:                 Core
    Schwarz Cutoff:           1E-12
    Mask sparsity (%):       2.4414
    Fitting Condition:        1E-10

   => Auxiliary Basis Set <=

  Basis Set: (DEF2-TZVPPD AUX)
    Blend: DEF2-UNIVERSAL-JKFIT
    Number of shells: 76
    Number of basis functions: 256
    Number of Cartesian functions: 310
    Spherical Harmonics?: true
    Max angular momentum: 4

  Cached 100.0% of DFT collocation blocks in 0.101 [GiB].

  Minimum eigenvalue in the overlap matrix is 3.7925076998E-03.
  Reciprocal condition number of the overlap matrix is 8.8801590429E-04.
    Using symmetric orthogonalization.

  ==> Pre-Iterations <==

  SCF Guess: Superposition of Atomic Densities via on-the-fly atomic UHF (no occupation information).

   -------------------------
    Irrep   Nso     Nmo    
   -------------------------
     Ag        22      22 
     B1g        5       5 
     B2g       12      12 
     B3g       12      12 
     Au         5       5 
     B1u       22      22 
     B2u       12      12 
     B3u       12      12 
   -------------------------
    Total     102     102
   -------------------------

  ==> Iterations <==

                           Total Energy        Delta E     RMS |[F,P]|

   @DF-RKS iter SAD:  -920.23583661085320   -9.20236e+02   0.00000e+00 
   @DF-RKS iter   1:  -920.33203865480993   -9.62020e-02   1.14424e-02 DIIS
   @DF-RKS iter   2:  -920.34588741899279   -1.38488e-02   7.10506e-03 DIIS
   @DF-RKS iter   3:  -920.36576331663366   -1.98759e-02   1.50213e-03 DIIS
   @DF-RKS iter   4:  -920.36733612912394   -1.57281e-03   3.15619e-04 DIIS
   @DF-RKS iter   5:  -920.36739444783223   -5.83187e-05   2.48125e-05 DIIS
   @DF-RKS iter   6:  -920.36739484748159   -3.99649e-07   1.62850e-06 DIIS
   @DF-RKS iter   7:  -920.36739484934606   -1.86446e-09   6.12950e-08 DIIS
  Energy and wave function converged.


  ==> Post-Iterations <==

   Electrons on quadrature grid:
      Ntotal   =   34.0000002862 ; deviation = 2.862e-07 

    Orbital Energies [Eh]
    ---------------------

    Doubly Occupied:                                                      

       1B1u -100.465547     1Ag  -100.465544     2Ag    -9.321022  
       2B1u   -9.321020     3Ag    -7.174967     3B1u   -7.174888  
       1B2u   -7.155814     1B3u   -7.155814     1B3g   -7.155811  
       1B2g   -7.155811     4Ag    -0.851910     4B1u   -0.709212  
       5Ag    -0.439312     2B2u   -0.361179     2B3u   -0.361179  
       2B3g   -0.273839     2B2g   -0.273839  

    Virtual:                                                              

       5B1u   -0.168475     6Ag     0.029708     6B1u    0.038061  
       3B2u    0.051789     3B3u    0.051789     7Ag     0.062414  
       3B3g    0.083870     3B2g    0.083870     1B1g    0.120856  
       8Ag     0.120858     4B2u    0.143463     4B3u    0.143463  
       7B1u    0.183918     1Au     0.218755     8B1u    0.218756  
       9Ag     0.223618     9B1u    0.252170     4B3g    0.282336  
       4B2g    0.282336     5B2u    0.410664     5B3u    0.410664  
      10Ag     0.456822     6B2u    0.457357     6B3u    0.457357  
       2B1g    0.500604    11Ag     0.500608     2Au     0.547257  
      10B1u    0.547260     5B3g    0.554976     5B2g    0.554976  
      12Ag     0.557934     6B3g    0.608331     6B2g    0.608331  
      11B1u    0.640395    12B1u    0.692910    13Ag     0.811658  
      13B1u    1.226823     7B2u    1.678649     7B3u    1.678649  
      14Ag     1.737222     3B1g    1.737226    15Ag     1.792710  
      14B1u    1.837189     3Au     1.837215     7B3g    1.837919  
       7B2g    1.837919    15B1u    1.848256     8B2u    1.861735  
       8B3u    1.861735    16Ag     1.870009     4B1g    1.870017  
       9B2u    1.953125     9B3u    1.953125     8B3g    1.985953  
       8B2g    1.985953     4Au     2.101925    16B1u    2.101939  
      17Ag     2.167505    10B2u    2.203936    10B3u    2.203936  
      18Ag     2.254896     9B3g    2.273006     9B2g    2.273006  
      17B1u    2.320518    10B3g    2.602680    10B2g    2.602680  
      18B1u    3.615978     5B1g    7.849055    19Ag     7.849100  
      11B2u    7.873547    11B3u    7.873547     5Au     7.885227  
      19B1u    7.885271    20B1u    7.907031    11B3g    7.912105  
      11B2g    7.912105    20Ag     8.027880    12B2u   10.449251  
      12B3u   10.449251    12B3g   10.565795    12B2g   10.565795  
      21Ag    10.585968    21B1u   10.992373    22Ag    24.348414  
      22B1u   25.002205  

    Final Occupation by Irrep:
             Ag   B1g   B2g   B3g    Au   B1u   B2u   B3u 
    DOCC [     5,    0,    2,    2,    0,    4,    2,    2 ]

  @DF-RKS Final Energy:  -920.36739484934606

   => Energetics <=

    Nuclear Repulsion Energy =             74.8808787389122728
    One-Electron Energy =               -1420.8981755591696583
    Two-Electron Energy =                 482.2631964184106437
    DFT Exchange-Correlation Energy =     -56.6132944474993138
    Empirical Dispersion Energy =           0.0000000000000000
    VV10 Nonlocal Energy =                  0.0000000000000000
    Total Energy =                       -920.3673948493460557

Computation Completed


Properties will be evaluated at   0.000000,   0.000000,   0.000000 [a0]

Properties computed using the SCF density matrix

  Nuclear Dipole Moment: [e a0]
     X:     0.0000      Y:     0.0000      Z:     0.0000

  Electronic Dipole Moment: [e a0]
     X:     0.0000      Y:     0.0000      Z:     0.0000

  Dipole Moment: [e a0]
     X:     0.0000      Y:     0.0000      Z:     0.0000     Total:     0.0000

  Dipole Moment: [D]
     X:     0.0000      Y:     0.0000      Z:     0.0000     Total:     0.0000


*** tstop() called on compute270.bc4.acrc.priv at Sun Nov  7 05:04:28 2021
Module time:
	user time   =      21.71 seconds =       0.36 minutes
	system time =       1.37 seconds =       0.02 minutes
	total time  =          2 seconds =       0.03 minutes
Total time:
	user time   =      21.71 seconds =       0.36 minutes
	system time =       1.37 seconds =       0.02 minutes
	total time  =          2 seconds =       0.03 minutes

    Psi4 stopped on: Sunday, 07 November 2021 05:04AM
    Psi4 wall time for execution: 0:00:01.42

*** Psi4 exiting successfully. Buy a developer a beer!
