
    -----------------------------------------------------------------------
          Psi4: An Open-Source Ab Initio Electronic Structure Package
                               Psi4 1.4.1 release

                         Git: Rev {HEAD} cd00f19 


    D. G. A. Smith, L. A. Burns, A. C. Simmonett, R. M. Parrish,
    M. C. Schieber, R. Galvelis, P. Kraus, H. Kruse, R. Di Remigio,
    A. Alenaizan, A. M. James, S. Lehtola, J. P. Misiewicz, M. Scheurer,
    R. A. Shaw, J. B. Schriber, Y. Xie, Z. L. Glick, D. A. Sirianni,
    J. S. O'Brien, J. M. Waldrop, A. Kumar, E. G. Hohenstein,
    B. P. Pritchard, B. R. Brooks, H. F. Schaefer III, A. Yu. Sokolov,
    K. Patkowski, A. E. DePrince III, U. Bozkaya, R. A. King,
    F. A. Evangelista, J. M. Turney, T. D. Crawford, C. D. Sherrill,
    J. Chem. Phys. 152(18) 184108 (2020). https://doi.org/10.1063/5.0006002

                            Additional Code Authors
    E. T. Seidl, C. L. Janssen, E. F. Valeev, M. L. Leininger,
    J. F. Gonthier, R. M. Richard, H. R. McAlexander, M. Saitow, X. Wang,
    P. Verma, and M. H. Lechner

             Previous Authors, Complete List of Code Contributors,
                       and Citations for Specific Modules
    https://github.com/psi4/psi4/blob/master/codemeta.json
    https://github.com/psi4/psi4/graphs/contributors
    http://psicode.org/psi4manual/master/introduction.html#citing-psifour

    -----------------------------------------------------------------------


    Psi4 started on: Sunday, 07 November 2021 05:03AM

    Process ID: 27454
    Host:       compute361.bc4.acrc.priv
    PSIDATADIR: /mnt/storage/home/zw18965/.conda/envs/p4env/share/psi4
    Memory:     500.0 MiB
    Threads:    28
    
  ==> Input File <==

--------------------------------------------------------------------------
memory 120 GB

molecule {
0 1
O          0.00000        0.00000        0.64242
Cl         1.40117        0.00000       -0.32121
Cl        -1.40117        0.00000       -0.32121
 }

set dynamic_level 1
set basis Def2-TZVPPD

energy("GAM")
--------------------------------------------------------------------------

  Memory set to 111.759 GiB by Python driver.

Scratch directory: /tmp/

*** tstart() called on compute361.bc4.acrc.priv
*** at Sun Nov  7 05:03:31 2021

   => Loading Basis Set <=

    Name: DEF2-TZVPPD
    Role: ORBITAL
    Keyword: BASIS
    atoms 1   entry O          line   218 file /mnt/storage/home/zw18965/.conda/envs/p4env/share/psi4/basis/def2-tzvppd.gbs 
    atoms 2-3 entry CL         line   607 file /mnt/storage/home/zw18965/.conda/envs/p4env/share/psi4/basis/def2-tzvppd.gbs 


         ---------------------------------------------------------
                                   SCF
               by Justin Turney, Rob Parrish, Andy Simmonett
                          and Daniel G. A. Smith
                              RKS Reference
                       28 Threads, 114440 MiB Core
         ---------------------------------------------------------

  ==> Geometry <==

    Molecular point group: c2v
    Full point group: C2v

    Geometry (in Angstrom), charge = 0, multiplicity = 1:

       Center              X                  Y                   Z               Mass       
    ------------   -----------------  -----------------  -----------------  -----------------
         O            0.000000000000    -0.000000000000     0.784266452400    15.994914619570
         CL           1.401170000000     0.000000000000    -0.179363547600    34.968852682000
         CL          -1.401170000000    -0.000000000000    -0.179363547600    34.968852682000

  Running in c2v symmetry.

  Rotational constants: A =      1.39457  B =      0.12277  C =      0.11284 [cm^-1]
  Rotational constants: A =  41808.18585  B =   3680.64693  C =   3382.83402 [MHz]
  Nuclear repulsion =  139.214158846700684

  Charge       = 0
  Multiplicity = 1
  Electrons    = 42
  Nalpha       = 21
  Nbeta        = 21

  ==> Algorithm <==

  SCF Algorithm Type is DF.
  DIIS enabled.
  MOM disabled.
  Fractional occupation disabled.
  Guess Type is SAD.
  Energy threshold   = 1.00e-06
  Density threshold  = 1.00e-06
  Integral threshold = 1.00e-12

  ==> Primary Basis <==

  Basis Set: DEF2-TZVPPD
    Blend: DEF2-TZVPPD
    Number of shells: 48
    Number of basis functions: 142
    Number of Cartesian functions: 162
    Spherical Harmonics?: true
    Max angular momentum: 3

  ==> DFT Potential <==

   => Composite Functional: GAM <= 

   GAM GGA Minessota Exchange-Correlation Functional

    H.S. Yu, et al., Phys. Chem. Chem. Phys. 17, 12146, 2015


    Deriv               =              1
    GGA                 =           TRUE
    Meta                =          FALSE

    Exchange Hybrid     =          FALSE
    MP2 Hybrid          =          FALSE

   => Exchange Functionals <=

    1.0000     XC_GGA_X_GAM

   => Correlation Functionals <=

    1.0000     XC_GGA_C_GAM

   => LibXC Density Thresholds  <==

    XC_GGA_C_GAM:  1.00E-14 
    XC_GGA_X_GAM:  1.00E-14 

   => Molecular Quadrature <=

    Radial Scheme          =       TREUTLER
    Pruning Scheme         =           NONE
    Nuclear Scheme         =       TREUTLER

    BS radius alpha        =              1
    Pruning alpha          =              1
    Radial Points          =             75
    Spherical Points       =            302
    Total Points           =          66136
    Total Blocks           =            580
    Max Points             =            256
    Max Functions          =            136
    Weights Tolerance      =       1.00E-15

   => Loading Basis Set <=

    Name: (DEF2-TZVPPD AUX)
    Role: JKFIT
    Keyword: DF_BASIS_SCF
    atoms 1   entry O          line   318 file /mnt/storage/home/zw18965/.conda/envs/p4env/share/psi4/basis/def2-universal-jkfit.gbs 
    atoms 2-3 entry CL         line   986 file /mnt/storage/home/zw18965/.conda/envs/p4env/share/psi4/basis/def2-universal-jkfit.gbs 

  ==> Integral Setup <==

  DFHelper Memory: AOs need 0.058 GiB; user supplied 83.606 GiB. Using in-core AOs.

  ==> MemDFJK: Density-Fitted J/K Matrices <==

    J tasked:                   Yes
    K tasked:                    No
    wK tasked:                   No
    OpenMP threads:              28
    Memory [MiB]:             85612
    Algorithm:                 Core
    Schwarz Cutoff:           1E-12
    Mask sparsity (%):       2.3507
    Fitting Condition:        1E-10

   => Auxiliary Basis Set <=

  Basis Set: (DEF2-TZVPPD AUX)
    Blend: DEF2-UNIVERSAL-JKFIT
    Number of shells: 101
    Number of basis functions: 333
    Number of Cartesian functions: 403
    Spherical Harmonics?: true
    Max angular momentum: 4

  Cached 100.0% of DFT collocation blocks in 0.213 [GiB].

  Minimum eigenvalue in the overlap matrix is 8.0363001160E-04.
  Reciprocal condition number of the overlap matrix is 1.3966442850E-04.
    Using symmetric orthogonalization.

  ==> Pre-Iterations <==

  SCF Guess: Superposition of Atomic Densities via on-the-fly atomic UHF (no occupation information).

   -------------------------
    Irrep   Nso     Nmo    
   -------------------------
     A1        52      52 
     A2        21      21 
     B1        43      43 
     B2        26      26 
   -------------------------
    Total     142     142
   -------------------------

  ==> Iterations <==

                           Total Energy        Delta E     RMS |[F,P]|

   @DF-RKS iter SAD:  -995.32258146381696   -9.95323e+02   0.00000e+00 
   @DF-RKS iter   1:  -995.41940511838311   -9.68237e-02   7.77755e-03 DIIS
   @DF-RKS iter   2:  -995.02718239520834    3.92223e-01   1.39703e-02 DIIS
   @DF-RKS iter   3:  -995.41260224469920   -3.85420e-01   6.41280e-03 DIIS
   @DF-RKS iter   4:  -995.50350647830419   -9.09042e-02   3.41663e-04 DIIS
   @DF-RKS iter   5:  -995.50378820215496   -2.81724e-04   9.54783e-05 DIIS
   @DF-RKS iter   6:  -995.50380924933120   -2.10472e-05   4.03762e-05 DIIS
   @DF-RKS iter   7:  -995.50381294559293   -3.69626e-06   8.25965e-06 DIIS
   @DF-RKS iter   8:  -995.50381311001820   -1.64425e-07   1.90974e-06 DIIS
   @DF-RKS iter   9:  -995.50381311729370   -7.27550e-09   4.97621e-07 DIIS
  Energy and wave function converged.


  ==> Post-Iterations <==

   Electrons on quadrature grid:
      Ntotal   =   42.0000207665 ; deviation = 2.077e-05 

    Orbital Energies [Eh]
    ---------------------

    Doubly Occupied:                                                      

       1B1  -100.469208     1A1  -100.469208     2A1   -18.891665  
       2B1    -9.324959     3A1    -9.324956     4A1    -7.179570  
       3B1    -7.179570     4B1    -7.159872     5A1    -7.159869  
       1A2    -7.158854     1B2    -7.158853     6A1    -1.031269  
       5B1    -0.801535     7A1    -0.704448     6B1    -0.495451  
       8A1    -0.444966     2B2    -0.410641     9A1    -0.311966  
       2A2    -0.311651     7B1    -0.298405     3B2    -0.248261  

    Virtual:                                                              

      10A1    -0.167773     8B1    -0.103402    11A1     0.024598  
       9B1     0.033579    12A1     0.046390     4B2     0.047715  
      13A1     0.074095    10B1     0.075235     3A2     0.077826  
      14A1     0.108751     5B2     0.112834    11B1     0.128892  
       6B2     0.146121    15A1     0.149312     4A2     0.177392  
      12B1     0.184012    16A1     0.203827    13B1     0.216130  
       7B2     0.235578    17A1     0.238507     5A2     0.248550  
      14B1     0.249947    18A1     0.282454    15B1     0.288036  
      19A1     0.402213    16B1     0.404232     8B2     0.417769  
      20A1     0.427741     6A2     0.434957     9B2     0.435471  
      21A1     0.458252     7A2     0.480499    22A1     0.509647  
      17B1     0.531232    10B2     0.540209    11B2     0.546763  
       8A2     0.548531    18B1     0.567484    23A1     0.575362  
      19B1     0.599798    24A1     0.637555    20B1     0.655335  
       9A2     0.673454    25A1     0.679262    21B1     0.714983  
      12B2     0.766432    26A1     0.816953    27A1     0.894309  
      22B1     0.911618    23B1     1.148584    28A1     1.234483  
      29A1     1.494877    10A2     1.520761    13B2     1.549688  
      30A1     1.763848    31A1     1.775698    24B1     1.786067  
      14B2     1.794027    11A2     1.822807    32A1     1.825836  
      25B1     1.833184    15B2     1.844967    26B1     1.848883  
      12A2     1.861776    27B1     1.897288    33A1     1.900138  
      16B2     1.949221    17B2     1.969489    13A2     1.973368  
      28B1     1.978717    34A1     1.979555    14A2     2.000035  
      35A1     2.037876    29B1     2.137236    30B1     2.171607  
      18B2     2.198993    36A1     2.219476    15A2     2.235219  
      19B2     2.261643    37A1     2.277093    31B1     2.353488  
      32B1     2.361307    16A2     2.412763    38A1     2.581626  
      33B1     2.669872    39A1     2.706962    20B2     2.775415  
      40A1     3.012156    41A1     3.751116    34B1     3.870372  
      21B2     4.949989    42A1     5.010165    17A2     5.138191  
      22B2     5.149808    35B1     5.191239    36B1     5.249114  
      43A1     5.474390    23B2     6.232466    44A1     6.320657  
      18A2     6.334472    45A1     6.613921    37B1     6.767053  
      46A1     7.856625    24B2     7.862196    38B1     7.876913  
      19A2     7.878943    25B2     7.900975    20A2     7.901989  
      47A1     7.916538    39B1     7.956464    48A1     8.053768  
      40B1     8.120597    26B2    10.491268    21A2    10.503123  
      49A1    10.513329    41B1    10.583739    42B1    10.880039  
      50A1    10.970235    51A1    24.846933    43B1    25.018959  
      52A1    43.474481  

    Final Occupation by Irrep:
             A1    A2    B1    B2 
    DOCC [     9,    2,    7,    3 ]

  @DF-RKS Final Energy:  -995.50381311729370

   => Energetics <=

    Nuclear Repulsion Energy =            139.2141588467006841
    One-Electron Energy =               -1652.4131700167497456
    Two-Electron Energy =                 582.8275509569176620
    DFT Exchange-Correlation Energy =     -65.1323529041623033
    Empirical Dispersion Energy =           0.0000000000000000
    VV10 Nonlocal Energy =                  0.0000000000000000
    Total Energy =                       -995.5038131172937028

Computation Completed


Properties will be evaluated at   0.000000,   0.000000,   0.000000 [a0]

Properties computed using the SCF density matrix

  Nuclear Dipole Moment: [e a0]
     X:    -0.0000      Y:    -0.0000      Z:     0.3322

  Electronic Dipole Moment: [e a0]
     X:     0.0000      Y:     0.0000      Z:    -0.5105

  Dipole Moment: [e a0]
     X:    -0.0000      Y:    -0.0000      Z:    -0.1783     Total:     0.1783

  Dipole Moment: [D]
     X:    -0.0000      Y:    -0.0000      Z:    -0.4533     Total:     0.4533


*** tstop() called on compute361.bc4.acrc.priv at Sun Nov  7 05:03:33 2021
Module time:
	user time   =      35.77 seconds =       0.60 minutes
	system time =       1.95 seconds =       0.03 minutes
	total time  =          2 seconds =       0.03 minutes
Total time:
	user time   =      35.77 seconds =       0.60 minutes
	system time =       1.95 seconds =       0.03 minutes
	total time  =          2 seconds =       0.03 minutes

    Psi4 stopped on: Sunday, 07 November 2021 05:03AM
    Psi4 wall time for execution: 0:00:02.02

*** Psi4 exiting successfully. Buy a developer a beer!
