
    -----------------------------------------------------------------------
          Psi4: An Open-Source Ab Initio Electronic Structure Package
                               Psi4 1.4.1 release

                         Git: Rev {HEAD} cd00f19 


    D. G. A. Smith, L. A. Burns, A. C. Simmonett, R. M. Parrish,
    M. C. Schieber, R. Galvelis, P. Kraus, H. Kruse, R. Di Remigio,
    A. Alenaizan, A. M. James, S. Lehtola, J. P. Misiewicz, M. Scheurer,
    R. A. Shaw, J. B. Schriber, Y. Xie, Z. L. Glick, D. A. Sirianni,
    J. S. O'Brien, J. M. Waldrop, A. Kumar, E. G. Hohenstein,
    B. P. Pritchard, B. R. Brooks, H. F. Schaefer III, A. Yu. Sokolov,
    K. Patkowski, A. E. DePrince III, U. Bozkaya, R. A. King,
    F. A. Evangelista, J. M. Turney, T. D. Crawford, C. D. Sherrill,
    J. Chem. Phys. 152(18) 184108 (2020). https://doi.org/10.1063/5.0006002

                            Additional Code Authors
    E. T. Seidl, C. L. Janssen, E. F. Valeev, M. L. Leininger,
    J. F. Gonthier, R. M. Richard, H. R. McAlexander, M. Saitow, X. Wang,
    P. Verma, and M. H. Lechner

             Previous Authors, Complete List of Code Contributors,
                       and Citations for Specific Modules
    https://github.com/psi4/psi4/blob/master/codemeta.json
    https://github.com/psi4/psi4/graphs/contributors
    http://psicode.org/psi4manual/master/introduction.html#citing-psifour

    -----------------------------------------------------------------------


    Psi4 started on: Sunday, 07 November 2021 05:03AM

    Process ID: 14413
    Host:       compute416.bc4.acrc.priv
    PSIDATADIR: /mnt/storage/home/zw18965/.conda/envs/p4env/share/psi4
    Memory:     500.0 MiB
    Threads:    28
    
  ==> Input File <==

--------------------------------------------------------------------------
memory 120 GB

molecule {
0 1
O          0.00000        0.00000        0.00000
C          0.00000        0.00000        1.12961
 }

set dynamic_level 1
set basis Def2-TZVPPD

energy("GAM")
--------------------------------------------------------------------------

  Memory set to 111.759 GiB by Python driver.

Scratch directory: /tmp/

*** tstart() called on compute416.bc4.acrc.priv
*** at Sun Nov  7 05:03:31 2021

   => Loading Basis Set <=

    Name: DEF2-TZVPPD
    Role: ORBITAL
    Keyword: BASIS
    atoms 1 entry O          line   218 file /mnt/storage/home/zw18965/.conda/envs/p4env/share/psi4/basis/def2-tzvppd.gbs 
    atoms 2 entry C          line   144 file /mnt/storage/home/zw18965/.conda/envs/p4env/share/psi4/basis/def2-tzvppd.gbs 


         ---------------------------------------------------------
                                   SCF
               by Justin Turney, Rob Parrish, Andy Simmonett
                          and Daniel G. A. Smith
                              RKS Reference
                       28 Threads, 114440 MiB Core
         ---------------------------------------------------------

  ==> Geometry <==

    Molecular point group: c2v
    Full point group: C_inf_v

    Geometry (in Angstrom), charge = 0, multiplicity = 1:

       Center              X                  Y                   Z               Mass       
    ------------   -----------------  -----------------  -----------------  -----------------
         O            0.000000000000     0.000000000000    -0.484206513369    15.994914619570
         C            0.000000000000     0.000000000000     0.645403486631    12.000000000000

  Running in c2v symmetry.

  Rotational constants: A = ************  B =      1.92688  C =      1.92688 [cm^-1]
  Rotational constants: A = ************  B =  57766.50834  C =  57766.50834 [MHz]
  Nuclear repulsion =   22.486084677154064

  Charge       = 0
  Multiplicity = 1
  Electrons    = 14
  Nalpha       = 7
  Nbeta        = 7

  ==> Algorithm <==

  SCF Algorithm Type is DF.
  DIIS enabled.
  MOM disabled.
  Fractional occupation disabled.
  Guess Type is SAD.
  Energy threshold   = 1.00e-06
  Density threshold  = 1.00e-06
  Integral threshold = 1.00e-12

  ==> Primary Basis <==

  Basis Set: DEF2-TZVPPD
    Blend: DEF2-TZVPPD
    Number of shells: 27
    Number of basis functions: 77
    Number of Cartesian functions: 89
    Spherical Harmonics?: true
    Max angular momentum: 3

  ==> DFT Potential <==

   => Composite Functional: GAM <= 

   GAM GGA Minessota Exchange-Correlation Functional

    H.S. Yu, et al., Phys. Chem. Chem. Phys. 17, 12146, 2015


    Deriv               =              1
    GGA                 =           TRUE
    Meta                =          FALSE

    Exchange Hybrid     =          FALSE
    MP2 Hybrid          =          FALSE

   => Exchange Functionals <=

    1.0000     XC_GGA_X_GAM

   => Correlation Functionals <=

    1.0000     XC_GGA_C_GAM

   => LibXC Density Thresholds  <==

    XC_GGA_C_GAM:  1.00E-14 
    XC_GGA_X_GAM:  1.00E-14 

   => Molecular Quadrature <=

    Radial Scheme          =       TREUTLER
    Pruning Scheme         =           NONE
    Nuclear Scheme         =       TREUTLER

    BS radius alpha        =              1
    Pruning alpha          =              1
    Radial Points          =             75
    Spherical Points       =            302
    Total Points           =          44635
    Total Blocks           =            414
    Max Points             =            256
    Max Functions          =             77
    Weights Tolerance      =       1.00E-15

   => Loading Basis Set <=

    Name: (DEF2-TZVPPD AUX)
    Role: JKFIT
    Keyword: DF_BASIS_SCF
    atoms 1 entry O          line   318 file /mnt/storage/home/zw18965/.conda/envs/p4env/share/psi4/basis/def2-universal-jkfit.gbs 
    atoms 2 entry C          line   198 file /mnt/storage/home/zw18965/.conda/envs/p4env/share/psi4/basis/def2-universal-jkfit.gbs 

  ==> Integral Setup <==

  DFHelper Memory: AOs need 0.009 GiB; user supplied 83.726 GiB. Using in-core AOs.

  ==> MemDFJK: Density-Fitted J/K Matrices <==

    J tasked:                   Yes
    K tasked:                    No
    wK tasked:                   No
    OpenMP threads:              28
    Memory [MiB]:             85735
    Algorithm:                 Core
    Schwarz Cutoff:           1E-12
    Mask sparsity (%):       0.0337
    Fitting Condition:        1E-10

   => Auxiliary Basis Set <=

  Basis Set: (DEF2-TZVPPD AUX)
    Blend: DEF2-UNIVERSAL-JKFIT
    Number of shells: 50
    Number of basis functions: 152
    Number of Cartesian functions: 182
    Spherical Harmonics?: true
    Max angular momentum: 4

  Cached 100.0% of DFT collocation blocks in 0.093 [GiB].

  Minimum eigenvalue in the overlap matrix is 2.1708435403E-04.
  Reciprocal condition number of the overlap matrix is 3.7690338944E-05.
    Using symmetric orthogonalization.

  ==> Pre-Iterations <==

  SCF Guess: Superposition of Atomic Densities via on-the-fly atomic UHF (no occupation information).

   -------------------------
    Irrep   Nso     Nmo    
   -------------------------
     A1        35      35 
     A2         8       8 
     B1        17      17 
     B2        17      17 
   -------------------------
    Total      77      77
   -------------------------

  ==> Iterations <==

                           Total Energy        Delta E     RMS |[F,P]|

   @DF-RKS iter SAD:  -112.89397175726779   -1.12894e+02   0.00000e+00 
   @DF-RKS iter   1:  -113.25290527341107   -3.58934e-01   1.23852e-02 DIIS
   @DF-RKS iter   2:  -112.93366512277863    3.19240e-01   2.43064e-02 DIIS
   @DF-RKS iter   3:  -113.30530363141062   -3.71639e-01   7.57036e-03 DIIS
   @DF-RKS iter   4:  -113.35267710879548   -4.73735e-02   4.24295e-04 DIIS
   @DF-RKS iter   5:  -113.35281987442605   -1.42766e-04   1.47834e-04 DIIS
   @DF-RKS iter   6:  -113.35283699896574   -1.71245e-05   1.76574e-05 DIIS
   @DF-RKS iter   7:  -113.35283720400464   -2.05039e-07   1.58061e-06 DIIS
   @DF-RKS iter   8:  -113.35283720602094   -2.01629e-09   4.69940e-08 DIIS
  Energy and wave function converged.


  ==> Post-Iterations <==

   Electrons on quadrature grid:
      Ntotal   =   13.9999997818 ; deviation = -2.182e-07 

    Orbital Energies [Eh]
    ---------------------

    Doubly Occupied:                                                      

       1A1   -18.855163     2A1   -10.036983     3A1    -1.084072  
       4A1    -0.519504     1B1    -0.431766     1B2    -0.431766  
       5A1    -0.328533  

    Virtual:                                                              

       2B2    -0.066410     2B1    -0.066410     6A1     0.033369  
       7A1     0.074615     3B2     0.075001     3B1     0.075001  
       8A1     0.122197     9A1     0.191957     1A2     0.191957  
       4B2     0.235387     4B1     0.235387    10A1     0.265309  
       5B2     0.314405     5B1     0.314405    11A1     0.343226  
      12A1     0.364436    13A1     0.415480     2A2     0.436429  
      14A1     0.436429     6B2     0.460431     6B1     0.460431  
      15A1     0.685443    16A1     0.765687     7B2     0.782268  
       7B1     0.782268    17A1     0.799011     3A2     0.799012  
      18A1     0.964519     8B2     0.976060     8B1     0.976060  
      19A1     1.218190    20A1     1.449908     9B1     1.512705  
       9B2     1.512705     4A2     1.631126    21A1     1.631128  
      22A1     1.812231    10B2     1.853707    10B1     1.853707  
      23A1     2.229972    11B2     2.574070    11B1     2.574070  
      12B2     2.690630    12B1     2.690630    24A1     2.756730  
       5A2     2.756732    25A1     2.955903     6A2     2.955914  
      26A1     2.977348    13B2     3.078200    13B1     3.078200  
      27A1     3.098111    14B2     3.570120    14B1     3.570120  
      28A1     4.039214    29A1     4.188032    15B2     4.956410  
      15B1     4.956410     7A2     5.366181    30A1     5.366189  
      16B2     6.063973    16B1     6.063973     8A2     6.193382  
      31A1     6.193385    32A1     6.387144    17B2     6.558507  
      17B1     6.558507    33A1     6.981182    34A1    21.942074  
      35A1    43.616858  

    Final Occupation by Irrep:
             A1    A2    B1    B2 
    DOCC [     5,    0,    1,    1 ]

  @DF-RKS Final Energy:  -113.35283720602094

   => Energetics <=

    Nuclear Repulsion Energy =             22.4860846771540643
    One-Electron Energy =                -198.4674950789694492
    Two-Electron Energy =                  76.5287937433039502
    DFT Exchange-Correlation Energy =     -13.9002205475094875
    Empirical Dispersion Energy =           0.0000000000000000
    VV10 Nonlocal Energy =                  0.0000000000000000
    Total Energy =                       -113.3528372060209364

Computation Completed


Properties will be evaluated at   0.000000,   0.000000,   0.000000 [a0]

Properties computed using the SCF density matrix

  Nuclear Dipole Moment: [e a0]
     X:     0.0000      Y:     0.0000      Z:    -0.0023

  Electronic Dipole Moment: [e a0]
     X:     0.0000      Y:     0.0000      Z:    -0.0759

  Dipole Moment: [e a0]
     X:     0.0000      Y:     0.0000      Z:    -0.0782     Total:     0.0782

  Dipole Moment: [D]
     X:     0.0000      Y:     0.0000      Z:    -0.1988     Total:     0.1988


*** tstop() called on compute416.bc4.acrc.priv at Sun Nov  7 05:03:32 2021
Module time:
	user time   =      19.39 seconds =       0.32 minutes
	system time =       1.12 seconds =       0.02 minutes
	total time  =          1 seconds =       0.02 minutes
Total time:
	user time   =      19.39 seconds =       0.32 minutes
	system time =       1.12 seconds =       0.02 minutes
	total time  =          1 seconds =       0.02 minutes

    Psi4 stopped on: Sunday, 07 November 2021 05:03AM
    Psi4 wall time for execution: 0:00:01.29

*** Psi4 exiting successfully. Buy a developer a beer!
