
    -----------------------------------------------------------------------
          Psi4: An Open-Source Ab Initio Electronic Structure Package
                               Psi4 1.4.1 release

                         Git: Rev {HEAD} cd00f19 


    D. G. A. Smith, L. A. Burns, A. C. Simmonett, R. M. Parrish,
    M. C. Schieber, R. Galvelis, P. Kraus, H. Kruse, R. Di Remigio,
    A. Alenaizan, A. M. James, S. Lehtola, J. P. Misiewicz, M. Scheurer,
    R. A. Shaw, J. B. Schriber, Y. Xie, Z. L. Glick, D. A. Sirianni,
    J. S. O'Brien, J. M. Waldrop, A. Kumar, E. G. Hohenstein,
    B. P. Pritchard, B. R. Brooks, H. F. Schaefer III, A. Yu. Sokolov,
    K. Patkowski, A. E. DePrince III, U. Bozkaya, R. A. King,
    F. A. Evangelista, J. M. Turney, T. D. Crawford, C. D. Sherrill,
    J. Chem. Phys. 152(18) 184108 (2020). https://doi.org/10.1063/5.0006002

                            Additional Code Authors
    E. T. Seidl, C. L. Janssen, E. F. Valeev, M. L. Leininger,
    J. F. Gonthier, R. M. Richard, H. R. McAlexander, M. Saitow, X. Wang,
    P. Verma, and M. H. Lechner

             Previous Authors, Complete List of Code Contributors,
                       and Citations for Specific Modules
    https://github.com/psi4/psi4/blob/master/codemeta.json
    https://github.com/psi4/psi4/graphs/contributors
    http://psicode.org/psi4manual/master/introduction.html#citing-psifour

    -----------------------------------------------------------------------


    Psi4 started on: Sunday, 07 November 2021 05:02AM

    Process ID: 3597
    Host:       compute399.bc4.acrc.priv
    PSIDATADIR: /mnt/storage/home/zw18965/.conda/envs/p4env/share/psi4
    Memory:     500.0 MiB
    Threads:    28
    
  ==> Input File <==

--------------------------------------------------------------------------
memory 120 GB

molecule {
0 7
Cr         0.00000        0.00000        0.00000
 }

set reference uks
set dynamic_level 1
set basis Def2-TZVPPD

energy("GAM")
--------------------------------------------------------------------------

  Memory set to 111.759 GiB by Python driver.

Scratch directory: /tmp/

*** tstart() called on compute399.bc4.acrc.priv
*** at Sun Nov  7 05:02:37 2021

   => Loading Basis Set <=

    Name: DEF2-TZVPPD
    Role: ORBITAL
    Keyword: BASIS
    atoms 1 entry CR         line   985 file /mnt/storage/home/zw18965/.conda/envs/p4env/share/psi4/basis/def2-tzvppd.gbs 


         ---------------------------------------------------------
                                   SCF
               by Justin Turney, Rob Parrish, Andy Simmonett
                          and Daniel G. A. Smith
                              UKS Reference
                       28 Threads, 114440 MiB Core
         ---------------------------------------------------------

  ==> Geometry <==

    Molecular point group: d2h
    Geometry (in Angstrom), charge = 0, multiplicity = 7:

       Center              X                  Y                   Z               Mass       
    ------------   -----------------  -----------------  -----------------  -----------------
         CR           0.000000000000     0.000000000000     0.000000000000    51.940506230000

  Running in d2h symmetry.

  Rotational constants: A = ************  B = ************  C = ************ [cm^-1]
  Rotational constants: A = ************  B = ************  C = ************ [MHz]
  Nuclear repulsion =    0.000000000000000

  Charge       = 0
  Multiplicity = 7
  Electrons    = 24
  Nalpha       = 15
  Nbeta        = 9

  ==> Algorithm <==

  SCF Algorithm Type is DF.
  DIIS enabled.
  MOM disabled.
  Fractional occupation disabled.
  Guess Type is CORE.
  Energy threshold   = 1.00e-06
  Density threshold  = 1.00e-06
  Integral threshold = 1.00e-12

  ==> Primary Basis <==

  Basis Set: DEF2-TZVPPD
    Blend: DEF2-TZVPPD
    Number of shells: 19
    Number of basis functions: 67
    Number of Cartesian functions: 83
    Spherical Harmonics?: true
    Max angular momentum: 4

  ==> DFT Potential <==

   => Composite Functional: GAM <= 

   GAM GGA Minessota Exchange-Correlation Functional

    H.S. Yu, et al., Phys. Chem. Chem. Phys. 17, 12146, 2015


    Deriv               =              1
    GGA                 =           TRUE
    Meta                =          FALSE

    Exchange Hybrid     =          FALSE
    MP2 Hybrid          =          FALSE

   => Exchange Functionals <=

    1.0000     XC_GGA_X_GAM

   => Correlation Functionals <=

    1.0000     XC_GGA_C_GAM

   => LibXC Density Thresholds  <==

    XC_GGA_C_GAM:  1.00E-14 
    XC_GGA_X_GAM:  1.00E-14 

   => Molecular Quadrature <=

    Radial Scheme          =       TREUTLER
    Pruning Scheme         =           NONE
    Nuclear Scheme         =       TREUTLER

    BS radius alpha        =              1
    Pruning alpha          =              1
    Radial Points          =             75
    Spherical Points       =            302
    Total Points           =          21738
    Total Blocks           =            247
    Max Points             =            245
    Max Functions          =             67
    Weights Tolerance      =       1.00E-15

   => Loading Basis Set <=

    Name: (DEF2-TZVPPD AUX)
    Role: JKFIT
    Keyword: DF_BASIS_SCF
    atoms 1 entry CR         line  1726 file /mnt/storage/home/zw18965/.conda/envs/p4env/share/psi4/basis/def2-universal-jkfit.gbs 

  ==> Integral Setup <==

  DFHelper Memory: AOs need 0.012 GiB; user supplied 83.783 GiB. Using in-core AOs.

  ==> MemDFJK: Density-Fitted J/K Matrices <==

    J tasked:                   Yes
    K tasked:                    No
    wK tasked:                   No
    OpenMP threads:              28
    Memory [MiB]:             85793
    Algorithm:                 Core
    Schwarz Cutoff:           1E-12
    Mask sparsity (%):       0.0000
    Fitting Condition:        1E-10

   => Auxiliary Basis Set <=

  Basis Set: (DEF2-TZVPPD AUX)
    Blend: DEF2-UNIVERSAL-JKFIT
    Number of shells: 58
    Number of basis functions: 264
    Number of Cartesian functions: 377
    Spherical Harmonics?: true
    Max angular momentum: 6

  Cached 100.0% of DFT collocation blocks in 0.036 [GiB].

  Minimum eigenvalue in the overlap matrix is 4.1662433519E-02.
  Reciprocal condition number of the overlap matrix is 1.4972218160E-02.
    Using symmetric orthogonalization.

  ==> Pre-Iterations <==

  SCF Guess: Core (One-Electron) Hamiltonian.

   -------------------------------------------------------
    Irrep   Nso     Nmo     Nalpha   Nbeta   Ndocc  Nsocc
   -------------------------------------------------------
     Ag        17      17       5       3       3       2
     B1g        6       6       1       0       0       1
     B2g        6       6       1       0       0       1
     B3g        6       6       1       0       0       1
     Au         2       2       0       0       0       0
     B1u       10      10       3       2       2       1
     B2u       10      10       2       2       2       0
     B3u       10      10       2       2       2       0
   -------------------------------------------------------
    Total      67      67      15       9       9       6
   -------------------------------------------------------

  ==> Iterations <==

                           Total Energy        Delta E     RMS |[F,P]|

    Occupation by irrep:
             Ag   B1g   B2g   B3g    Au   B1u   B2u   B3u 
    DOCC [     3,    0,    0,    0,    0,    2,    2,    2 ]
    SOCC [     2,    1,    0,    0,    0,    1,    1,    1 ]

   @DF-UKS iter   1: -1023.38965785846665   -1.02339e+03   2.14542e-01 DIIS
    Occupation by irrep:
             Ag   B1g   B2g   B3g    Au   B1u   B2u   B3u 
    DOCC [     3,    0,    0,    0,    0,    2,    2,    2 ]
    SOCC [     3,    1,    1,    1,    0,    0,    0,    0 ]

   @DF-UKS iter   2:  -998.55858151902680    2.48311e+01   2.83079e-01 DIIS
    Occupation by irrep:
             Ag   B1g   B2g   B3g    Au   B1u   B2u   B3u 
    DOCC [     3,    0,    0,    0,    0,    2,    2,    2 ]
    SOCC [     2,    0,    1,    0,    0,    1,    1,    1 ]

   @DF-UKS iter   3: -1044.27335256106130   -4.57148e+01   3.55622e-02 DIIS
    Occupation by irrep:
             Ag   B1g   B2g   B3g    Au   B1u   B2u   B3u 
    DOCC [     3,    0,    0,    0,    0,    2,    2,    2 ]
    SOCC [     3,    1,    1,    1,    0,    0,    0,    0 ]

   @DF-UKS iter   4: -1040.66474557722722    3.60861e+00   9.07440e-02 DIIS
   @DF-UKS iter   5: -1044.71999453412309   -4.05525e+00   5.32445e-03 DIIS
   @DF-UKS iter   6: -1044.73413813537400   -1.41436e-02   1.40322e-03 DIIS
   @DF-UKS iter   7: -1044.73451486887052   -3.76733e-04   7.30076e-04 DIIS
   @DF-UKS iter   8: -1044.73461971459869   -1.04846e-04   3.12512e-04 DIIS
   @DF-UKS iter   9: -1044.73463494305497   -1.52285e-05   1.56385e-04 DIIS
   @DF-UKS iter  10: -1044.73463985587978   -4.91282e-06   5.32422e-05 DIIS
   @DF-UKS iter  11: -1044.73464056636408   -7.10484e-07   7.74835e-06 DIIS
   @DF-UKS iter  12: -1044.73464058230161   -1.59375e-08   9.90524e-07 DIIS
  Energy and wave function converged.


  ==> Post-Iterations <==

   Electrons on quadrature grid:
      Nalpha   =   15.0000001123 ; deviation = 1.123e-07
      Nbeta    =    9.0000001123 ; deviation = 1.123e-07
      Ntotal   =   24.0000002246 ; deviation = 2.246e-07 

   @Spin Contamination Metric:   1.333003568E-03
   @S^2 Expected:                1.200000000E+01
   @S^2 Observed:                1.200133300E+01
   @S   Expected:                3.000000000E+00
   @S   Observed:                3.000000000E+00

    Orbital Energies [Eh]
    ---------------------

    Alpha Occupied:                                                       

       1Ag  -213.953296     2Ag   -24.275784     1B1u  -20.715091  
       1B3u  -20.715091     1B2u  -20.715091     3Ag    -2.731368  
       2B2u   -1.721239     2B1u   -1.721239     2B3u   -1.721239  
       4Ag    -0.155087     5Ag    -0.143223     1B3g   -0.143223  
       1B1g   -0.143223     6Ag    -0.143223     1B2g   -0.143223  

    Alpha Virtual:                                                        

       3B1u   -0.037548     3B3u   -0.037548     3B2u   -0.037548  
       4B2u    0.052123     4B3u    0.052123     4B1u    0.052123  
       7Ag     0.083361     2B2g    0.099470     8Ag     0.099470  
       2B3g    0.099470     2B1g    0.099470     9Ag     0.099470  
       5B1u    0.373669     5B3u    0.373669     5B2u    0.373669  
      10Ag     0.464690     3B1g    0.464690     3B3g    0.464690  
       3B2g    0.464690    11Ag     0.464690     6B1u    1.485005  
       6B2u    1.485005     6B3u    1.485005     1Au     1.485005  
       7B2u    1.485005     7B1u    1.485006     7B3u    1.485006  
       8B2u    1.716722     8B1u    1.716722     8B3u    1.716722  
      12Ag     1.862777    13Ag     1.996931     4B3g    1.996931  
       4B1g    1.996931    14Ag     1.996931     4B2g    1.996931  
       5B3g    5.502915    15Ag     5.502915     5B1g    5.502915  
       5B2g    5.502915    16Ag     5.502915     6B3g    5.502915  
       6B1g    5.502915    17Ag     5.502915     6B2g    5.502915  
       9B2u    6.046336     9B1u    6.046337     9B3u    6.046337  
      10B2u    6.046337     2Au     6.046337    10B1u    6.046337  
      10B3u    6.046337  

    Beta Occupied:                                                        

       1Ag  -213.950949     2Ag   -24.200969     1B1u  -20.658598  
       1B3u  -20.658598     1B2u  -20.658598     3Ag    -2.529827  
       2B1u   -1.522974     2B3u   -1.522974     2B2u   -1.522974  

    Beta Virtual:                                                         

       4Ag     0.035077     1B3g    0.035077     1B1g    0.035077  
       5Ag     0.035077     1B2g    0.035077     6Ag     0.124113  
       3B2u    0.264524     3B1u    0.264530     3B3u    0.264533  
       4B2u    0.373227     4B1u    0.373283     4B3u    0.373288  
       7Ag     0.795665     2B3g    0.795673     2B1g    0.795674  
       2B2g    0.795688     8Ag     0.795690     9Ag     0.857506  
      10Ag     0.977901     3B3g    0.977902     3B2g    0.977913  
       3B1g    0.977913    11Ag     0.977922     5B1u    1.387054  
       5B2u    1.387084     5B3u    1.387099     6B1u    1.486274  
       6B2u    1.486274     6B3u    1.486274     1Au     1.486274  
       7B2u    1.486274     7B3u    1.486274     7B1u    1.486274  
       8B1u    2.095803     8B3u    2.095804     8B2u    2.095805  
      12Ag     2.178885    13Ag     2.387811     4B3g    2.387812  
       4B1g    2.387813     4B2g    2.387814    14Ag     2.387814  
       5B2g    5.702499    15Ag     5.702499     5B1g    5.702500  
       5B3g    5.702500    16Ag     5.702500     6B2g    5.702500  
       6B1g    5.702500     6B3g    5.702500    17Ag     5.702500  
       9B3u    6.220216     9B1u    6.220216     9B2u    6.220216  
       2Au     6.220216    10B1u    6.220216    10B3u    6.220216  
      10B2u    6.220216  

    Final Occupation by Irrep:
             Ag   B1g   B2g   B3g    Au   B1u   B2u   B3u 
    DOCC [     3,    0,    0,    0,    0,    2,    2,    2 ]
    SOCC [     3,    1,    1,    1,    0,    0,    0,    0 ]

  @DF-UKS Final Energy: -1044.73464058230161

   => Energetics <=

    Nuclear Repulsion Energy =              0.0000000000000000
    One-Electron Energy =               -1440.7455480354494739
    Two-Electron Energy =                 445.2441314956776637
    DFT Exchange-Correlation Energy =     -49.2332240425298977
    Empirical Dispersion Energy =           0.0000000000000000
    VV10 Nonlocal Energy =                  0.0000000000000000
    Total Energy =                      -1044.7346405823016084

  UHF NO Occupations:
  HONO-2 :    1B1g 1.0000000
  HONO-1 :    1B3g 1.0000000
  HONO-0 :    6 Ag 1.0000000
  LUNO+0 :    3B2u 0.0002163
  LUNO+1 :    3B1u 0.0002163
  LUNO+2 :    3B3u 0.0002163
  LUNO+3 :    7 Ag 0.0000130


Computation Completed


Properties will be evaluated at   0.000000,   0.000000,   0.000000 [a0]

Properties computed using the SCF density matrix

  Nuclear Dipole Moment: [e a0]
     X:     0.0000      Y:     0.0000      Z:     0.0000

  Electronic Dipole Moment: [e a0]
     X:     0.0000      Y:     0.0000      Z:     0.0000

  Dipole Moment: [e a0]
     X:     0.0000      Y:     0.0000      Z:     0.0000     Total:     0.0000

  Dipole Moment: [D]
     X:     0.0000      Y:     0.0000      Z:     0.0000     Total:     0.0000


*** tstop() called on compute399.bc4.acrc.priv at Sun Nov  7 05:02:39 2021
Module time:
	user time   =      49.79 seconds =       0.83 minutes
	system time =       2.78 seconds =       0.05 minutes
	total time  =          2 seconds =       0.03 minutes
Total time:
	user time   =      49.79 seconds =       0.83 minutes
	system time =       2.78 seconds =       0.05 minutes
	total time  =          2 seconds =       0.03 minutes

    Psi4 stopped on: Sunday, 07 November 2021 05:02AM
    Psi4 wall time for execution: 0:00:02.71

*** Psi4 exiting successfully. Buy a developer a beer!
