
    -----------------------------------------------------------------------
          Psi4: An Open-Source Ab Initio Electronic Structure Package
                               Psi4 1.4.1 release

                         Git: Rev {HEAD} cd00f19 


    D. G. A. Smith, L. A. Burns, A. C. Simmonett, R. M. Parrish,
    M. C. Schieber, R. Galvelis, P. Kraus, H. Kruse, R. Di Remigio,
    A. Alenaizan, A. M. James, S. Lehtola, J. P. Misiewicz, M. Scheurer,
    R. A. Shaw, J. B. Schriber, Y. Xie, Z. L. Glick, D. A. Sirianni,
    J. S. O'Brien, J. M. Waldrop, A. Kumar, E. G. Hohenstein,
    B. P. Pritchard, B. R. Brooks, H. F. Schaefer III, A. Yu. Sokolov,
    K. Patkowski, A. E. DePrince III, U. Bozkaya, R. A. King,
    F. A. Evangelista, J. M. Turney, T. D. Crawford, C. D. Sherrill,
    J. Chem. Phys. 152(18) 184108 (2020). https://doi.org/10.1063/5.0006002

                            Additional Code Authors
    E. T. Seidl, C. L. Janssen, E. F. Valeev, M. L. Leininger,
    J. F. Gonthier, R. M. Richard, H. R. McAlexander, M. Saitow, X. Wang,
    P. Verma, and M. H. Lechner

             Previous Authors, Complete List of Code Contributors,
                       and Citations for Specific Modules
    https://github.com/psi4/psi4/blob/master/codemeta.json
    https://github.com/psi4/psi4/graphs/contributors
    http://psicode.org/psi4manual/master/introduction.html#citing-psifour

    -----------------------------------------------------------------------


    Psi4 started on: Sunday, 07 November 2021 05:03AM

    Process ID: 16867
    Host:       compute427.bc4.acrc.priv
    PSIDATADIR: /mnt/storage/home/zw18965/.conda/envs/p4env/share/psi4
    Memory:     500.0 MiB
    Threads:    28
    
  ==> Input File <==

--------------------------------------------------------------------------
memory 120 GB

molecule {
0 1
Cr         0.00000        0.00000        0.00000
Cr         0.00000        0.00000        1.68000
 }

set dynamic_level 1
set basis Def2-TZVPPD

energy("GAM")
--------------------------------------------------------------------------

  Memory set to 111.759 GiB by Python driver.

Scratch directory: /tmp/

*** tstart() called on compute427.bc4.acrc.priv
*** at Sun Nov  7 05:03:22 2021

   => Loading Basis Set <=

    Name: DEF2-TZVPPD
    Role: ORBITAL
    Keyword: BASIS
    atoms 1-2 entry CR         line   985 file /mnt/storage/home/zw18965/.conda/envs/p4env/share/psi4/basis/def2-tzvppd.gbs 


         ---------------------------------------------------------
                                   SCF
               by Justin Turney, Rob Parrish, Andy Simmonett
                          and Daniel G. A. Smith
                              RKS Reference
                       28 Threads, 114440 MiB Core
         ---------------------------------------------------------

  ==> Geometry <==

    Molecular point group: d2h
    Full point group: D_inf_h

    Geometry (in Angstrom), charge = 0, multiplicity = 1:

       Center              X                  Y                   Z               Mass       
    ------------   -----------------  -----------------  -----------------  -----------------
         CR           0.000000000000     0.000000000000    -0.840000000000    51.940506230000
         CR           0.000000000000     0.000000000000     0.840000000000    51.940506230000

  Running in d2h symmetry.

  Rotational constants: A = ************  B =      0.22999  C =      0.22999 [cm^-1]
  Rotational constants: A = ************  B =   6894.81239  C =   6894.81239 [MHz]
  Nuclear repulsion =  181.432186515428612

  Charge       = 0
  Multiplicity = 1
  Electrons    = 48
  Nalpha       = 24
  Nbeta        = 24

  ==> Algorithm <==

  SCF Algorithm Type is DF.
  DIIS enabled.
  MOM disabled.
  Fractional occupation disabled.
  Guess Type is SAD.
  Energy threshold   = 1.00e-06
  Density threshold  = 1.00e-06
  Integral threshold = 1.00e-12

  ==> Primary Basis <==

  Basis Set: DEF2-TZVPPD
    Blend: DEF2-TZVPPD
    Number of shells: 38
    Number of basis functions: 134
    Number of Cartesian functions: 166
    Spherical Harmonics?: true
    Max angular momentum: 4

  ==> DFT Potential <==

   => Composite Functional: GAM <= 

   GAM GGA Minessota Exchange-Correlation Functional

    H.S. Yu, et al., Phys. Chem. Chem. Phys. 17, 12146, 2015


    Deriv               =              1
    GGA                 =           TRUE
    Meta                =          FALSE

    Exchange Hybrid     =          FALSE
    MP2 Hybrid          =          FALSE

   => Exchange Functionals <=

    1.0000     XC_GGA_X_GAM

   => Correlation Functionals <=

    1.0000     XC_GGA_C_GAM

   => LibXC Density Thresholds  <==

    XC_GGA_C_GAM:  1.00E-14 
    XC_GGA_X_GAM:  1.00E-14 

   => Molecular Quadrature <=

    Radial Scheme          =       TREUTLER
    Pruning Scheme         =           NONE
    Nuclear Scheme         =       TREUTLER

    BS radius alpha        =              1
    Pruning alpha          =              1
    Radial Points          =             75
    Spherical Points       =            302
    Total Points           =          43692
    Total Blocks           =            436
    Max Points             =            255
    Max Functions          =            133
    Weights Tolerance      =       1.00E-15

   => Loading Basis Set <=

    Name: (DEF2-TZVPPD AUX)
    Role: JKFIT
    Keyword: DF_BASIS_SCF
    atoms 1-2 entry CR         line  1726 file /mnt/storage/home/zw18965/.conda/envs/p4env/share/psi4/basis/def2-universal-jkfit.gbs 

  ==> Integral Setup <==

  DFHelper Memory: AOs need 0.081 GiB; user supplied 83.683 GiB. Using in-core AOs.

  ==> MemDFJK: Density-Fitted J/K Matrices <==

    J tasked:                   Yes
    K tasked:                    No
    wK tasked:                   No
    OpenMP threads:              28
    Memory [MiB]:             85691
    Algorithm:                 Core
    Schwarz Cutoff:           1E-12
    Mask sparsity (%):       0.2896
    Fitting Condition:        1E-10

   => Auxiliary Basis Set <=

  Basis Set: (DEF2-TZVPPD AUX)
    Blend: DEF2-UNIVERSAL-JKFIT
    Number of shells: 116
    Number of basis functions: 528
    Number of Cartesian functions: 754
    Spherical Harmonics?: true
    Max angular momentum: 6

  Cached 100.0% of DFT collocation blocks in 0.136 [GiB].

  Minimum eigenvalue in the overlap matrix is 1.6223487494E-04.
  Reciprocal condition number of the overlap matrix is 3.0882737450E-05.
    Using symmetric orthogonalization.

  ==> Pre-Iterations <==

  SCF Guess: Superposition of Atomic Densities via on-the-fly atomic UHF (no occupation information).

   -------------------------
    Irrep   Nso     Nmo    
   -------------------------
     Ag        27      27 
     B1g        8       8 
     B2g       16      16 
     B3g       16      16 
     Au         8       8 
     B1u       27      27 
     B2u       16      16 
     B3u       16      16 
   -------------------------
    Total     134     134
   -------------------------

  ==> Iterations <==

                           Total Energy        Delta E     RMS |[F,P]|

   @DF-RKS iter SAD: -2088.77974382506773   -2.08878e+03   0.00000e+00 
    Occupation by irrep:
             Ag   B1g   B2g   B3g    Au   B1u   B2u   B3u 
    DOCC [     6,    0,    3,    3,    0,    6,    3,    3 ]

   @DF-RKS iter   1: -2086.65226594092201    2.12748e+00   5.62994e-02 DIIS
    Occupation by irrep:
             Ag   B1g   B2g   B3g    Au   B1u   B2u   B3u 
    DOCC [     7,    1,    2,    2,    1,    5,    3,    3 ]

   @DF-RKS iter   2: -2063.60278027350068    2.30495e+01   1.19497e-01 DIIS
    Occupation by irrep:
             Ag   B1g   B2g   B3g    Au   B1u   B2u   B3u 
    DOCC [     7,    0,    2,    2,    0,    6,    4,    3 ]

   @DF-RKS iter   3: -2088.80333011670655   -2.52005e+01   1.61110e-02 DIIS
    Occupation by irrep:
             Ag   B1g   B2g   B3g    Au   B1u   B2u   B3u 
    DOCC [     8,    0,    2,    2,    0,    6,    3,    3 ]

   @DF-RKS iter   4: -2083.47876213367545    5.32457e+00   6.20009e-02 DIIS
    Occupation by irrep:
             Ag   B1g   B2g   B3g    Au   B1u   B2u   B3u 
    DOCC [     8,    1,    2,    2,    0,    5,    3,    3 ]

   @DF-RKS iter   5: -2088.22315735002985   -4.74440e+00   3.01887e-02 DIIS
   @DF-RKS iter   6: -2089.33715651984357   -1.11400e+00   1.11288e-02 DIIS
   @DF-RKS iter   7: -2089.39079036241219   -5.36338e-02   7.59047e-03 DIIS
   @DF-RKS iter   8: -2089.41508194511243   -2.42916e-02   5.99375e-03 DIIS
   @DF-RKS iter   9: -2089.44731144488742   -3.22295e-02   7.03502e-04 DIIS
   @DF-RKS iter  10: -2089.44783570317895   -5.24258e-04   8.10503e-05 DIIS
   @DF-RKS iter  11: -2089.44784015799542   -4.45482e-06   3.01094e-05 DIIS
   @DF-RKS iter  12: -2089.44784095488467   -7.96889e-07   8.22548e-07 DIIS
  Energy and wave function converged.


  ==> Post-Iterations <==

   Electrons on quadrature grid:
      Ntotal   =   48.0000126226 ; deviation = 1.262e-05 

    Orbital Energies [Eh]
    ---------------------

    Doubly Occupied:                                                      

       1B1u -214.054955     1Ag  -214.054909     2B1u  -24.349565  
       2Ag   -24.349472     3Ag   -20.798318     3B1u  -20.798313  
       1B3g  -20.797222     1B2g  -20.797222     1B2u  -20.797217  
       1B3u  -20.797217     4Ag    -2.762879     4B1u   -2.702889  
       5Ag    -1.814584     2B2u   -1.729602     2B3u   -1.729602  
       2B3g   -1.698614     2B2g   -1.698614     5B1u   -1.639712  
       3B2u   -0.229050     3B3u   -0.229050     6Ag    -0.220736  
       7Ag    -0.161695     8Ag    -0.159973     1B1g   -0.159969  

    Virtual:                                                              

       6B1u   -0.096194     1Au    -0.096189     7B1u   -0.089838  
       3B3g   -0.060330     3B2g   -0.060330     4B2u   -0.057440  
       4B3u   -0.057440     8B1u   -0.029161     9Ag     0.005687  
       4B3g    0.033701     4B2g    0.033701     9B1u    0.037145  
      10Ag     0.054856     5B2u    0.064508     5B3u    0.064508  
      11Ag     0.071456     2B1g    0.071456    12Ag     0.098468  
       5B3g    0.117276     5B2g    0.117276     6B2u    0.121194  
       6B3u    0.121194    10B1u    0.126279    11B1u    0.129279  
       2Au     0.129279    12B1u    0.145454     6B3g    0.221485  
       6B2g    0.221485    13Ag     0.226536     7B2u    0.347935  
       7B3u    0.347935    13B1u    0.370405    14Ag     0.429081  
      15Ag     0.443723     3B1g    0.443726     7B3g    0.473204  
       7B2g    0.473204     8B2u    0.522732     8B3u    0.522732  
      14B1u    0.523971    15B1u    0.540201     3Au     0.540204  
      16Ag     0.560723     8B3g    0.643365     8B2g    0.643365  
      16B1u    0.779623    17Ag     1.311681     4B1g    1.311682  
       9B3u    1.425748     9B2u    1.425748    10B2u    1.436984  
      10B3u    1.436984     9B2g    1.591729     9B3g    1.591729  
      17B1u    1.598017    18Ag     1.605470    19Ag     1.633824  
      11B2u    1.796693    11B3u    1.796693    10B3g    1.863454  
      10B2g    1.863455    18B1u    1.877108     4Au     1.877108  
      11B3g    1.912644    11B2g    1.912644    19B1u    1.939681  
      20Ag     1.981520     5B1g    1.981526    12B2u    1.988628  
      12B3u    1.988628    21Ag     2.094258    20B1u    2.100509  
       5Au     2.100516    21B1u    2.396756    22Ag     2.756342  
      12B3g    2.821116    12B2g    2.821116    22B1u    4.036281  
      13B2u    5.139764    13B3u    5.139764    23Ag     5.201954  
       6B1g    5.230069    24Ag     5.230072    14B2u    5.426629  
      14B3u    5.426629     7B1g    5.516157    25Ag     5.516253  
       6Au     5.532434    23B1u    5.532530    13B3g    5.600594  
      13B2g    5.600594     7Au     5.825636    24B1u    5.825646  
      15B3u    6.035833    15B2u    6.035833    26Ag     6.042186  
       8B1g    6.042186    25B1u    6.054163    14B3g    6.071211  
      14B2g    6.071211    15B2g    6.101179    15B3g    6.101179  
      16B2u    6.301526    16B3u    6.301526     8Au     6.349118  
      26B1u    6.349124    27Ag     6.696533    27B1u    6.716839  
      16B3g    6.932004    16B2g    6.932004  

    Final Occupation by Irrep:
             Ag   B1g   B2g   B3g    Au   B1u   B2u   B3u 
    DOCC [     8,    1,    2,    2,    0,    5,    3,    3 ]

  @DF-RKS Final Energy: -2089.44784095488467

   => Energetics <=

    Nuclear Repulsion Energy =            181.4321865154286115
    One-Electron Energy =               -3240.1792057306365678
    Two-Electron Energy =                1067.3829719186237526
    DFT Exchange-Correlation Energy =     -98.0837936583009480
    Empirical Dispersion Energy =           0.0000000000000000
    VV10 Nonlocal Energy =                  0.0000000000000000
    Total Energy =                      -2089.4478409548851232

Computation Completed


Properties will be evaluated at   0.000000,   0.000000,   0.000000 [a0]

Properties computed using the SCF density matrix

  Nuclear Dipole Moment: [e a0]
     X:     0.0000      Y:     0.0000      Z:    -0.0000

  Electronic Dipole Moment: [e a0]
     X:     0.0000      Y:     0.0000      Z:     0.0000

  Dipole Moment: [e a0]
     X:     0.0000      Y:     0.0000      Z:    -0.0000     Total:     0.0000

  Dipole Moment: [D]
     X:     0.0000      Y:     0.0000      Z:    -0.0000     Total:     0.0000


*** tstop() called on compute427.bc4.acrc.priv at Sun Nov  7 05:03:25 2021
Module time:
	user time   =      40.58 seconds =       0.68 minutes
	system time =       2.00 seconds =       0.03 minutes
	total time  =          3 seconds =       0.05 minutes
Total time:
	user time   =      40.58 seconds =       0.68 minutes
	system time =       2.00 seconds =       0.03 minutes
	total time  =          3 seconds =       0.05 minutes

    Psi4 stopped on: Sunday, 07 November 2021 05:03AM
    Psi4 wall time for execution: 0:00:02.16

*** Psi4 exiting successfully. Buy a developer a beer!
