
    -----------------------------------------------------------------------
          Psi4: An Open-Source Ab Initio Electronic Structure Package
                               Psi4 1.4.1 release

                         Git: Rev {HEAD} cd00f19 


    D. G. A. Smith, L. A. Burns, A. C. Simmonett, R. M. Parrish,
    M. C. Schieber, R. Galvelis, P. Kraus, H. Kruse, R. Di Remigio,
    A. Alenaizan, A. M. James, S. Lehtola, J. P. Misiewicz, M. Scheurer,
    R. A. Shaw, J. B. Schriber, Y. Xie, Z. L. Glick, D. A. Sirianni,
    J. S. O'Brien, J. M. Waldrop, A. Kumar, E. G. Hohenstein,
    B. P. Pritchard, B. R. Brooks, H. F. Schaefer III, A. Yu. Sokolov,
    K. Patkowski, A. E. DePrince III, U. Bozkaya, R. A. King,
    F. A. Evangelista, J. M. Turney, T. D. Crawford, C. D. Sherrill,
    J. Chem. Phys. 152(18) 184108 (2020). https://doi.org/10.1063/5.0006002

                            Additional Code Authors
    E. T. Seidl, C. L. Janssen, E. F. Valeev, M. L. Leininger,
    J. F. Gonthier, R. M. Richard, H. R. McAlexander, M. Saitow, X. Wang,
    P. Verma, and M. H. Lechner

             Previous Authors, Complete List of Code Contributors,
                       and Citations for Specific Modules
    https://github.com/psi4/psi4/blob/master/codemeta.json
    https://github.com/psi4/psi4/graphs/contributors
    http://psicode.org/psi4manual/master/introduction.html#citing-psifour

    -----------------------------------------------------------------------


    Psi4 started on: Sunday, 07 November 2021 05:03AM

    Process ID: 7621
    Host:       compute476.bc4.acrc.priv
    PSIDATADIR: /mnt/storage/home/zw18965/.conda/envs/p4env/share/psi4
    Memory:     500.0 MiB
    Threads:    28
    
  ==> Input File <==

--------------------------------------------------------------------------
memory 120 GB

molecule {
0 1
Fe        -0.20173       -0.07205       -0.00000
C          1.72826       -0.07205        0.00000
O          2.84367       -0.07205        0.00000
C         -0.20170       -0.07205       -1.93000
O         -0.20173       -0.07205       -3.04540
C         -0.20170       -0.07205        1.93000
O         -0.20173       -0.07205        3.04540
C         -1.16675       -1.74347        0.00000
O         -1.72443       -2.70944        0.00000
C         -1.16675        1.59938        0.00000
O         -1.72443        2.56535        0.00000
 }

set dynamic_level 1
set basis Def2-TZVPPD

energy("GAM")
--------------------------------------------------------------------------

  Memory set to 111.759 GiB by Python driver.

Scratch directory: /tmp/

*** tstart() called on compute476.bc4.acrc.priv
*** at Sun Nov  7 05:03:31 2021

   => Loading Basis Set <=

    Name: DEF2-TZVPPD
    Role: ORBITAL
    Keyword: BASIS
    atoms 1              entry FE         line  1107 file /mnt/storage/home/zw18965/.conda/envs/p4env/share/psi4/basis/def2-tzvppd.gbs 
    atoms 2, 4, 6, 8, 10 entry C          line   144 file /mnt/storage/home/zw18965/.conda/envs/p4env/share/psi4/basis/def2-tzvppd.gbs 
    atoms 3, 5, 7, 9, 11 entry O          line   218 file /mnt/storage/home/zw18965/.conda/envs/p4env/share/psi4/basis/def2-tzvppd.gbs 


         ---------------------------------------------------------
                                   SCF
               by Justin Turney, Rob Parrish, Andy Simmonett
                          and Daniel G. A. Smith
                              RKS Reference
                       28 Threads, 114440 MiB Core
         ---------------------------------------------------------

  ==> Geometry <==

    Molecular point group: cs
    Full point group: Cs

    Geometry (in Angstrom), charge = 0, multiplicity = 1:

       Center              X                  Y                   Z               Mass       
    ------------   -----------------  -----------------  -----------------  -----------------
         FE          -0.000000612528    -0.000001428972     0.000000000000    55.934936330000
         C            1.929989387472    -0.000001428972     0.000000000000    12.000000000000
         O            3.045399387472    -0.000001428972     0.000000000000    15.994914619570
         C            0.000029387472    -0.000001428972    -1.930000000000    12.000000000000
         O           -0.000000612528    -0.000001428972    -3.045400000000    15.994914619570
         C            0.000029387472    -0.000001428972     1.930000000000    12.000000000000
         O           -0.000000612528    -0.000001428972     3.045400000000    15.994914619570
         C           -0.965020612528    -1.671421428972     0.000000000000    12.000000000000
         O           -1.522700612528    -2.637391428972     0.000000000000    15.994914619570
         C           -0.965020612528     1.671428571028     0.000000000000    12.000000000000
         O           -1.522700612528     2.637398571028     0.000000000000    15.994914619570

  Running in cs symmetry.

  Rotational constants: A =      0.02911  B =      0.02495  C =      0.02495 [cm^-1]
  Rotational constants: A =    872.65301  B =    747.98907  C =    747.98804 [MHz]
  Nuclear repulsion =  774.181580031195608

  Charge       = 0
  Multiplicity = 1
  Electrons    = 96
  Nalpha       = 48
  Nbeta        = 48

  ==> Algorithm <==

  SCF Algorithm Type is DF.
  DIIS enabled.
  MOM disabled.
  Fractional occupation disabled.
  Guess Type is SAD.
  Energy threshold   = 1.00e-06
  Density threshold  = 1.00e-06
  Integral threshold = 1.00e-12

  ==> Primary Basis <==

  Basis Set: DEF2-TZVPPD
    Blend: DEF2-TZVPPD
    Number of shells: 154
    Number of basis functions: 452
    Number of Cartesian functions: 528
    Spherical Harmonics?: true
    Max angular momentum: 4

  ==> DFT Potential <==

   => Composite Functional: GAM <= 

   GAM GGA Minessota Exchange-Correlation Functional

    H.S. Yu, et al., Phys. Chem. Chem. Phys. 17, 12146, 2015


    Deriv               =              1
    GGA                 =           TRUE
    Meta                =          FALSE

    Exchange Hybrid     =          FALSE
    MP2 Hybrid          =          FALSE

   => Exchange Functionals <=

    1.0000     XC_GGA_X_GAM

   => Correlation Functionals <=

    1.0000     XC_GGA_C_GAM

   => LibXC Density Thresholds  <==

    XC_GGA_C_GAM:  1.00E-14 
    XC_GGA_X_GAM:  1.00E-14 

   => Molecular Quadrature <=

    Radial Scheme          =       TREUTLER
    Pruning Scheme         =           NONE
    Nuclear Scheme         =       TREUTLER

    BS radius alpha        =              1
    Pruning alpha          =              1
    Radial Points          =             75
    Spherical Points       =            302
    Total Points           =         236051
    Total Blocks           =           1857
    Max Points             =            256
    Max Functions          =            385
    Weights Tolerance      =       1.00E-15

   => Loading Basis Set <=

    Name: (DEF2-TZVPPD AUX)
    Role: JKFIT
    Keyword: DF_BASIS_SCF
    atoms 1              entry FE         line  1978 file /mnt/storage/home/zw18965/.conda/envs/p4env/share/psi4/basis/def2-universal-jkfit.gbs 
    atoms 2, 4, 6, 8, 10 entry C          line   198 file /mnt/storage/home/zw18965/.conda/envs/p4env/share/psi4/basis/def2-universal-jkfit.gbs 
    atoms 3, 5, 7, 9, 11 entry O          line   318 file /mnt/storage/home/zw18965/.conda/envs/p4env/share/psi4/basis/def2-universal-jkfit.gbs 

  ==> Integral Setup <==

  DFHelper Memory: AOs need 1.514 GiB; user supplied 81.861 GiB. Using in-core AOs.

  ==> MemDFJK: Density-Fitted J/K Matrices <==

    J tasked:                   Yes
    K tasked:                    No
    wK tasked:                   No
    OpenMP threads:              28
    Memory [MiB]:             83825
    Algorithm:                 Core
    Schwarz Cutoff:           1E-12
    Mask sparsity (%):       9.9058
    Fitting Condition:        1E-10

   => Auxiliary Basis Set <=

  Basis Set: (DEF2-TZVPPD AUX)
    Blend: DEF2-UNIVERSAL-JKFIT
    Number of shells: 308
    Number of basis functions: 1024
    Number of Cartesian functions: 1287
    Spherical Harmonics?: true
    Max angular momentum: 6

  Cached 100.0% of DFT collocation blocks in 1.958 [GiB].

  Minimum eigenvalue in the overlap matrix is 5.1739541000E-06.
  Reciprocal condition number of the overlap matrix is 4.4010605148E-07.
    Using symmetric orthogonalization.

  ==> Pre-Iterations <==

  SCF Guess: Superposition of Atomic Densities via on-the-fly atomic UHF (no occupation information).

   -------------------------
    Irrep   Nso     Nmo    
   -------------------------
     A'       276     276 
     A"       176     176 
   -------------------------
    Total     452     452
   -------------------------

  ==> Iterations <==

                           Total Energy        Delta E     RMS |[F,P]|

   @DF-RKS iter SAD: -1829.63170829409887   -1.82963e+03   0.00000e+00 
   @DF-RKS iter   1: -1822.00919997232677    7.62251e+00   1.80708e-02 DIIS
   @DF-RKS iter   2: -1724.35211908544420    9.76571e+01   3.03905e-02 DIIS
   @DF-RKS iter   3: -1809.68979548704328   -8.53377e+01   2.16304e-02 DIIS
   @DF-RKS iter   4: -1823.61287318301083   -1.39231e+01   1.61217e-02 DIIS
   @DF-RKS iter   5: -1824.14210541653779   -5.29232e-01   1.37671e-02 DIIS
   @DF-RKS iter   6: -1825.49773599095602   -1.35563e+00   1.43165e-02 DIIS
   @DF-RKS iter   7: -1826.94691155266037   -1.44918e+00   1.25474e-02 DIIS
   @DF-RKS iter   8: -1824.46449729457095    2.48241e+00   1.53183e-02 DIIS
   @DF-RKS iter   9: -1825.15758100770745   -6.93084e-01   1.47092e-02 DIIS
   @DF-RKS iter  10: -1825.00271811703510    1.54863e-01   1.48960e-02 DIIS
   @DF-RKS iter  11: -1825.06251909134835   -5.98010e-02   1.48189e-02 DIIS
   @DF-RKS iter  12: -1828.16692335486300   -3.10440e+00   1.06459e-02 DIIS
   @DF-RKS iter  13: -1827.45453117554825    7.12392e-01   1.14952e-02 DIIS
   @DF-RKS iter  14: -1827.89123261605096   -4.36701e-01   1.10879e-02 DIIS
   @DF-RKS iter  15: -1828.76631530673512   -8.75083e-01   9.62607e-03 DIIS
   @DF-RKS iter  16: -1828.84158506930680   -7.52698e-02   9.45669e-03 DIIS
   @DF-RKS iter  17: -1828.64662968761854    1.94955e-01   9.71474e-03 DIIS
   @DF-RKS iter  18: -1829.43847956096715   -7.91850e-01   8.02511e-03 DIIS
   @DF-RKS iter  19: -1830.24825952844708   -8.09780e-01   5.97581e-03 DIIS
   @DF-RKS iter  20: -1830.44589830105542   -1.97639e-01   5.19882e-03 DIIS
   @DF-RKS iter  21: -1829.38470845589427    1.06119e+00   8.04373e-03 DIIS
   @DF-RKS iter  22: -1831.15572821098522   -1.77102e+00   7.40151e-04 DIIS
   @DF-RKS iter  23: -1831.12599122394909    2.97370e-02   1.28911e-03 DIIS
   @DF-RKS iter  24: -1831.16430454750844   -3.83133e-02   4.02794e-04 DIIS
   @DF-RKS iter  25: -1831.16925161011977   -4.94706e-03   2.69853e-04 DIIS
   @DF-RKS iter  26: -1831.17139761061503   -2.14600e-03   8.70663e-05 DIIS
   @DF-RKS iter  27: -1831.17155328837725   -1.55678e-04   3.35739e-05 DIIS
   @DF-RKS iter  28: -1831.17157158369355   -1.82953e-05   2.87066e-05 DIIS
   @DF-RKS iter  29: -1831.17159250258874   -2.09189e-05   3.38450e-06 DIIS
   @DF-RKS iter  30: -1831.17159288298785   -3.80399e-07   1.19337e-06 DIIS
   @DF-RKS iter  31: -1831.17159291445319   -3.14653e-08   3.98552e-07 DIIS
  Energy and wave function converged.


  ==> Post-Iterations <==

   Electrons on quadrature grid:
      Ntotal   =   96.0000460999 ; deviation = 4.610e-05 

    Orbital Energies [Eh]
    ---------------------

    Doubly Occupied:                                                      

       1Ap  -254.243912     2Ap   -29.668584     1App  -25.714677  
       3Ap   -25.694186     4Ap   -25.694182     2App  -18.851641  
       5Ap   -18.851638     6Ap   -18.837558     7Ap   -18.837556  
       8Ap   -18.837548     9Ap   -10.055396     3App  -10.055391  
      10Ap   -10.039439    11Ap   -10.039434    12Ap   -10.039427  
      13Ap    -3.313115     4App   -2.147843    14Ap    -2.114725  
      15Ap    -2.114721    16Ap    -1.095412     5App   -1.095368  
      17Ap    -1.081850    18Ap    -1.081802    19Ap    -1.081793  
      20Ap    -0.543961     6App   -0.525550    21Ap    -0.513651  
      22Ap    -0.513646    23Ap    -0.513407    24Ap    -0.450781  
       7App   -0.447831     8App   -0.447830    25Ap    -0.444341  
      26Ap    -0.444340     9App   -0.437513    27Ap    -0.429378  
      28Ap    -0.429371    10App   -0.427028    11App   -0.427021  
      29Ap    -0.426236    30Ap    -0.389996    31Ap    -0.385029  
      32Ap    -0.385025    12App   -0.382462    13App   -0.236185  
      14App   -0.236170    33Ap    -0.193248    34Ap    -0.193238  

    Virtual:                                                              

      35Ap    -0.104862    15App   -0.071158    16App   -0.071139  
      36Ap    -0.066036    37Ap    -0.066032    17App   -0.057097  
      38Ap    -0.047896    39Ap    -0.045379    40Ap    -0.045369  
      18App   -0.019598    19App   -0.019592    41Ap    -0.004680  
      20App    0.021421    42Ap     0.026096    43Ap     0.026103  
      44Ap     0.054674    45Ap     0.058165    46Ap     0.058172  
      21App    0.060075    22App    0.060080    47Ap     0.080484  
      23App    0.084454    48Ap     0.095616    49Ap     0.095618  
      50Ap     0.102716    51Ap     0.117092    24App    0.117400  
      25App    0.117414    52Ap     0.131919    53Ap     0.131927  
      26App    0.138928    27App    0.156861    54Ap     0.159452  
      55Ap     0.159459    28App    0.166113    29App    0.166119  
      56Ap     0.180062    57Ap     0.202892    58Ap     0.207241  
      59Ap     0.207244    60Ap     0.221890    61Ap     0.231265  
      62Ap     0.231268    30App    0.241614    31App    0.241619  
      32App    0.241817    33App    0.243899    63Ap     0.244466  
      64Ap     0.244470    65Ap     0.256237    34App    0.290709  
      66Ap     0.291457    67Ap     0.291464    68Ap     0.299116  
      69Ap     0.300517    70Ap     0.302333    71Ap     0.302337  
      35App    0.316076    36App    0.316089    72Ap     0.329173  
      37App    0.336112    73Ap     0.337612    74Ap     0.337621  
      38App    0.349374    39App    0.349382    75Ap     0.354734  
      76Ap     0.354741    40App    0.373773    77Ap     0.375690  
      41App    0.425424    42App    0.425436    43App    0.434074  
      44App    0.434075    78Ap     0.442071    79Ap     0.444925  
      80Ap     0.444940    45App    0.457249    81Ap     0.477496  
      82Ap     0.477498    83Ap     0.480560    84Ap     0.502283  
      85Ap     0.503196    86Ap     0.503211    46App    0.509560  
      47App    0.509580    87Ap     0.518977    88Ap     0.519806  
      89Ap     0.519832    48App    0.531197    90Ap     0.544146  
      91Ap     0.544688    92Ap     0.544752    49App    0.546035  
      50App    0.546088    51App    0.564623    52App    0.572296  
      53App    0.593001    54App    0.593006    93Ap     0.598365  
      94Ap     0.598376    95Ap     0.609135    96Ap     0.620904  
      97Ap     0.620913    55App    0.627665    98Ap     0.629871  
      99Ap     0.629874   100Ap     0.634118   101Ap     0.656729  
     102Ap     0.668415   103Ap     0.668461    56App    0.682519  
      57App    0.687038    58App    0.687057    59App    0.700258  
      60App    0.700280   104Ap     0.701029   105Ap     0.726279  
     106Ap     0.726290    61App    0.758860   107Ap     0.771959  
      62App    0.793957   108Ap     0.798763   109Ap     0.798772  
     110Ap     0.810110    63App    0.815882    64App    0.815931  
     111Ap     0.832439   112Ap     0.832461   113Ap     0.834983  
     114Ap     0.848321   115Ap     0.852676   116Ap     0.852682  
      65App    0.855508   117Ap     0.856836    66App    0.869889  
      67App    0.869890    68App    0.885487    69App    0.885506  
      70App    0.913058    71App    0.913066   118Ap     0.922237  
     119Ap     0.922247    72App    0.933434   120Ap     0.955516  
     121Ap     0.955558   122Ap     0.971892   123Ap     0.971955  
      73App    0.989814    74App    1.048405    75App    1.048465  
     124Ap     1.052121   125Ap     1.052162   126Ap     1.066674  
     127Ap     1.066698   128Ap     1.099088    76App    1.148012  
      77App    1.148026   129Ap     1.185597   130Ap     1.185609  
     131Ap     1.190979    78App    1.221591   132Ap     1.226340  
     133Ap     1.226365   134Ap     1.258409    79App    1.272559  
     135Ap     1.284866   136Ap     1.284890   137Ap     1.389973  
      80App    1.409854    81App    1.409880   138Ap     1.433954  
     139Ap     1.434012   140Ap     1.619806   141Ap     1.652511  
      82App    1.652991    83App    1.653027    84App    1.657848  
     142Ap     1.667928   143Ap     1.667942    85App    1.674516  
      86App    1.674534   144Ap     1.689257   145Ap     1.689271  
      87App    1.695789   146Ap     1.713524    88App    1.718244  
      89App    1.721198    90App    1.721221   147Ap     1.723217  
     148Ap     1.723266    91App    1.732754    92App    1.732760  
     149Ap     1.741292   150Ap     1.741303   151Ap     1.771277  
     152Ap     1.791629   153Ap     1.791648   154Ap     1.820820  
      93App    1.832360   155Ap     1.886329   156Ap     1.887862  
     157Ap     1.887873   158Ap     1.956387    94App    1.957723  
     159Ap     1.963380    95App    2.042960    96App    2.042971  
     160Ap     2.069942   161Ap     2.069973    97App    2.154084  
      98App    2.154106    99App    2.195625   162Ap     2.196142  
     163Ap     2.196158   100App    2.302952   164Ap     2.325835  
     165Ap     2.334021   166Ap     2.345604   167Ap     2.345618  
     168Ap     2.417064   169Ap     2.417090   101App    2.485315  
     102App    2.485341   170Ap     2.531298   103App    2.571391  
     171Ap     2.576297   172Ap     2.609610   104App    2.616026  
     105App    2.616055   173Ap     2.622855   174Ap     2.622942  
     106App    2.629267   175Ap     2.630917   107App    2.667878  
     176Ap     2.736672   177Ap     2.736684   178Ap     2.737673  
     108App    2.748366   109App    2.749888   110App    2.749926  
     111App    2.770866   179Ap     2.772072   180Ap     2.772102  
     112App    2.811789   113App    2.811822   181Ap     2.841713  
     182Ap     2.841728   183Ap     2.856335   184Ap     2.860248  
     114App    2.901786   115App    2.901844   116App    2.928094  
     117App    2.928106   185Ap     2.931443   186Ap     2.931457  
     118App    2.960348   187Ap     2.963306   188Ap     2.963337  
     119App    2.974604   120App    3.020931   121App    3.021040  
     189Ap     3.041635   190Ap     3.041645   122App    3.066015  
     123App    3.066049   191Ap     3.100415   192Ap     3.100418  
     193Ap     3.111183   124App    3.113772   125App    3.113785  
     194Ap     3.142183   195Ap     3.144413   126App    3.170247  
     196Ap     3.170646   197Ap     3.170650   198Ap     3.211516  
     199Ap     3.238475   200Ap     3.238506   127App    3.308461  
     128App    3.308546   201Ap     3.318424   202Ap     3.318461  
     203Ap     3.333657   129App    3.336830   130App    3.351689  
     204Ap     3.383389   205Ap     3.410207   206Ap     3.410236  
     207Ap     3.518456   208Ap     3.518488   131App    3.566276  
     132App    3.576665   133App    3.576681   209Ap     3.631634  
     210Ap     3.656123   211Ap     3.678606   212Ap     3.678629  
     134App    3.721229   213Ap     3.780394   214Ap     3.780403  
     135App    3.818460   136App    3.818464   215Ap     3.827456  
     137App    3.898091   138App    3.898183   216Ap     4.070596  
     217Ap     4.070898   218Ap     4.102558   219Ap     4.259756  
     139App    4.308176   220Ap     4.355185   221Ap     4.355298  
     222Ap     4.438704   223Ap     4.503999   224Ap     4.661284  
     225Ap     4.661356   140App    4.676929   226Ap     4.779332  
     141App    4.959963   227Ap     4.960192   142App    4.961744  
     228Ap     4.964393   229Ap     4.971704   230Ap     4.972748  
     231Ap     4.972769   143App    4.972866   144App    4.972870  
     145App    4.975161   146App    5.392229   147App    5.392236  
     148App    5.394560   232Ap     5.406468   233Ap     5.406478  
     149App    5.415420   150App    5.415449   234Ap     5.429899  
     235Ap     5.429927   236Ap     5.465830   151App    6.131166  
     152App    6.131174   237Ap     6.175394   153App    6.189598  
     238Ap     6.200167   239Ap     6.200186   154App    6.235755  
     155App    6.235768   240Ap     6.243883   241Ap     6.243889  
     242Ap     6.246708   243Ap     6.246737   156App    6.249348  
     157App    6.256700   158App    6.256708   159App    6.273305  
     160App    6.273307   244Ap     6.281591   245Ap     6.286106  
     246Ap     6.286124   161App    6.569904   247Ap     6.591606  
     248Ap     6.602999   249Ap     6.619279   250Ap     6.619316  
     251Ap     6.674061   252Ap     6.674070   162App    6.686268  
     163App    6.686282   253Ap     6.693918   254Ap     6.723483  
     255Ap     6.723497   164App    6.729982   165App    6.729998  
     166App    6.732687   167App    7.067268   256Ap     7.073750  
     257Ap     7.089813   258Ap     7.093243   259Ap     7.093273  
     168App    8.388468   260Ap     8.434480   261Ap     8.434516  
     169App    8.450713   170App    8.464934   171App    8.464953  
     262Ap     8.563509   263Ap     8.563547   264Ap     8.733296  
     172App    9.158246   173App    9.158288   265Ap     9.279622  
     266Ap     9.441973   267Ap     9.442011   268Ap     9.643216  
     174App    9.652384   175App   22.835349   269Ap    22.874254  
     270Ap    23.238446   271Ap    23.353899   272Ap    23.353938  
     273Ap    43.992930   274Ap    44.104951   275Ap    44.110196  
     276Ap    44.110229   176App   44.112237  

    Final Occupation by Irrep:
             Ap   App 
    DOCC [    34,   14 ]

  @DF-RKS Final Energy: -1831.17159291445319

   => Energetics <=

    Nuclear Repulsion Energy =            774.1815800311956082
    One-Electron Energy =               -4063.6714448514667311
    Two-Electron Energy =                1584.4141280504056795
    DFT Exchange-Correlation Energy =    -126.0958561445878416
    Empirical Dispersion Energy =           0.0000000000000000
    VV10 Nonlocal Energy =                  0.0000000000000000
    Total Energy =                      -1831.1715929144531856

Computation Completed


Properties will be evaluated at   0.000000,   0.000000,   0.000000 [a0]

Properties computed using the SCF density matrix

  Nuclear Dipole Moment: [e a0]
     X:     0.0000      Y:     0.0000      Z:     0.0000

  Electronic Dipole Moment: [e a0]
     X:     0.0003      Y:     0.0001      Z:     0.0000

  Dipole Moment: [e a0]
     X:     0.0003      Y:     0.0001      Z:     0.0000     Total:     0.0003

  Dipole Moment: [D]
     X:     0.0006      Y:     0.0004      Z:     0.0000     Total:     0.0007


*** tstop() called on compute476.bc4.acrc.priv at Sun Nov  7 05:03:49 2021
Module time:
	user time   =     411.19 seconds =       6.85 minutes
	system time =      17.38 seconds =       0.29 minutes
	total time  =         18 seconds =       0.30 minutes
Total time:
	user time   =     411.19 seconds =       6.85 minutes
	system time =      17.38 seconds =       0.29 minutes
	total time  =         18 seconds =       0.30 minutes

    Psi4 stopped on: Sunday, 07 November 2021 05:03AM
    Psi4 wall time for execution: 0:00:17.87

*** Psi4 exiting successfully. Buy a developer a beer!
