
    -----------------------------------------------------------------------
          Psi4: An Open-Source Ab Initio Electronic Structure Package
                               Psi4 1.4.1 release

                         Git: Rev {HEAD} cd00f19 


    D. G. A. Smith, L. A. Burns, A. C. Simmonett, R. M. Parrish,
    M. C. Schieber, R. Galvelis, P. Kraus, H. Kruse, R. Di Remigio,
    A. Alenaizan, A. M. James, S. Lehtola, J. P. Misiewicz, M. Scheurer,
    R. A. Shaw, J. B. Schriber, Y. Xie, Z. L. Glick, D. A. Sirianni,
    J. S. O'Brien, J. M. Waldrop, A. Kumar, E. G. Hohenstein,
    B. P. Pritchard, B. R. Brooks, H. F. Schaefer III, A. Yu. Sokolov,
    K. Patkowski, A. E. DePrince III, U. Bozkaya, R. A. King,
    F. A. Evangelista, J. M. Turney, T. D. Crawford, C. D. Sherrill,
    J. Chem. Phys. 152(18) 184108 (2020). https://doi.org/10.1063/5.0006002

                            Additional Code Authors
    E. T. Seidl, C. L. Janssen, E. F. Valeev, M. L. Leininger,
    J. F. Gonthier, R. M. Richard, H. R. McAlexander, M. Saitow, X. Wang,
    P. Verma, and M. H. Lechner

             Previous Authors, Complete List of Code Contributors,
                       and Citations for Specific Modules
    https://github.com/psi4/psi4/blob/master/codemeta.json
    https://github.com/psi4/psi4/graphs/contributors
    http://psicode.org/psi4manual/master/introduction.html#citing-psifour

    -----------------------------------------------------------------------


    Psi4 started on: Sunday, 07 November 2021 05:03AM

    Process ID: 6158
    Host:       compute379.bc4.acrc.priv
    PSIDATADIR: /mnt/storage/home/zw18965/.conda/envs/p4env/share/psi4
    Memory:     500.0 MiB
    Threads:    28
    
  ==> Input File <==

--------------------------------------------------------------------------
memory 120 GB

molecule {
1 2
Ni         0.00000        0.00000        0.00000
 }

set reference uks
set dynamic_level 1
set basis Def2-TZVPPD

energy("GAM")
--------------------------------------------------------------------------

  Memory set to 111.759 GiB by Python driver.

Scratch directory: /tmp/

*** tstart() called on compute379.bc4.acrc.priv
*** at Sun Nov  7 05:03:31 2021

   => Loading Basis Set <=

    Name: DEF2-TZVPPD
    Role: ORBITAL
    Keyword: BASIS
    atoms 1 entry NI         line  1229 file /mnt/storage/home/zw18965/.conda/envs/p4env/share/psi4/basis/def2-tzvppd.gbs 


         ---------------------------------------------------------
                                   SCF
               by Justin Turney, Rob Parrish, Andy Simmonett
                          and Daniel G. A. Smith
                              UKS Reference
                       28 Threads, 114440 MiB Core
         ---------------------------------------------------------

  ==> Geometry <==

    Molecular point group: d2h
    Geometry (in Angstrom), charge = 1, multiplicity = 2:

       Center              X                  Y                   Z               Mass       
    ------------   -----------------  -----------------  -----------------  -----------------
         NI           0.000000000000     0.000000000000     0.000000000000    57.935342410000

  Running in d2h symmetry.

  Rotational constants: A = ************  B = ************  C = ************ [cm^-1]
  Rotational constants: A = ************  B = ************  C = ************ [MHz]
  Nuclear repulsion =    0.000000000000000

  Charge       = 1
  Multiplicity = 2
  Electrons    = 27
  Nalpha       = 14
  Nbeta        = 13

  ==> Algorithm <==

  SCF Algorithm Type is DF.
  DIIS enabled.
  MOM disabled.
  Fractional occupation disabled.
  Guess Type is CORE.
  Energy threshold   = 1.00e-06
  Density threshold  = 1.00e-06
  Integral threshold = 1.00e-12

  ==> Primary Basis <==

  Basis Set: DEF2-TZVPPD
    Blend: DEF2-TZVPPD
    Number of shells: 19
    Number of basis functions: 67
    Number of Cartesian functions: 83
    Spherical Harmonics?: true
    Max angular momentum: 4

  ==> DFT Potential <==

   => Composite Functional: GAM <= 

   GAM GGA Minessota Exchange-Correlation Functional

    H.S. Yu, et al., Phys. Chem. Chem. Phys. 17, 12146, 2015


    Deriv               =              1
    GGA                 =           TRUE
    Meta                =          FALSE

    Exchange Hybrid     =          FALSE
    MP2 Hybrid          =          FALSE

   => Exchange Functionals <=

    1.0000     XC_GGA_X_GAM

   => Correlation Functionals <=

    1.0000     XC_GGA_C_GAM

   => LibXC Density Thresholds  <==

    XC_GGA_C_GAM:  1.00E-14 
    XC_GGA_X_GAM:  1.00E-14 

   => Molecular Quadrature <=

    Radial Scheme          =       TREUTLER
    Pruning Scheme         =           NONE
    Nuclear Scheme         =       TREUTLER

    BS radius alpha        =              1
    Pruning alpha          =              1
    Radial Points          =             75
    Spherical Points       =            302
    Total Points           =          21436
    Total Blocks           =            240
    Max Points             =            251
    Max Functions          =             67
    Weights Tolerance      =       1.00E-15

   => Loading Basis Set <=

    Name: (DEF2-TZVPPD AUX)
    Role: JKFIT
    Keyword: DF_BASIS_SCF
    atoms 1 entry NI         line  2230 file /mnt/storage/home/zw18965/.conda/envs/p4env/share/psi4/basis/def2-universal-jkfit.gbs 

  ==> Integral Setup <==

  DFHelper Memory: AOs need 0.012 GiB; user supplied 83.785 GiB. Using in-core AOs.

  ==> MemDFJK: Density-Fitted J/K Matrices <==

    J tasked:                   Yes
    K tasked:                    No
    wK tasked:                   No
    OpenMP threads:              28
    Memory [MiB]:             85796
    Algorithm:                 Core
    Schwarz Cutoff:           1E-12
    Mask sparsity (%):       0.0000
    Fitting Condition:        1E-10

   => Auxiliary Basis Set <=

  Basis Set: (DEF2-TZVPPD AUX)
    Blend: DEF2-UNIVERSAL-JKFIT
    Number of shells: 58
    Number of basis functions: 264
    Number of Cartesian functions: 377
    Spherical Harmonics?: true
    Max angular momentum: 6

  Cached 100.0% of DFT collocation blocks in 0.034 [GiB].

  Minimum eigenvalue in the overlap matrix is 4.4736298216E-02.
  Reciprocal condition number of the overlap matrix is 1.6192056636E-02.
    Using symmetric orthogonalization.

  ==> Pre-Iterations <==

  SCF Guess: Core (One-Electron) Hamiltonian.

   -------------------------------------------------------
    Irrep   Nso     Nmo     Nalpha   Nbeta   Ndocc  Nsocc
   -------------------------------------------------------
     Ag        17      17       5       5       5       0
     B1g        6       6       1       1       1       0
     B2g        6       6       1       0       0       1
     B3g        6       6       1       1       1       0
     Au         2       2       0       0       0       0
     B1u       10      10       2       2       2       0
     B2u       10      10       2       2       2       0
     B3u       10      10       2       2       2       0
   -------------------------------------------------------
    Total      67      67      14      13      13       1
   -------------------------------------------------------

  ==> Iterations <==

                           Total Energy        Delta E     RMS |[F,P]|

    Occupation by irrep:
             Ag   B1g   B2g   B3g    Au   B1u   B2u   B3u 
    DOCC [     4,    0,    0,    0,    0,    3,    3,    3 ]
    SOCC [     0,    0,    1,    0,    0,    0,    0,    0 ]

   @DF-UKS iter   1: -1472.80848186392041   -1.47281e+03   3.85425e-01 DIIS
    Occupation by irrep:
             Ag   B1g   B2g   B3g    Au   B1u   B2u   B3u 
    DOCC [     4,    1,    1,    1,    0,    2,    2,    2 ]
    SOCC [     1,    0,    0,    0,    0,    0,    0,    0 ]

   @DF-UKS iter   2: -1435.89727333518363    3.69112e+01   5.50650e-01 DIIS
    Occupation by irrep:
             Ag   B1g   B2g   B3g    Au   B1u   B2u   B3u 
    DOCC [     4,    0,    0,    0,    0,    3,    3,    3 ]
    SOCC [     1,    0,    0,    0,    0,    0,    0,    0 ]

   @DF-UKS iter   3: -1508.34120312653749   -7.24439e+01   5.45094e-02 DIIS
    Occupation by irrep:
             Ag   B1g   B2g   B3g    Au   B1u   B2u   B3u 
    DOCC [     5,    1,    0,    1,    0,    2,    2,    2 ]
    SOCC [     0,    0,    1,    0,    0,    0,    0,    0 ]

   @DF-UKS iter   4: -1489.77423933276395    1.85670e+01   2.12120e-01 DIIS
   @DF-UKS iter   5: -1506.35903613449409   -1.65848e+01   1.22367e-01 DIIS
   @DF-UKS iter   6: -1506.74594387313914   -3.86908e-01   1.13225e-01 DIIS
    Occupation by irrep:
             Ag   B1g   B2g   B3g    Au   B1u   B2u   B3u 
    DOCC [     4,    1,    1,    1,    0,    2,    2,    2 ]
    SOCC [     1,    0,    0,    0,    0,    0,    0,    0 ]

   @DF-UKS iter   7: -1506.79527014373025   -4.93263e-02   1.11600e-01 DIIS
    Occupation by irrep:
             Ag   B1g   B2g   B3g    Au   B1u   B2u   B3u 
    DOCC [     5,    1,    0,    1,    0,    2,    2,    2 ]
    SOCC [     0,    0,    1,    0,    0,    0,    0,    0 ]

   @DF-UKS iter   8: -1508.67446967854767   -1.87920e+00   3.10663e-02 DIIS
    Occupation by irrep:
             Ag   B1g   B2g   B3g    Au   B1u   B2u   B3u 
    DOCC [     4,    1,    1,    1,    0,    2,    2,    2 ]
    SOCC [     1,    0,    0,    0,    0,    0,    0,    0 ]

   @DF-UKS iter   9: -1508.74057331664403   -6.61036e-02   1.45318e-02 DIIS
   @DF-UKS iter  10: -1508.71610477274294    2.44685e-02   1.97904e-02 DIIS
    Occupation by irrep:
             Ag   B1g   B2g   B3g    Au   B1u   B2u   B3u 
    DOCC [     5,    1,    0,    1,    0,    2,    2,    2 ]
    SOCC [     0,    0,    1,    0,    0,    0,    0,    0 ]

   @DF-UKS iter  11: -1508.75822635040527   -4.21216e-02   6.00281e-03 DIIS
   @DF-UKS iter  12: -1508.75685656410405    1.36979e-03   6.78126e-03 DIIS
    Occupation by irrep:
             Ag   B1g   B2g   B3g    Au   B1u   B2u   B3u 
    DOCC [     4,    1,    1,    1,    0,    2,    2,    2 ]
    SOCC [     1,    0,    0,    0,    0,    0,    0,    0 ]

   @DF-UKS iter  13: -1508.75849228270931   -1.63572e-03   5.28162e-03 DIIS
   @DF-UKS iter  14: -1508.75768795972454    8.04323e-04   6.58496e-03 DIIS
    Occupation by irrep:
             Ag   B1g   B2g   B3g    Au   B1u   B2u   B3u 
    DOCC [     5,    1,    0,    1,    0,    2,    2,    2 ]
    SOCC [     0,    0,    1,    0,    0,    0,    0,    0 ]

   @DF-UKS iter  15: -1508.75817657230618   -4.88613e-04   6.12786e-03 DIIS
    Occupation by irrep:
             Ag   B1g   B2g   B3g    Au   B1u   B2u   B3u 
    DOCC [     4,    1,    1,    1,    0,    2,    2,    2 ]
    SOCC [     1,    0,    0,    0,    0,    0,    0,    0 ]

   @DF-UKS iter  16: -1508.75463224470309    3.54433e-03   8.51024e-03 DIIS
   @DF-UKS iter  17: -1508.75506560595886   -4.33361e-04   8.61751e-03 DIIS
   @DF-UKS iter  18: -1508.75291144919242    2.15416e-03   9.95058e-03 DIIS
   @DF-UKS iter  19: -1508.75245967871956    4.51770e-04   1.02048e-02 DIIS
    Occupation by irrep:
             Ag   B1g   B2g   B3g    Au   B1u   B2u   B3u 
    DOCC [     5,    1,    0,    1,    0,    2,    2,    2 ]
    SOCC [     0,    0,    1,    0,    0,    0,    0,    0 ]

   @DF-UKS iter  20: -1508.75768917517462   -5.22950e-03   6.59637e-03 DIIS
   @DF-UKS iter  21: -1508.75783393979214   -1.44765e-04   5.97530e-03 DIIS
    Occupation by irrep:
             Ag   B1g   B2g   B3g    Au   B1u   B2u   B3u 
    DOCC [     4,    1,    1,    1,    0,    2,    2,    2 ]
    SOCC [     1,    0,    0,    0,    0,    0,    0,    0 ]

   @DF-UKS iter  22: -1508.75875996257878   -9.26023e-04   5.03902e-03 DIIS
   @DF-UKS iter  23: -1508.75226822875993    6.49173e-03   1.03338e-02 DIIS
   @DF-UKS iter  24: -1508.74853428677989    3.73394e-03   1.21883e-02 DIIS
   @DF-UKS iter  25: -1508.74782804582514    7.06241e-04   1.24951e-02 DIIS
   @DF-UKS iter  26: -1508.74802526095664   -1.97215e-04   1.24085e-02 DIIS
   @DF-UKS iter  27: -1508.74799734477392    2.79162e-05   1.24208e-02 DIIS
   @DF-UKS iter  28: -1508.74800288347637   -5.53870e-06   1.24184e-02 DIIS
   @DF-UKS iter  29: -1508.74800179998101    1.08350e-06   1.24188e-02 DIIS
   @DF-UKS iter  30: -1508.74800200405571   -2.04075e-07   1.24188e-02 DIIS
   @DF-UKS iter  31: -1508.74800196513729    3.89184e-08   1.24188e-02 DIIS
   @DF-UKS iter  32: -1508.74800197256081   -7.42352e-09   1.24188e-02 DIIS
   @DF-UKS iter  33: -1508.74800197114700    1.41381e-09   1.24188e-02 DIIS
   @DF-UKS iter  34: -1508.74800197141667   -2.69665e-10   1.24188e-02 DIIS
   @DF-UKS iter  35: -1508.74800197136551    5.11591e-11   1.24188e-02 DIIS
   @DF-UKS iter  36: -1508.74800197137506   -9.54969e-12   1.24188e-02 DIIS
   @DF-UKS iter  37: -1508.74800197137324    1.81899e-12   1.24188e-02 DIIS
   @DF-UKS iter  38: -1508.74800197137392   -6.82121e-13   1.24188e-02 DIIS
   @DF-UKS iter  39: -1508.74800197137370    2.27374e-13   1.24188e-02 DIIS
   @DF-UKS iter  40: -1508.74800197137347    2.27374e-13   1.24188e-02 DIIS
   @DF-UKS iter  41: -1508.74800197137370   -2.27374e-13   1.24188e-02 DIIS
   @DF-UKS iter  42: -1508.74800197137392   -2.27374e-13   1.24188e-02 DIIS
   @DF-UKS iter  43: -1508.74800197137301    9.09495e-13   1.24188e-02 DIIS
   @DF-UKS iter  44: -1508.74800197137392   -9.09495e-13   1.24188e-02 DIIS
   @DF-UKS iter  45: -1508.74800197137324    6.82121e-13   1.24188e-02 DIIS
   @DF-UKS iter  46: -1508.74800197137438   -1.13687e-12   1.24188e-02 DIIS
   @DF-UKS iter  47: -1508.74800197137347    9.09495e-13   1.24188e-02 DIIS
   @DF-UKS iter  48: -1508.74800197137415   -6.82121e-13   1.24188e-02 DIIS
   @DF-UKS iter  49: -1508.74800197137370    4.54747e-13   1.24188e-02 DIIS
   @DF-UKS iter  50: -1508.74800197137438   -6.82121e-13   1.24188e-02 DIIS
   @DF-UKS iter  51: -1508.74800197137415    2.27374e-13   1.24188e-02 DIIS
   @DF-UKS iter  52: -1508.74800197137370    4.54747e-13   1.24188e-02 DIIS
   @DF-UKS iter  53: -1508.74800197137347    2.27374e-13   1.24188e-02 DIIS
   @DF-UKS iter  54: -1508.74800197137370   -2.27374e-13   1.24188e-02 DIIS
   @DF-UKS iter  55: -1508.74800197137301    6.82121e-13   1.24188e-02 DIIS
   @DF-UKS iter  56: -1508.74800197137301    0.00000e+00   1.24188e-02 DIIS
   @DF-UKS iter  57: -1508.74800197137324   -2.27374e-13   1.24188e-02 DIIS
   @DF-UKS iter  58: -1508.74800197137392   -6.82121e-13   1.24188e-02 DIIS
   @DF-UKS iter  59: -1508.74800197137415   -2.27374e-13   1.24188e-02 DIIS
   @DF-UKS iter  60: -1508.74800197137438   -2.27374e-13   1.24188e-02 DIIS
   @DF-UKS iter  61: -1508.74800197137347    9.09495e-13   1.24188e-02 DIIS
   @DF-UKS iter  62: -1508.74800197137483   -1.36424e-12   1.24188e-02 DIIS
   @DF-UKS iter  63: -1508.74800197137392    9.09495e-13   1.24188e-02 DIIS
   @DF-UKS iter  64: -1508.74800197137370    2.27374e-13   1.24188e-02 DIIS
   @DF-UKS iter  65: -1508.74800197137324    4.54747e-13   1.24188e-02 DIIS
   @DF-UKS iter  66: -1508.74800197137301    2.27374e-13   1.24188e-02 DIIS
   @DF-UKS iter  67: -1508.74800197137392   -9.09495e-13   1.24188e-02 DIIS
   @DF-UKS iter  68: -1508.74800197137370    2.27374e-13   1.24188e-02 DIIS
   @DF-UKS iter  69: -1508.74800197137370    0.00000e+00   1.24188e-02 DIIS
   @DF-UKS iter  70: -1508.74800197137392   -2.27374e-13   1.24188e-02 DIIS
   @DF-UKS iter  71: -1508.74800197137392    0.00000e+00   1.24188e-02 DIIS
   @DF-UKS iter  72: -1508.74800197137415   -2.27374e-13   1.24188e-02 DIIS
   @DF-UKS iter  73: -1508.74800197137370    4.54747e-13   1.24188e-02 DIIS
   @DF-UKS iter  74: -1508.74800197137370    0.00000e+00   1.24188e-02 DIIS
   @DF-UKS iter  75: -1508.74800197137279    9.09495e-13   1.24188e-02 DIIS
   @DF-UKS iter  76: -1508.74800197137347   -6.82121e-13   1.24188e-02 DIIS
   @DF-UKS iter  77: -1508.74800197137279    6.82121e-13   1.24188e-02 DIIS
   @DF-UKS iter  78: -1508.74800197137347   -6.82121e-13   1.24188e-02 DIIS
   @DF-UKS iter  79: -1508.74800197137461   -1.13687e-12   1.24188e-02 DIIS
   @DF-UKS iter  80: -1508.74800197137324    1.36424e-12   1.24188e-02 DIIS
   @DF-UKS iter  81: -1508.74800197137301    2.27374e-13   1.24188e-02 DIIS
   @DF-UKS iter  82: -1508.74800197137301    0.00000e+00   1.24188e-02 DIIS
   @DF-UKS iter  83: -1508.74800197137347   -4.54747e-13   1.24188e-02 DIIS
   @DF-UKS iter  84: -1508.74800197137324    2.27374e-13   1.24188e-02 DIIS
   @DF-UKS iter  85: -1508.74800197137324    0.00000e+00   1.24188e-02 DIIS
   @DF-UKS iter  86: -1508.74800197137324    0.00000e+00   1.24188e-02 DIIS
   @DF-UKS iter  87: -1508.74800197137438   -1.13687e-12   1.24188e-02 DIIS
   @DF-UKS iter  88: -1508.74800197137347    9.09495e-13   1.24188e-02 DIIS
   @DF-UKS iter  89: -1508.74800197137392   -4.54747e-13   1.24188e-02 DIIS
   @DF-UKS iter  90: -1508.74800197137461   -6.82121e-13   1.24188e-02 DIIS
   @DF-UKS iter  91: -1508.74800197137347    1.13687e-12   1.24188e-02 DIIS
   @DF-UKS iter  92: -1508.74800197137301    4.54747e-13   1.24188e-02 DIIS
   @DF-UKS iter  93: -1508.74800197137256    4.54747e-13   1.24188e-02 DIIS
   @DF-UKS iter  94: -1508.74800197137324   -6.82121e-13   1.24188e-02 DIIS
   @DF-UKS iter  95: -1508.74800197137347   -2.27374e-13   1.24188e-02 DIIS
   @DF-UKS iter  96: -1508.74800197137370   -2.27374e-13   1.24188e-02 DIIS
   @DF-UKS iter  97: -1508.74800197137324    4.54747e-13   1.24188e-02 DIIS
   @DF-UKS iter  98: -1508.74800197137324    0.00000e+00   1.24188e-02 DIIS
   @DF-UKS iter  99: -1508.74800197137370   -4.54747e-13   1.24188e-02 DIIS
   @DF-UKS iter 100: -1508.74800197137347    2.27374e-13   1.24188e-02 DIIS

PsiException: Could not converge SCF iterations in 100 iterations.

  Failed to converge.

Traceback (most recent call last):
  File "/mnt/storage/home/zw18965/.conda/envs/p4env/bin/psi4", line 333, in <module>
    exec(content)
  File "<string>", line 28, in <module>
  File "/mnt/storage/home/zw18965/.conda/envs/p4env/lib//python3.8/site-packages/psi4/driver/driver.py", line 597, in energy
    wfn = procedures['energy'][lowername](lowername, molecule=molecule, **kwargs)
  File "/mnt/storage/home/zw18965/.conda/envs/p4env/lib//python3.8/site-packages/psi4/driver/procrouting/proc.py", line 2390, in run_scf
    scf_wfn = scf_helper(name, post_scf=False, **kwargs)
  File "/mnt/storage/home/zw18965/.conda/envs/p4env/lib//python3.8/site-packages/psi4/driver/procrouting/proc.py", line 1607, in scf_helper
    e_scf = scf_wfn.compute_energy()
  File "/mnt/storage/home/zw18965/.conda/envs/p4env/lib//python3.8/site-packages/psi4/driver/procrouting/scf_proc/scf_iterator.py", line 93, in scf_compute_energy
    raise e
  File "/mnt/storage/home/zw18965/.conda/envs/p4env/lib//python3.8/site-packages/psi4/driver/procrouting/scf_proc/scf_iterator.py", line 86, in scf_compute_energy
    self.iterations()
  File "/mnt/storage/home/zw18965/.conda/envs/p4env/lib//python3.8/site-packages/psi4/driver/procrouting/scf_proc/scf_iterator.py", line 473, in scf_iterate
    raise SCFConvergenceError("""SCF iterations""", self.iteration_, self, Ediff, Dnorm)

psi4.driver.p4util.exceptions.SCFConvergenceError: Could not converge SCF iterations in 100 iterations.


Printing out the relevant lines from the Psithon --> Python processed input file:
     """)
    core.IO.set_default_namespace("")
    core.set_global_option("REFERENCE", "uks")
    core.set_global_option("DYNAMIC_LEVEL", 1)
    core.set_global_option("BASIS", "Def2-TZVPPD")
--> energy("GAM")

!-------------------------------------------------------!
!                                                       !
!  Could not converge SCF iterations in 100 iterations. !
!                                                       !
!-------------------------------------------------------!

    Psi4 stopped on: Sunday, 07 November 2021 05:03AM
    Psi4 wall time for execution: 0:00:16.84

*** Psi4 encountered an error. Buy a developer more coffee!
*** Resources and help at github.com/psi4/psi4.
