
    -----------------------------------------------------------------------
          Psi4: An Open-Source Ab Initio Electronic Structure Package
                               Psi4 1.4.1 release

                         Git: Rev {HEAD} cd00f19 


    D. G. A. Smith, L. A. Burns, A. C. Simmonett, R. M. Parrish,
    M. C. Schieber, R. Galvelis, P. Kraus, H. Kruse, R. Di Remigio,
    A. Alenaizan, A. M. James, S. Lehtola, J. P. Misiewicz, M. Scheurer,
    R. A. Shaw, J. B. Schriber, Y. Xie, Z. L. Glick, D. A. Sirianni,
    J. S. O'Brien, J. M. Waldrop, A. Kumar, E. G. Hohenstein,
    B. P. Pritchard, B. R. Brooks, H. F. Schaefer III, A. Yu. Sokolov,
    K. Patkowski, A. E. DePrince III, U. Bozkaya, R. A. King,
    F. A. Evangelista, J. M. Turney, T. D. Crawford, C. D. Sherrill,
    J. Chem. Phys. 152(18) 184108 (2020). https://doi.org/10.1063/5.0006002

                            Additional Code Authors
    E. T. Seidl, C. L. Janssen, E. F. Valeev, M. L. Leininger,
    J. F. Gonthier, R. M. Richard, H. R. McAlexander, M. Saitow, X. Wang,
    P. Verma, and M. H. Lechner

             Previous Authors, Complete List of Code Contributors,
                       and Citations for Specific Modules
    https://github.com/psi4/psi4/blob/master/codemeta.json
    https://github.com/psi4/psi4/graphs/contributors
    http://psicode.org/psi4manual/master/introduction.html#citing-psifour

    -----------------------------------------------------------------------


    Psi4 started on: Sunday, 07 November 2021 05:03AM

    Process ID: 11907
    Host:       compute350.bc4.acrc.priv
    PSIDATADIR: /mnt/storage/home/zw18965/.conda/envs/p4env/share/psi4
    Memory:     500.0 MiB
    Threads:    28
    
  ==> Input File <==

--------------------------------------------------------------------------
memory 120 GB

molecule {
0 1
O          0.00000        0.00000        0.00000
O          0.00000        0.00000        1.26881
O          1.12933        0.00000       -0.57836
 }

set dynamic_level 1
set basis Def2-TZVPPD

energy("GAM")
--------------------------------------------------------------------------

  Memory set to 111.759 GiB by Python driver.

Scratch directory: /tmp/

*** tstart() called on compute350.bc4.acrc.priv
*** at Sun Nov  7 05:03:23 2021

   => Loading Basis Set <=

    Name: DEF2-TZVPPD
    Role: ORBITAL
    Keyword: BASIS
    atoms 1-3 entry O          line   218 file /mnt/storage/home/zw18965/.conda/envs/p4env/share/psi4/basis/def2-tzvppd.gbs 


         ---------------------------------------------------------
                                   SCF
               by Justin Turney, Rob Parrish, Andy Simmonett
                          and Daniel G. A. Smith
                              RKS Reference
                       28 Threads, 114440 MiB Core
         ---------------------------------------------------------

  ==> Geometry <==

    Molecular point group: cs
    Full point group: Cs

    Geometry (in Angstrom), charge = 0, multiplicity = 1:

       Center              X                  Y                   Z               Mass       
    ------------   -----------------  -----------------  -----------------  -----------------
         O            0.376443333333    -0.230150000000     0.000000000000    15.994914619570
         O            0.376443333333     1.038660000000     0.000000000000    15.994914619570
         O           -0.752886666667    -0.808510000000     0.000000000000    15.994914619570

  Running in cs symmetry.

  Rotational constants: A =      3.60915  B =      0.44969  C =      0.39987 [cm^-1]
  Rotational constants: A = 108199.63281  B =  13481.27905  C =  11987.66035 [MHz]
  Nuclear repulsion =   69.027136663518178

  Charge       = 0
  Multiplicity = 1
  Electrons    = 24
  Nalpha       = 12
  Nbeta        = 12

  ==> Algorithm <==

  SCF Algorithm Type is DF.
  DIIS enabled.
  MOM disabled.
  Fractional occupation disabled.
  Guess Type is SAD.
  Energy threshold   = 1.00e-06
  Density threshold  = 1.00e-06
  Integral threshold = 1.00e-12

  ==> Primary Basis <==

  Basis Set: DEF2-TZVPPD
    Blend: DEF2-TZVPPD
    Number of shells: 42
    Number of basis functions: 120
    Number of Cartesian functions: 138
    Spherical Harmonics?: true
    Max angular momentum: 3

  ==> DFT Potential <==

   => Composite Functional: GAM <= 

   GAM GGA Minessota Exchange-Correlation Functional

    H.S. Yu, et al., Phys. Chem. Chem. Phys. 17, 12146, 2015


    Deriv               =              1
    GGA                 =           TRUE
    Meta                =          FALSE

    Exchange Hybrid     =          FALSE
    MP2 Hybrid          =          FALSE

   => Exchange Functionals <=

    1.0000     XC_GGA_X_GAM

   => Correlation Functionals <=

    1.0000     XC_GGA_C_GAM

   => LibXC Density Thresholds  <==

    XC_GGA_C_GAM:  1.00E-14 
    XC_GGA_X_GAM:  1.00E-14 

   => Molecular Quadrature <=

    Radial Scheme          =       TREUTLER
    Pruning Scheme         =           NONE
    Nuclear Scheme         =       TREUTLER

    BS radius alpha        =              1
    Pruning alpha          =              1
    Radial Points          =             75
    Spherical Points       =            302
    Total Points           =          66681
    Total Blocks           =            559
    Max Points             =            256
    Max Functions          =            119
    Weights Tolerance      =       1.00E-15

   => Loading Basis Set <=

    Name: (DEF2-TZVPPD AUX)
    Role: JKFIT
    Keyword: DF_BASIS_SCF
    atoms 1-3 entry O          line   318 file /mnt/storage/home/zw18965/.conda/envs/p4env/share/psi4/basis/def2-universal-jkfit.gbs 

  ==> Integral Setup <==

  DFHelper Memory: AOs need 0.031 GiB; user supplied 83.615 GiB. Using in-core AOs.

  ==> MemDFJK: Density-Fitted J/K Matrices <==

    J tasked:                   Yes
    K tasked:                    No
    wK tasked:                   No
    OpenMP threads:              28
    Memory [MiB]:             85621
    Algorithm:                 Core
    Schwarz Cutoff:           1E-12
    Mask sparsity (%):       0.2222
    Fitting Condition:        1E-10

   => Auxiliary Basis Set <=

  Basis Set: (DEF2-TZVPPD AUX)
    Blend: DEF2-UNIVERSAL-JKFIT
    Number of shells: 75
    Number of basis functions: 231
    Number of Cartesian functions: 279
    Spherical Harmonics?: true
    Max angular momentum: 4

  Cached 100.0% of DFT collocation blocks in 0.204 [GiB].

  Minimum eigenvalue in the overlap matrix is 2.1333653966E-04.
  Reciprocal condition number of the overlap matrix is 3.0218422033E-05.
    Using symmetric orthogonalization.

  ==> Pre-Iterations <==

  SCF Guess: Superposition of Atomic Densities via on-the-fly atomic UHF (no occupation information).

   -------------------------
    Irrep   Nso     Nmo    
   -------------------------
     A'        81      81 
     A"        39      39 
   -------------------------
    Total     120     120
   -------------------------

  ==> Iterations <==

                           Total Energy        Delta E     RMS |[F,P]|

   @DF-RKS iter SAD:  -225.18149564290025   -2.25181e+02   0.00000e+00 
   @DF-RKS iter   1:  -225.30945127854687   -1.27956e-01   7.53913e-03 DIIS
   @DF-RKS iter   2:  -224.67672428844429    6.32727e-01   1.67868e-02 DIIS
   @DF-RKS iter   3:  -225.44189516024758   -7.65171e-01   2.24473e-03 DIIS
   @DF-RKS iter   4:  -225.45461881293079   -1.27237e-02   6.01387e-04 DIIS
   @DF-RKS iter   5:  -225.45570371234371   -1.08490e-03   9.55549e-05 DIIS
   @DF-RKS iter   6:  -225.45564488709522    5.88252e-05   1.58954e-04 DIIS
   @DF-RKS iter   7:  -225.45572837159852   -8.34845e-05   1.98945e-05 DIIS
   @DF-RKS iter   8:  -225.45572965373128   -1.28213e-06   1.08128e-06 DIIS
   @DF-RKS iter   9:  -225.45572965701427   -3.28299e-09   2.22081e-07 DIIS
  Energy and wave function converged.


  ==> Post-Iterations <==

   Electrons on quadrature grid:
      Ntotal   =   23.9999962255 ; deviation = -3.775e-06 

    Orbital Energies [Eh]
    ---------------------

    Doubly Occupied:                                                      

       1Ap   -19.047047     2Ap   -18.867656     3Ap   -18.867651  
       4Ap    -1.276324     5Ap    -1.020686     6Ap    -0.718662  
       1App   -0.547653     7Ap    -0.544375     8Ap    -0.532541  
       2App   -0.333905     9Ap    -0.294948    10Ap    -0.290769  

    Virtual:                                                              

       3App   -0.223272    11Ap     0.014023    12Ap     0.041119  
      13Ap     0.046924    14Ap     0.066661     4App    0.071029  
      15Ap     0.105534    16Ap     0.121072     5App    0.121878  
      17Ap     0.129117     6App    0.134468    18Ap     0.135001  
      19Ap     0.178177    20Ap     0.242436    21Ap     0.258454  
       7App    0.328935    22Ap     0.333253     8App    0.398308  
      23Ap     0.399757    24Ap     0.412377    25Ap     0.418415  
       9App    0.442771    10App    0.453750    26Ap     0.455029  
      27Ap     0.482739    11App    0.486725    28Ap     0.496582  
      12App    0.513205    29Ap     0.534757    30Ap     0.538753  
      13App    0.579965    31Ap     0.610115    32Ap     0.704787  
      33Ap     0.785993    34Ap     0.831384    14App    0.843946  
      15App    0.861877    35Ap     0.873929    36Ap     0.930635  
      37Ap     0.969880    38Ap     1.152246    39Ap     1.197905  
      16App    1.312142    40Ap     1.351352    17App    1.369019  
      41Ap     1.590671    42Ap     1.608569    18App    1.617897  
      19App    1.618196    43Ap     1.740193    44Ap     1.866665  
      20App    1.960312    45Ap     1.961067    21App    2.115282  
      46Ap     2.129957    47Ap     2.374848    48Ap     2.375853  
      22App    2.427308    49Ap     2.646306    50Ap     2.754027  
      23App    2.813492    51Ap     2.871060    24App    2.933865  
      52Ap     2.968514    53Ap     2.997984    54Ap     3.169645  
      55Ap     3.258534    56Ap     4.040897    57Ap     4.168546  
      25App    4.353894    26App    4.417951    58Ap     4.437298  
      59Ap     4.539030    27App    4.583994    60Ap     4.606175  
      61Ap     4.819098    28App    4.950069    62Ap     4.955347  
      29App    4.958911    63Ap     4.968385    30App    5.054276  
      64Ap     5.294506    65Ap     5.299651    31App    5.495471  
      66Ap     5.780268    32App    6.005551    33App    6.025943  
      67Ap     6.102820    68Ap     6.167365    34App    6.168725  
      35App    6.188417    69Ap     6.247175    36App    6.277757  
      70Ap     6.293257    37App    6.298898    71Ap     6.344853  
      72Ap     6.419671    73Ap     6.793986    38App    6.846449  
      39App    6.968360    74Ap     7.002614    75Ap     7.263642  
      76Ap     7.389806    77Ap     8.188484    78Ap     8.625687  
      79Ap    43.257675    80Ap    43.685851    81Ap    44.118636  

    Final Occupation by Irrep:
             Ap   App 
    DOCC [    10,    2 ]

  @DF-RKS Final Energy:  -225.45572965701427

   => Energetics <=

    Nuclear Repulsion Energy =             69.0271366635181778
    One-Electron Energy =                -446.3909134990906296
    Two-Electron Energy =                 177.3701276575709755
    DFT Exchange-Correlation Energy =     -25.4620804790127835
    Empirical Dispersion Energy =           0.0000000000000000
    VV10 Nonlocal Energy =                  0.0000000000000000
    Total Energy =                       -225.4557296570142739

Computation Completed


Properties will be evaluated at   0.000000,   0.000000,   0.000000 [a0]

Properties computed using the SCF density matrix

  Nuclear Dipole Moment: [e a0]
     X:     0.0000      Y:     0.0000      Z:     0.0000

  Electronic Dipole Moment: [e a0]
     X:     0.2167      Y:    -0.1325      Z:     0.0000

  Dipole Moment: [e a0]
     X:     0.2167      Y:    -0.1325      Z:     0.0000     Total:     0.2539

  Dipole Moment: [D]
     X:     0.5507      Y:    -0.3367      Z:     0.0000     Total:     0.6454


*** tstop() called on compute350.bc4.acrc.priv at Sun Nov  7 05:03:24 2021
Module time:
	user time   =      21.97 seconds =       0.37 minutes
	system time =       0.99 seconds =       0.02 minutes
	total time  =          1 seconds =       0.02 minutes
Total time:
	user time   =      21.97 seconds =       0.37 minutes
	system time =       0.99 seconds =       0.02 minutes
	total time  =          1 seconds =       0.02 minutes

    Psi4 stopped on: Sunday, 07 November 2021 05:03AM
    Psi4 wall time for execution: 0:00:01.10

*** Psi4 exiting successfully. Buy a developer a beer!
