
    -----------------------------------------------------------------------
          Psi4: An Open-Source Ab Initio Electronic Structure Package
                               Psi4 1.4.1 release

                         Git: Rev {HEAD} cd00f19 


    D. G. A. Smith, L. A. Burns, A. C. Simmonett, R. M. Parrish,
    M. C. Schieber, R. Galvelis, P. Kraus, H. Kruse, R. Di Remigio,
    A. Alenaizan, A. M. James, S. Lehtola, J. P. Misiewicz, M. Scheurer,
    R. A. Shaw, J. B. Schriber, Y. Xie, Z. L. Glick, D. A. Sirianni,
    J. S. O'Brien, J. M. Waldrop, A. Kumar, E. G. Hohenstein,
    B. P. Pritchard, B. R. Brooks, H. F. Schaefer III, A. Yu. Sokolov,
    K. Patkowski, A. E. DePrince III, U. Bozkaya, R. A. King,
    F. A. Evangelista, J. M. Turney, T. D. Crawford, C. D. Sherrill,
    J. Chem. Phys. 152(18) 184108 (2020). https://doi.org/10.1063/5.0006002

                            Additional Code Authors
    E. T. Seidl, C. L. Janssen, E. F. Valeev, M. L. Leininger,
    J. F. Gonthier, R. M. Richard, H. R. McAlexander, M. Saitow, X. Wang,
    P. Verma, and M. H. Lechner

             Previous Authors, Complete List of Code Contributors,
                       and Citations for Specific Modules
    https://github.com/psi4/psi4/blob/master/codemeta.json
    https://github.com/psi4/psi4/graphs/contributors
    http://psicode.org/psi4manual/master/introduction.html#citing-psifour

    -----------------------------------------------------------------------


    Psi4 started on: Sunday, 07 November 2021 05:02AM

    Process ID: 16761
    Host:       compute427.bc4.acrc.priv
    PSIDATADIR: /mnt/storage/home/zw18965/.conda/envs/p4env/share/psi4
    Memory:     500.0 MiB
    Threads:    28
    
  ==> Input File <==

--------------------------------------------------------------------------
memory 120 GB

molecule {
0 3
S          0.00000        0.00000        0.00000
 }

set reference uks
set dynamic_level 1
set basis Def2-TZVPPD

energy("GAM")
--------------------------------------------------------------------------

  Memory set to 111.759 GiB by Python driver.

Scratch directory: /tmp/

*** tstart() called on compute427.bc4.acrc.priv
*** at Sun Nov  7 05:02:37 2021

   => Loading Basis Set <=

    Name: DEF2-TZVPPD
    Role: ORBITAL
    Keyword: BASIS
    atoms 1 entry S          line   558 file /mnt/storage/home/zw18965/.conda/envs/p4env/share/psi4/basis/def2-tzvppd.gbs 


         ---------------------------------------------------------
                                   SCF
               by Justin Turney, Rob Parrish, Andy Simmonett
                          and Daniel G. A. Smith
                              UKS Reference
                       28 Threads, 114440 MiB Core
         ---------------------------------------------------------

  ==> Geometry <==

    Molecular point group: d2h
    Geometry (in Angstrom), charge = 0, multiplicity = 3:

       Center              X                  Y                   Z               Mass       
    ------------   -----------------  -----------------  -----------------  -----------------
         S            0.000000000000     0.000000000000     0.000000000000    31.972071174400

  Running in d2h symmetry.

  Rotational constants: A = ************  B = ************  C = ************ [cm^-1]
  Rotational constants: A = ************  B = ************  C = ************ [MHz]
  Nuclear repulsion =    0.000000000000000

  Charge       = 0
  Multiplicity = 3
  Electrons    = 16
  Nalpha       = 9
  Nbeta        = 7

  ==> Algorithm <==

  SCF Algorithm Type is DF.
  DIIS enabled.
  MOM disabled.
  Fractional occupation disabled.
  Guess Type is CORE.
  Energy threshold   = 1.00e-06
  Density threshold  = 1.00e-06
  Integral threshold = 1.00e-12

  ==> Primary Basis <==

  Basis Set: DEF2-TZVPPD
    Blend: DEF2-TZVPPD
    Number of shells: 17
    Number of basis functions: 51
    Number of Cartesian functions: 58
    Spherical Harmonics?: true
    Max angular momentum: 3

  ==> DFT Potential <==

   => Composite Functional: GAM <= 

   GAM GGA Minessota Exchange-Correlation Functional

    H.S. Yu, et al., Phys. Chem. Chem. Phys. 17, 12146, 2015


    Deriv               =              1
    GGA                 =           TRUE
    Meta                =          FALSE

    Exchange Hybrid     =          FALSE
    MP2 Hybrid          =          FALSE

   => Exchange Functionals <=

    1.0000     XC_GGA_X_GAM

   => Correlation Functionals <=

    1.0000     XC_GGA_C_GAM

   => LibXC Density Thresholds  <==

    XC_GGA_C_GAM:  1.00E-14 
    XC_GGA_X_GAM:  1.00E-14 

   => Molecular Quadrature <=

    Radial Scheme          =       TREUTLER
    Pruning Scheme         =           NONE
    Nuclear Scheme         =       TREUTLER

    BS radius alpha        =              1
    Pruning alpha          =              1
    Radial Points          =             75
    Spherical Points       =            302
    Total Points           =          22046
    Total Blocks           =            238
    Max Points             =            249
    Max Functions          =             51
    Weights Tolerance      =       1.00E-15

   => Loading Basis Set <=

    Name: (DEF2-TZVPPD AUX)
    Role: JKFIT
    Keyword: DF_BASIS_SCF
    atoms 1 entry S          line   903 file /mnt/storage/home/zw18965/.conda/envs/p4env/share/psi4/basis/def2-universal-jkfit.gbs 

  ==> Integral Setup <==

  DFHelper Memory: AOs need 0.004 GiB; user supplied 83.790 GiB. Using in-core AOs.

  ==> MemDFJK: Density-Fitted J/K Matrices <==

    J tasked:                   Yes
    K tasked:                    No
    wK tasked:                   No
    OpenMP threads:              28
    Memory [MiB]:             85801
    Algorithm:                 Core
    Schwarz Cutoff:           1E-12
    Mask sparsity (%):       0.0000
    Fitting Condition:        1E-10

   => Auxiliary Basis Set <=

  Basis Set: (DEF2-TZVPPD AUX)
    Blend: DEF2-UNIVERSAL-JKFIT
    Number of shells: 38
    Number of basis functions: 128
    Number of Cartesian functions: 155
    Spherical Harmonics?: true
    Max angular momentum: 4

  Cached 100.0% of DFT collocation blocks in 0.029 [GiB].

  Minimum eigenvalue in the overlap matrix is 3.2537191408E-02.
  Reciprocal condition number of the overlap matrix is 1.1088033782E-02.
    Using symmetric orthogonalization.

  ==> Pre-Iterations <==

  SCF Guess: Core (One-Electron) Hamiltonian.

   -------------------------------------------------------
    Irrep   Nso     Nmo     Nalpha   Nbeta   Ndocc  Nsocc
   -------------------------------------------------------
     Ag        14      14       3       2       2       1
     B1g        4       4       0       0       0       0
     B2g        4       4       0       0       0       0
     B3g        4       4       0       0       0       0
     Au         1       1       0       0       0       0
     B1u        8       8       2       2       2       0
     B2u        8       8       2       1       1       1
     B3u        8       8       2       2       2       0
   -------------------------------------------------------
    Total      51      51       9       7       7       2
   -------------------------------------------------------

  ==> Iterations <==

                           Total Energy        Delta E     RMS |[F,P]|

    Occupation by irrep:
             Ag   B1g   B2g   B3g    Au   B1u   B2u   B3u 
    DOCC [     2,    0,    0,    0,    0,    1,    2,    2 ]
    SOCC [     1,    0,    0,    0,    0,    1,    0,    0 ]

   @DF-UKS iter   1:  -360.04867818875988   -3.60049e+02   7.10560e-01 DIIS
    Occupation by irrep:
             Ag   B1g   B2g   B3g    Au   B1u   B2u   B3u 
    DOCC [     3,    0,    0,    0,    0,    1,    1,    2 ]
    SOCC [     0,    0,    0,    0,    0,    1,    1,    0 ]

   @DF-UKS iter   2:  -378.19851351440195   -1.81498e+01   5.75626e-01 DIIS
    Occupation by irrep:
             Ag   B1g   B2g   B3g    Au   B1u   B2u   B3u 
    DOCC [     3,    0,    0,    0,    0,    2,    1,    1 ]
    SOCC [     0,    0,    0,    0,    0,    0,    1,    1 ]

   @DF-UKS iter   3:  -397.86932229310901   -1.96708e+01   3.67891e-02 DIIS
    Occupation by irrep:
             Ag   B1g   B2g   B3g    Au   B1u   B2u   B3u 
    DOCC [     3,    0,    0,    0,    0,    1,    1,    2 ]
    SOCC [     0,    0,    0,    0,    0,    1,    1,    0 ]

   @DF-UKS iter   4:  -398.01130509244655   -1.41983e-01   1.82322e-02 DIIS
   @DF-UKS iter   5:  -398.09288755964167   -8.15825e-02   4.16672e-03 DIIS
   @DF-UKS iter   6:  -398.09763898570907   -4.75143e-03   1.32155e-03 DIIS
   @DF-UKS iter   7:  -398.09824242291552   -6.03437e-04   1.86463e-04 DIIS
   @DF-UKS iter   8:  -398.09825443405430   -1.20111e-05   1.04931e-05 DIIS
   @DF-UKS iter   9:  -398.09825447854087   -4.44866e-08   1.51273e-06 DIIS
   @DF-UKS iter  10:  -398.09825447921958   -6.78710e-10   1.80382e-07 DIIS
  Energy and wave function converged.


  ==> Post-Iterations <==

   Electrons on quadrature grid:
      Nalpha   =    8.9999999902 ; deviation = -9.832e-09
      Nbeta    =    6.9999999902 ; deviation = -9.828e-09
      Ntotal   =   15.9999999803 ; deviation = -1.966e-08 

   @Spin Contamination Metric:   9.024629496E-03
   @S^2 Expected:                2.000000000E+00
   @S^2 Observed:                2.009024629E+00
   @S   Expected:                1.000000000E+00
   @S   Observed:                1.000000000E+00

    Orbital Energies [Eh]
    ---------------------

    Alpha Occupied:                                                       

       1Ag   -87.878884     2Ag    -7.812116     1B2u   -5.856676  
       1B1u   -5.856676     1B3u   -5.838321     3Ag    -0.665415  
       2B2u   -0.302829     2B1u   -0.302829     2B3u   -0.256524  

    Alpha Virtual:                                                        

       4Ag     0.035418     3B2u    0.049253     3B1u    0.049253  
       3B3u    0.057979     1B3g    0.120035     5Ag     0.120035  
       1B2g    0.123775     1B1g    0.123775     6Ag     0.128152  
       4B1u    0.341862     4B2u    0.341862     4B3u    0.353924  
       2B3g    0.398974     7Ag     0.398974     2B2g    0.416647  
       2B1g    0.416647     8Ag     0.423683     9Ag     0.585833  
      10Ag     1.444668     3B3g    1.444668     3B1g    1.475165  
       3B2g    1.475165    11Ag     1.485578     5B1u    1.490680  
       5B2u    1.490680     1Au     1.520175     5B3u    1.520175  
       6B2u    1.538393     6B1u    1.538393     6B3u    1.544684  
       7B2u    1.775814     7B1u    1.775814     7B3u    1.810736  
      12Ag     6.486788     4B3g    6.486788     4B1g    6.506868  
       4B2g    6.506868    13Ag     6.514362     8B2u    8.588661  
       8B1u    8.588661     8B3u    8.616907    14Ag    17.663423  

    Beta Occupied:                                                        

       1Ag   -87.866237     2Ag    -7.806835     1B2u   -5.842252  
       1B1u   -5.842252     1B3u   -5.829995     3Ag    -0.562478  
       2B3u   -0.216064  

    Beta Virtual:                                                         

       2B2u   -0.204147     2B1u   -0.204147     4Ag    -0.005706  
       3B3u    0.044282     3B1u    0.058107     3B2u    0.058108  
       5Ag     0.083566     1B3g    0.083567     6Ag     0.115454  
       1B1g    0.121784     1B2g    0.121784     4B2u    0.310337  
       4B1u    0.310337     4B3u    0.350309     2B2g    0.464450  
       2B1g    0.464450     7Ag     0.474603     2B3g    0.490945  
       8Ag     0.490946     9Ag     0.636679     3B2g    1.523249  
       3B1g    1.523250    10Ag     1.532057     3B3g    1.538175  
      11Ag     1.538176     5B3u    1.616012     5B1u    1.620086  
       5B2u    1.620086     6B3u    1.621360     1Au     1.621360  
       6B1u    1.655784     6B2u    1.655784     7B3u    1.823375  
       7B1u    1.836637     7B2u    1.836637     4B3g    6.526125  
      12Ag     6.526125     4B1g    6.531579     4B2g    6.531579  
      13Ag     6.533693     8B3u    8.642429     8B2u    8.645042  
       8B1u    8.645042    14Ag    17.687759  

    Final Occupation by Irrep:
             Ag   B1g   B2g   B3g    Au   B1u   B2u   B3u 
    DOCC [     3,    0,    0,    0,    0,    1,    1,    2 ]
    SOCC [     0,    0,    0,    0,    0,    1,    1,    0 ]

  @DF-UKS Final Energy:  -398.09825447921958

   => Energetics <=

    Nuclear Repulsion Energy =              0.0000000000000000
    One-Electron Energy =                -550.1565802425327547
    Two-Electron Energy =                 177.7588763042016069
    DFT Exchange-Correlation Energy =     -25.7005505408885071
    Empirical Dispersion Energy =           0.0000000000000000
    VV10 Nonlocal Energy =                  0.0000000000000000
    Total Energy =                       -398.0982544792196336

  UHF NO Occupations:
  HONO-2 :    3 Ag 1.9971890
  HONO-1 :    2B1u 1.0000000
  HONO-0 :    2B2u 1.0000000
  LUNO+0 :    4 Ag 0.0028110
  LUNO+1 :    3B3u 0.0017011
  LUNO+2 :    3B2u 0.0000021
  LUNO+3 :    3B1u 0.0000021


Computation Completed


Properties will be evaluated at   0.000000,   0.000000,   0.000000 [a0]

Properties computed using the SCF density matrix

  Nuclear Dipole Moment: [e a0]
     X:     0.0000      Y:     0.0000      Z:     0.0000

  Electronic Dipole Moment: [e a0]
     X:     0.0000      Y:     0.0000      Z:     0.0000

  Dipole Moment: [e a0]
     X:     0.0000      Y:     0.0000      Z:     0.0000     Total:     0.0000

  Dipole Moment: [D]
     X:     0.0000      Y:     0.0000      Z:     0.0000     Total:     0.0000


*** tstop() called on compute427.bc4.acrc.priv at Sun Nov  7 05:02:38 2021
Module time:
	user time   =      37.03 seconds =       0.62 minutes
	system time =       1.94 seconds =       0.03 minutes
	total time  =          1 seconds =       0.02 minutes
Total time:
	user time   =      37.03 seconds =       0.62 minutes
	system time =       1.94 seconds =       0.03 minutes
	total time  =          1 seconds =       0.02 minutes

    Psi4 stopped on: Sunday, 07 November 2021 05:02AM
    Psi4 wall time for execution: 0:00:02.08

*** Psi4 exiting successfully. Buy a developer a beer!
