
    -----------------------------------------------------------------------
          Psi4: An Open-Source Ab Initio Electronic Structure Package
                               Psi4 1.4.1 release

                         Git: Rev {HEAD} cd00f19 


    D. G. A. Smith, L. A. Burns, A. C. Simmonett, R. M. Parrish,
    M. C. Schieber, R. Galvelis, P. Kraus, H. Kruse, R. Di Remigio,
    A. Alenaizan, A. M. James, S. Lehtola, J. P. Misiewicz, M. Scheurer,
    R. A. Shaw, J. B. Schriber, Y. Xie, Z. L. Glick, D. A. Sirianni,
    J. S. O'Brien, J. M. Waldrop, A. Kumar, E. G. Hohenstein,
    B. P. Pritchard, B. R. Brooks, H. F. Schaefer III, A. Yu. Sokolov,
    K. Patkowski, A. E. DePrince III, U. Bozkaya, R. A. King,
    F. A. Evangelista, J. M. Turney, T. D. Crawford, C. D. Sherrill,
    J. Chem. Phys. 152(18) 184108 (2020). https://doi.org/10.1063/5.0006002

                            Additional Code Authors
    E. T. Seidl, C. L. Janssen, E. F. Valeev, M. L. Leininger,
    J. F. Gonthier, R. M. Richard, H. R. McAlexander, M. Saitow, X. Wang,
    P. Verma, and M. H. Lechner

             Previous Authors, Complete List of Code Contributors,
                       and Citations for Specific Modules
    https://github.com/psi4/psi4/blob/master/codemeta.json
    https://github.com/psi4/psi4/graphs/contributors
    http://psicode.org/psi4manual/master/introduction.html#citing-psifour

    -----------------------------------------------------------------------


    Psi4 started on: Sunday, 07 November 2021 05:03AM

    Process ID: 27496
    Host:       compute424.bc4.acrc.priv
    PSIDATADIR: /mnt/storage/home/zw18965/.conda/envs/p4env/share/psi4
    Memory:     500.0 MiB
    Threads:    28
    
  ==> Input File <==

--------------------------------------------------------------------------
memory 120 GB

molecule {
0 1
S          0.00000        0.00000        0.00000
S          0.00000        0.00000        1.90634
S          2.06704        0.00000        2.44872
S          3.00303        0.00000        0.78798
 }

set dynamic_level 1
set basis Def2-TZVPPD

energy("GAM")
--------------------------------------------------------------------------

  Memory set to 111.759 GiB by Python driver.

Scratch directory: /tmp/

*** tstart() called on compute424.bc4.acrc.priv
*** at Sun Nov  7 05:03:23 2021

   => Loading Basis Set <=

    Name: DEF2-TZVPPD
    Role: ORBITAL
    Keyword: BASIS
    atoms 1-4 entry S          line   558 file /mnt/storage/home/zw18965/.conda/envs/p4env/share/psi4/basis/def2-tzvppd.gbs 


         ---------------------------------------------------------
                                   SCF
               by Justin Turney, Rob Parrish, Andy Simmonett
                          and Daniel G. A. Smith
                              RKS Reference
                       28 Threads, 114440 MiB Core
         ---------------------------------------------------------

  ==> Geometry <==

    Molecular point group: cs
    Full point group: Cs

    Geometry (in Angstrom), charge = 0, multiplicity = 1:

       Center              X                  Y                   Z               Mass       
    ------------   -----------------  -----------------  -----------------  -----------------
         S            1.267517500000    -1.285760000000     0.000000000000    31.972071174400
         S            1.267517500000     0.620580000000     0.000000000000    31.972071174400
         S           -0.799522500000     1.162960000000     0.000000000000    31.972071174400
         S           -1.735512500000    -0.497780000000     0.000000000000    31.972071174400

  Running in cs symmetry.

  Rotational constants: A =      0.15508  B =      0.07423  C =      0.05020 [cm^-1]
  Rotational constants: A =   4649.03843  B =   2225.39286  C =   1504.98805 [MHz]
  Nuclear repulsion =  333.699844287518260

  Charge       = 0
  Multiplicity = 1
  Electrons    = 64
  Nalpha       = 32
  Nbeta        = 32

  ==> Algorithm <==

  SCF Algorithm Type is DF.
  DIIS enabled.
  MOM disabled.
  Fractional occupation disabled.
  Guess Type is SAD.
  Energy threshold   = 1.00e-06
  Density threshold  = 1.00e-06
  Integral threshold = 1.00e-12

  ==> Primary Basis <==

  Basis Set: DEF2-TZVPPD
    Blend: DEF2-TZVPPD
    Number of shells: 68
    Number of basis functions: 204
    Number of Cartesian functions: 232
    Spherical Harmonics?: true
    Max angular momentum: 3

  ==> DFT Potential <==

   => Composite Functional: GAM <= 

   GAM GGA Minessota Exchange-Correlation Functional

    H.S. Yu, et al., Phys. Chem. Chem. Phys. 17, 12146, 2015


    Deriv               =              1
    GGA                 =           TRUE
    Meta                =          FALSE

    Exchange Hybrid     =          FALSE
    MP2 Hybrid          =          FALSE

   => Exchange Functionals <=

    1.0000     XC_GGA_X_GAM

   => Correlation Functionals <=

    1.0000     XC_GGA_C_GAM

   => LibXC Density Thresholds  <==

    XC_GGA_C_GAM:  1.00E-14 
    XC_GGA_X_GAM:  1.00E-14 

   => Molecular Quadrature <=

    Radial Scheme          =       TREUTLER
    Pruning Scheme         =           NONE
    Nuclear Scheme         =       TREUTLER

    BS radius alpha        =              1
    Pruning alpha          =              1
    Radial Points          =             75
    Spherical Points       =            302
    Total Points           =          87839
    Total Blocks           =            760
    Max Points             =            256
    Max Functions          =            191
    Weights Tolerance      =       1.00E-15

   => Loading Basis Set <=

    Name: (DEF2-TZVPPD AUX)
    Role: JKFIT
    Keyword: DF_BASIS_SCF
    atoms 1-4 entry S          line   903 file /mnt/storage/home/zw18965/.conda/envs/p4env/share/psi4/basis/def2-universal-jkfit.gbs 

  ==> Integral Setup <==

  DFHelper Memory: AOs need 0.172 GiB; user supplied 83.445 GiB. Using in-core AOs.

  ==> MemDFJK: Density-Fitted J/K Matrices <==

    J tasked:                   Yes
    K tasked:                    No
    wK tasked:                   No
    OpenMP threads:              28
    Memory [MiB]:             85447
    Algorithm:                 Core
    Schwarz Cutoff:           1E-12
    Mask sparsity (%):       3.8591
    Fitting Condition:        1E-10

   => Auxiliary Basis Set <=

  Basis Set: (DEF2-TZVPPD AUX)
    Blend: DEF2-UNIVERSAL-JKFIT
    Number of shells: 152
    Number of basis functions: 512
    Number of Cartesian functions: 620
    Spherical Harmonics?: true
    Max angular momentum: 4

  Cached 100.0% of DFT collocation blocks in 0.374 [GiB].

  Minimum eigenvalue in the overlap matrix is 4.0732655797E-04.
  Reciprocal condition number of the overlap matrix is 5.5295785063E-05.
    Using symmetric orthogonalization.

  ==> Pre-Iterations <==

  SCF Guess: Superposition of Atomic Densities via on-the-fly atomic UHF (no occupation information).

   -------------------------
    Irrep   Nso     Nmo    
   -------------------------
     A'       136     136 
     A"        68      68 
   -------------------------
    Total     204     204
   -------------------------

  ==> Iterations <==

                           Total Energy        Delta E     RMS |[F,P]|

   @DF-RKS iter SAD: -1592.62580032857750   -1.59263e+03   0.00000e+00 
   @DF-RKS iter   1: -1592.62127483289760    4.52550e-03   5.58928e-03 DIIS
   @DF-RKS iter   2: -1592.21366369890893    4.07611e-01   6.67422e-03 DIIS
   @DF-RKS iter   3: -1592.29253964954478   -7.88760e-02   5.58521e-03 DIIS
   @DF-RKS iter   4: -1592.77223633301196   -4.79697e-01   1.11428e-03 DIIS
   @DF-RKS iter   5: -1592.78545456335496   -1.32182e-02   3.64563e-04 DIIS
   @DF-RKS iter   6: -1592.78690755632988   -1.45299e-03   9.17477e-05 DIIS
   @DF-RKS iter   7: -1592.78689492173726    1.26346e-05   7.30565e-05 DIIS
   @DF-RKS iter   8: -1592.78691401077231   -1.90890e-05   6.62206e-05 DIIS
   @DF-RKS iter   9: -1592.78700406647590   -9.00557e-05   4.40652e-06 DIIS
   @DF-RKS iter  10: -1592.78700427679314   -2.10317e-07   7.77189e-07 DIIS
  Energy and wave function converged.


  ==> Post-Iterations <==

   Electrons on quadrature grid:
      Ntotal   =   63.9999866726 ; deviation = -1.333e-05 

    Orbital Energies [Eh]
    ---------------------

    Doubly Occupied:                                                      

       1Ap   -87.909705     2Ap   -87.909694     3Ap   -87.851561  
       4Ap   -87.851552     5Ap    -7.844541     6Ap    -7.844524  
       7Ap    -7.790460     8Ap    -7.790451     9Ap    -5.882229  
      10Ap    -5.882131    11Ap    -5.878073     1App   -5.878046  
       2App   -5.878034    12Ap    -5.878031    13Ap    -5.829815  
      14Ap    -5.829808     3App   -5.825017     4App   -5.825011  
      15Ap    -5.820301    16Ap    -5.820294    17Ap    -0.808550  
      18Ap    -0.743644    19Ap    -0.614607    20Ap    -0.527229  
      21Ap    -0.413052    22Ap    -0.379670     5App   -0.362553  
      23Ap    -0.339015     6App   -0.306872    24Ap    -0.242121  
      25Ap    -0.241015     7App   -0.220217  

    Virtual:                                                              

       8App   -0.172996    26Ap    -0.084451    27Ap    -0.077659  
      28Ap    -0.009749    29Ap     0.001731    30Ap     0.022920  
       9App    0.027288    31Ap     0.028832    32Ap     0.036660  
      33Ap     0.039723    10App    0.054460    11App    0.056501  
      34Ap     0.061932    35Ap     0.072356    12App    0.075511  
      36Ap     0.079630    13App    0.095429    37Ap     0.097454  
      14App    0.099840    38Ap     0.111034    39Ap     0.132029  
      40Ap     0.148983    41Ap     0.150406    15App    0.160656  
      42Ap     0.164892    43Ap     0.170921    16App    0.174188  
      44Ap     0.182241    17App    0.190983    45Ap     0.191572  
      46Ap     0.204622    18App    0.225607    47Ap     0.243821  
      48Ap     0.250049    49Ap     0.250210    19App    0.252813  
      50Ap     0.259407    51Ap     0.302195    20App    0.302564  
      21App    0.308108    52Ap     0.354743    22App    0.358721  
      53Ap     0.365981    54Ap     0.372896    55Ap     0.377543  
      23App    0.378396    24App    0.379828    56Ap     0.412299  
      57Ap     0.424366    58Ap     0.438678    25App    0.441934  
      26App    0.457828    27App    0.460063    28App    0.475144  
      59Ap     0.476285    60Ap     0.491545    61Ap     0.510757  
      62Ap     0.521478    63Ap     0.525915    29App    0.540021  
      64Ap     0.558601    65Ap     0.562071    30App    0.567190  
      31App    0.578169    66Ap     0.600681    67Ap     0.603976  
      32App    0.610717    68Ap     0.651665    69Ap     0.677528  
      70Ap     0.693490    71Ap     0.722233    72Ap     0.727148  
      73Ap     0.812742    74Ap     1.012962    75Ap     1.057914  
      76Ap     1.192642    33App    1.268320    77Ap     1.276544  
      78Ap     1.345037    34App    1.359922    79Ap     1.375038  
      35App    1.410193    36App    1.410408    80Ap     1.423946  
      81Ap     1.448144    37App    1.452444    82Ap     1.466449  
      83Ap     1.482235    38App    1.485049    84Ap     1.501761  
      39App    1.520860    40App    1.524950    85Ap     1.527872  
      41App    1.531103    86Ap     1.554205    42App    1.563298  
      87Ap     1.566899    88Ap     1.572541    89Ap     1.577300  
      43App    1.578243    44App    1.585938    45App    1.597163  
      90Ap     1.615919    91Ap     1.617330    46App    1.622170  
      47App    1.627662    92Ap     1.686907    93Ap     1.699115  
      94Ap     1.727173    48App    1.777568    49App    1.795641  
      95Ap     1.833739    50App    1.848685    96Ap     1.864873  
      97Ap     1.867100    98Ap     1.871774    51App    1.887925  
      99Ap     1.920596   100Ap     1.922513    52App    1.931577  
     101Ap     1.945978    53App    1.956933   102Ap     1.984758  
     103Ap     2.006743   104Ap     2.041356    54App    2.222796  
     105Ap     2.308851   106Ap     2.378804   107Ap     2.400562  
      55App    2.413052    56App    2.459205   108Ap     2.467025  
     109Ap     2.619976   110Ap     2.954591   111Ap     3.106384  
     112Ap     3.117401   113Ap     6.488670    57App    6.495957  
      58App    6.511350   114Ap     6.523493    59App    6.532820  
      60App    6.539893    61App    6.540803   115Ap     6.546096  
     116Ap     6.546746    62App    6.557984    63App    6.573042  
     117Ap     6.578268    64App    6.584402   118Ap     6.593872  
     119Ap     6.609228   120Ap     6.644735   121Ap     6.648691  
     122Ap     6.673896   123Ap     6.813732   124Ap     6.834318  
      65App    8.605506    66App    8.674981   125Ap     8.729908  
      67App    8.734412    68App    8.798728   126Ap     8.812550  
     127Ap     8.843718   128Ap     8.944627   129Ap     8.972201  
     130Ap     9.019159   131Ap     9.165656   132Ap     9.194490  
     133Ap    18.152235   134Ap    18.738581   135Ap    18.926442  
     136Ap    19.118562  

    Final Occupation by Irrep:
             Ap   App 
    DOCC [    25,    7 ]

  @DF-RKS Final Energy: -1592.78700427679314

   => Energetics <=

    Nuclear Repulsion Energy =            333.6998442875182604
    One-Electron Energy =               -2867.2146989243183270
    Two-Electron Energy =                1043.7615598433922059
    DFT Exchange-Correlation Energy =    -103.0337094833852376
    Empirical Dispersion Energy =           0.0000000000000000
    VV10 Nonlocal Energy =                  0.0000000000000000
    Total Energy =                      -1592.7870042767931409

Computation Completed


Properties will be evaluated at   0.000000,   0.000000,   0.000000 [a0]

Properties computed using the SCF density matrix

  Nuclear Dipole Moment: [e a0]
     X:    -0.0000      Y:    -0.0000      Z:     0.0000

  Electronic Dipole Moment: [e a0]
     X:     0.1089      Y:     0.4150      Z:     0.0000

  Dipole Moment: [e a0]
     X:     0.1089      Y:     0.4150      Z:     0.0000     Total:     0.4290

  Dipole Moment: [D]
     X:     0.2767      Y:     1.0548      Z:     0.0000     Total:     1.0905


*** tstop() called on compute424.bc4.acrc.priv at Sun Nov  7 05:03:25 2021
Module time:
	user time   =      36.99 seconds =       0.62 minutes
	system time =       2.16 seconds =       0.04 minutes
	total time  =          2 seconds =       0.03 minutes
Total time:
	user time   =      36.99 seconds =       0.62 minutes
	system time =       2.16 seconds =       0.04 minutes
	total time  =          2 seconds =       0.03 minutes

    Psi4 stopped on: Sunday, 07 November 2021 05:03AM
    Psi4 wall time for execution: 0:00:01.89

*** Psi4 exiting successfully. Buy a developer a beer!
