
                                 *****************
                                 * O   R   C   A *
                                 *****************

           --- An Ab Initio, DFT and Semiempirical electronic structure package ---

                  #######################################################
                  #                        -***-                        #
                  #          Department of theory and spectroscopy      #
                  #               Directorship: Frank Neese             #
                  #        Max Planck Institute fuer Kohlenforschung    #
                  #                Kaiser Wilhelm Platz 1               #
                  #                 D-45470 Muelheim/Ruhr               #
                  #                      Germany                        #
                  #                                                     #
                  #                  All rights reserved                #
                  #                        -***-                        #
                  #######################################################


                         Program Version 4.2.0 -  RELEASE  -


 With contributions from (in alphabetic order):
   Daniel Aravena         : Magnetic Suceptibility
   Michael Atanasov       : Ab Initio Ligand Field Theory (pilot matlab implementation)
   Alexander A. Auer      : GIAO ZORA, VPT2
   Ute Becker             : Parallelization
   Giovanni Bistoni       : ED, misc. LED, open-shell LED, HFLED
   Martin Brehm           : Molecular dynamics
   Dmytro Bykov           : SCF Hessian
   Vijay G. Chilkuri      : MRCI spin determinant printing, contributions to CSF-ICE
   Dipayan Datta          : RHF DLPNO-CCSD density
   Achintya Kumar Dutta   : EOM-CC, STEOM-CC
   Dmitry Ganyushin       : Spin-Orbit,Spin-Spin,Magnetic field MRCI
   Miquel Garcia          : C-PCM Hessian, Gaussian charge scheme
   Yang Guo               : DLPNO-NEVPT2, CIM, IAO-localization
   Andreas Hansen         : Spin unrestricted coupled pair/coupled cluster methods
   Benjamin Helmich-Paris : CASSCF linear response (MC-RPA)
   Lee Huntington         : MR-EOM, pCC
   Robert Izsak           : Overlap fitted RIJCOSX, COSX-SCS-MP3, EOM
   Christian Kollmar      : KDIIS, OOCD, Brueckner-CCSD(T), CCSD density
   Simone Kossmann        : Meta GGA functionals, TD-DFT gradient, OOMP2, MP2 Hessian
   Martin Krupicka        : AUTO-CI
   Lucas Lang             : DCDCAS
   Dagmar Lenk            : GEPOL surface, SMD
   Dimitrios Liakos       : Extrapolation schemes; Compound Job, initial MDCI parallelization
   Dimitrios Manganas     : Further ROCIS development; embedding schemes
   Dimitrios Pantazis     : SARC Basis sets
   Taras Petrenko         : DFT Hessian,TD-DFT gradient, ASA, ECA, R-Raman, ABS, FL, XAS/XES, NRVS
   Peter Pinski           : DLPNO-MP2, DLPNO-MP2 Gradient
   Christoph Reimann      : Effective Core Potentials
   Marius Retegan         : Local ZFS, SOC
   Christoph Riplinger    : Optimizer, TS searches, QM/MM, DLPNO-CCSD(T), (RO)-DLPNO pert. Triples
   Tobias Risthaus        : Range-separated hybrids, TD-DFT gradient, RPA, STAB
   Michael Roemelt        : Original ROCIS implementation
   Masaaki Saitow         : Open-shell DLPNO-CCSD energy and density
   Barbara Sandhoefer     : DKH picture change effects
   Avijit Sen             : IP-ROCIS
   Kantharuban Sivalingam : CASSCF convergence, NEVPT2, FIC-MRCI
   Bernardo de Souza      : ESD, SOC TD-DFT
   Georgi Stoychev        : AutoAux, RI-MP2 NMR
   Willem Van den Heuvel  : Paramagnetic NMR
   Boris Wezisla          : Elementary symmetry handling
   Frank Wennmohs         : Technical directorship


 We gratefully acknowledge several colleagues who have allowed us to
 interface, adapt or use parts of their codes:
   Stefan Grimme, W. Hujo, H. Kruse,             : VdW corrections, initial TS optimization,
                  C. Bannwarth                     DFT functionals, gCP, sTDA/sTD-DF
   Ed Valeev, F. Pavosevic, A. Kumar             : LibInt (2-el integral package), F12 methods
   Garnet Chan, S. Sharma, J. Yang, R. Olivares  : DMRG
   Ulf Ekstrom                                   : XCFun DFT Library
   Mihaly Kallay                                 : mrcc  (arbitrary order and MRCC methods)
   Andreas Klamt, Michael Diedenhofen            : otool_cosmo (COSMO solvation model)
   Jiri Pittner, Ondrej Demel                    : Mk-CCSD
   Frank Weinhold                                : gennbo (NPA and NBO analysis)
   Christopher J. Cramer and Donald G. Truhlar   : smd solvation model
   Lars Goerigk                                  : TD-DFT with DH, B97 family of functionals
   V. Asgeirsson, H. Jonsson                     : NEB implementation
   FAccTs GmbH                                   : IRC, NEB, NEB-TS, Multilevel, MM, QM/MM, CI optimization
   S Lehtola, MJT Oliveira, MAL Marques          : LibXC Library


 Your calculation uses the libint2 library for the computation of 2-el integrals
 For citations please refer to: http://libint.valeyev.net

 Your ORCA version has been built with support for libXC version: 4.2.3
 For citations please refer to: https://tddft.org/programs/libxc/

 This ORCA versions uses:
   CBLAS   interface :  Fast vector & matrix operations
   LAPACKE interface :  Fast linear algebra routines
   SCALAPACK package :  Parallel linear algebra routines


Your calculation utilizes the atom-pairwise dispersion correction
with the Becke-Johnson damping scheme (D3BJ)
Cite in your paper:
S.Grimme, S.Ehrlich, L.Goerigk, J Comput Chem, (2011), 32, 1456–1465 
S.Grimme, J.Antony, S.Ehrlich and H.Krieg, J.Chem.Phys., 132, (2010), 154104 
   

----- Orbital basis set information -----
Your calculation utilizes the basis: def2-TZVPPD
   F. Weigend and R. Ahlrichs, Phys. Chem. Chem. Phys. 7, 3297 (2005).
   D. Rappoport and F. Furche, J. Chem. Phys. 133 134105 (2010).

----- AuxC basis set information -----
Your calculation utilizes the auxiliary basis: def2-TZVPPD/C
   A. Hellweg, C. Hattig, S. Hofener and W. Klopper, Theor. Chem. Acc. 117, 587 (2007).

----- AuxJK basis set information -----
Your calculation utilizes the auxiliary basis: def2/JK
   H-Ba, Hf-Rn: F. Weigend, J. Comput. Chem. 29, 167 (2008).

================================================================================
                                        WARNINGS
                       Please study these warnings very carefully!
================================================================================


WARNING: your system is open-shell and RHF/RKS was chosen
  ===> : WILL SWITCH to UHF/UKS


WARNING: No MP2 level density has been requested!
         To caclulate MP2 level properties use
         %mp2 Density relaxed end
         or
         %mp2 Density unrelaxed end
         Otherwise for double-hybrid DFT only the energy is correct!

WARNING: There are different parametrizations of Gershom Martin's DSD-DFs
         for use with and without D3(BJ)!
         You are using the D3(BJ) parametrized version,
         consistent with the 2013 article (S. Kozuch and J. M. L. Martin, JCC 2013, 34, 2327)

WARNING: The frozen-core approximation is turned on by default for 
         the MP2 part of double-hybrid DFT.

INFO   : the flag for use of LIBINT has been found!

================================================================================
                                       INPUT FILE
================================================================================
NAME = b2.in
|  1> #
|  2> # b2 ri-DSD-BLYP/2013-D3BJ/Def2-TZVPPD
|  3> #
|  4> ! rijk ri-dsd-blyp/2013 d3bj def2-tzvppd def2/jk def2-tzvppd/c grid4 nofinalgrid
|  5> 
|  6> *xyz 0 3
|  7> B          0.00000        0.00000        0.80705
|  8> B          0.00000        0.00000       -0.80705
|  9> *
| 10> 
| 11> %maxcore 5000
| 12> 
| 13> %pal
| 14> nprocs = 28
| 15> end
| 16> 
| 17> 
| 18>                          ****END OF INPUT****
================================================================================

                       ****************************
                       * Single Point Calculation *
                       ****************************

---------------------------------
CARTESIAN COORDINATES (ANGSTROEM)
---------------------------------
  B      0.000000    0.000000    0.807050
  B      0.000000    0.000000   -0.807050

----------------------------
CARTESIAN COORDINATES (A.U.)
----------------------------
  NO LB      ZA    FRAG     MASS         X           Y           Z
   0 B     5.0000    0    10.810    0.000000    0.000000    1.525103
   1 B     5.0000    0    10.810    0.000000    0.000000   -1.525103

--------------------------------
INTERNAL COORDINATES (ANGSTROEM)
--------------------------------
 B      0   0   0     0.000000000000     0.00000000     0.00000000
 B      1   0   0     1.614100000000     0.00000000     0.00000000

---------------------------
INTERNAL COORDINATES (A.U.)
---------------------------
 B      0   0   0     0.000000000000     0.00000000     0.00000000
 B      1   0   0     3.050206952762     0.00000000     0.00000000

---------------------
BASIS SET INFORMATION
---------------------
There are 1 groups of distinct atoms

 Group   1 Type B   : 12s6p3d1f contracted to 6s3p3d1f pattern {621111/411/111/1}

Atom   0B    basis set group =>   1
Atom   1B    basis set group =>   1
---------------------------------
AUXILIARY/C BASIS SET INFORMATION
---------------------------------
There are 1 groups of distinct atoms

 Group   1 Type B   : 9s7p6d4f1g contracted to 9s7p5d4f1g pattern {111111111/1111111/21111/1111/1}

Atom   0B    basis set group =>   1
Atom   1B    basis set group =>   1
----------------------------------
AUXILIARY/JK BASIS SET INFORMATION
----------------------------------
There are 1 groups of distinct atoms

 Group   1 Type B   : 14s10p6d2f1g contracted to 10s8p5d1f1g pattern {5111111111/31111111/21111/2/1}

Atom   0B    basis set group =>   1
Atom   1B    basis set group =>   1


           ************************************************************
           *        Program running with 28 parallel MPI-processes    *
           *              working on a common directory               *
           ************************************************************
------------------------------------------------------------------------------
                           ORCA GTO INTEGRAL CALCULATION
                           -- RI-GTO INTEGRALS CHOSEN --
------------------------------------------------------------------------------

                         BASIS SET STATISTICS AND STARTUP INFO

Gaussian basis set:
 # of primitive gaussian shells          ...   44
 # of primitive gaussian functions       ...  104
 # of contracted shells                  ...   26
 # of contracted basis functions         ...   74
 Highest angular momentum                ...    3
 Maximum contraction depth               ...    6
Auxiliary gaussian basis set:
 # of primitive gaussian shells          ...   66
 # of primitive gaussian functions       ...  194
 # of contracted shells                  ...   50
 # of contracted aux-basis functions     ...  150
 Highest angular momentum                ...    4
 Maximum contraction depth               ...    5
Ratio of auxiliary to basis functions    ...  2.03
Integral package used                  ... LIBINT
 One Electron integrals                  ... done
 Ordering auxiliary basis shells         ... done
 Integral threshhold             Thresh  ...  1.000e-10
 Primitive cut-off               TCut    ...  1.000e-11
 Pre-screening matrix                    ... done
 Shell pair data                         ... 
 Ordering of the shell pairs             ... done (   0.000 sec) 350 of 351 pairs
 Determination of significant pairs      ... done (   0.000 sec)
 Creation of shell pair data             ... done (   0.000 sec)
 Storage of shell pair data              ... done (   0.008 sec)
 Shell pair data done in (   0.008 sec)
 Computing two index integrals           ... done
 Cholesky decomposition of the V-matrix  ... done


Timings:
 Total evaluation time                   ...   0.251 sec (  0.004 min)
 One electron matrix time                ...   0.048 sec (  0.001 min) = 19.1%
 Schwartz matrix evaluation time         ...   0.111 sec (  0.002 min) = 44.3%
 Two index repulsion integral time       ...   0.009 sec (  0.000 min) =  3.5%
 Cholesky decomposition of V             ...   0.043 sec (  0.001 min) = 17.2%
 Three index repulsion integral time     ...   0.000 sec (  0.000 min) =  0.0%



           ************************************************************
           *        Program running with 28 parallel MPI-processes    *
           *              working on a common directory               *
           ************************************************************
-------------------------------------------------------------------------------
                                 ORCA SCF
-------------------------------------------------------------------------------

------------
SCF SETTINGS
------------
Hamiltonian:
 Density Functional     Method          .... DFT(GTOs)
 Exchange Functional    Exchange        .... B88
   X-Alpha parameter    XAlpha          ....  0.666667
   Becke's b parameter  XBeta           ....  0.004200
 Correlation Functional Correlation     .... LYP
 LDA part of GGA corr.  LDAOpt          .... VWN-5
 Gradients option       PostSCFGGA      .... off
 Hybrid DFT is turned on
   Fraction HF Exchange ScalHFX         ....  0.710000
   Scaling of DF-GGA-X  ScalDFX         ....  0.290000
   Scaling of DF-GGA-C  ScalDFC         ....  0.540000
   Scaling of DF-LDA-C  ScalLDAC        ....  0.540000
   Perturbative correction              ....  1.000000
   Density functional embedding theory  .... OFF
 RI-approximation to the Coulomb term is turned on
   Number of auxiliary basis functions  .... 150
   RI-JK (J+K treated both via RI)      .... on


General Settings:
 Integral files         IntName         .... b2
 Hartree-Fock type      HFTyp           .... UHF
 Total Charge           Charge          ....    0
 Multiplicity           Mult            ....    3
 Number of Electrons    NEL             ....   10
 Basis Dimension        Dim             ....   74
 Nuclear Repulsion      ENuc            ....      8.1961651741 Eh

Convergence Acceleration:
 DIIS                   CNVDIIS         .... on
   Start iteration      DIISMaxIt       ....    12
   Startup error        DIISStart       ....  0.200000
   # of expansion vecs  DIISMaxEq       ....     5
   Bias factor          DIISBfac        ....   1.050
   Max. coefficient     DIISMaxC        ....  10.000
 Newton-Raphson         CNVNR           .... off
 SOSCF                  CNVSOSCF        .... off
 Level Shifting         CNVShift        .... on
   Level shift para.    LevelShift      ....    0.2500
   Turn off err/grad.   ShiftErr        ....    0.0010
 Zerner damping         CNVZerner       .... off
 Static damping         CNVDamp         .... on
   Fraction old density DampFac         ....    0.7000
   Max. Damping (<1)    DampMax         ....    0.9800
   Min. Damping (>=0)   DampMin         ....    0.0000
   Turn off err/grad.   DampErr         ....    0.1000
 Fernandez-Rico         CNVRico         .... off

SCF Procedure:
 Maximum # iterations   MaxIter         ....   125
 SCF integral mode      SCFMode         .... Direct
   Integral package                     .... LIBINT
 Reset frequency        DirectResetFreq ....    20
 Integral Threshold     Thresh          ....  1.000e-10 Eh
 Primitive CutOff       TCut            ....  1.000e-11 Eh

Convergence Tolerance:
 Convergence Check Mode ConvCheckMode   .... Total+1el-Energy
 Convergence forced     ConvForced      .... 0
 Energy Change          TolE            ....  1.000e-06 Eh
 1-El. energy change                    ....  1.000e-03 Eh
 DIIS Error             TolErr          ....  1.000e-06


Diagonalization of the overlap matrix:
Smallest eigenvalue                        ... 1.449e-05
Time for diagonalization                   ...    0.002 sec
Threshold for overlap eigenvalues          ... 1.000e-08
Number of eigenvalues below threshold      ... 0
Time for construction of square roots      ...    0.025 sec
Total time needed                          ...    0.027 sec

-------------------
DFT GRID GENERATION
-------------------

General Integration Accuracy     IntAcc      ...  4.670
Radial Grid Type                 RadialGrid  ... Gauss-Chebyshev
Angular Grid (max. acc.)         AngularGrid ... Lebedev-302
Angular grid pruning method      GridPruning ... 3 (G Style)
Weight generation scheme         WeightScheme... Becke
Basis function cutoff            BFCut       ...    1.0000e-10
Integration weight cutoff        WCut        ...    1.0000e-14
Grids for H and He will be reduced by one unit

# of grid points (after initial pruning)     ...  12256 (   0.0 sec)
# of grid points (after weights+screening)   ...  12226 (   0.0 sec)
nearest neighbour list constructed           ...    0.0 sec
Grid point re-assignment to atoms done       ...    0.0 sec
Grid point division into batches done        ...    0.1 sec
Reduced shell lists constructed in    0.1 sec

Total number of grid points                  ...    12226
Total number of batches                      ...      192
Average number of points per batch           ...       63
Average number of grid points per atom       ...     6113
Average number of shells per batch           ...     6.50 (25.00%)
Average number of basis functions per batch  ...    16.25 (21.96%)
Average number of large shells per batch     ...     5.25 (80.77%)
Average number of large basis fcns per batch ...    14.25 (87.69%)
Average number of aux-shells per batch       ...     6.50 (13.00%)
Average number of aux functions per batch    ...    16.25 (10.83%)
Maximum spatial batch extension              ...  28.80, 28.80, 15.72 au
Average spatial batch extension              ...   0.81,  0.73,  0.49 au

Time for grid setup =    1.045 sec

------------------------------
INITIAL GUESS: MODEL POTENTIAL
------------------------------
Loading Hartree-Fock densities                     ... done
Calculating cut-offs                               ... done
Setting up the integral package                    ... done
Initializing the effective Hamiltonian             ... done
Starting the Coulomb interaction                   ... done (   0.0 sec)
Reading the grid                                   ... done
Mapping shells                                     ... done
Starting the XC term evaluation                    ... done (   0.0 sec)
  promolecular density results
     # of electrons  =      9.999996822
     EX              =     -7.449914178
     EC              =     -0.007023877
     EX+EC           =     -7.456938054
Transforming the Hamiltonian                       ... done (   0.0 sec)
Diagonalizing the Hamiltonian                      ... done (   0.0 sec)
Back transforming the eigenvectors                 ... done (   0.0 sec)
Now organizing SCF variables                       ... done
                      ------------------
                      INITIAL GUESS DONE (   1.2 sec)
                      ------------------
--------------
SCF ITERATIONS
--------------
ITER       Energy         Delta-E        Max-DP      RMS-DP      [F,P]     Damp
  0    -49.2236507805   0.000000000000 0.02220847  0.00084047  0.0849465 0.7000
  1    -49.2193616395   0.004289140991 0.01812275  0.00072606  0.0908585 0.7000
                               ***Turning on DIIS***
  2    -49.2232438685  -0.003882228977 0.04268722  0.00170354  0.0757289 0.0000
  3    -49.2460858840  -0.022842015507 0.01082088  0.00038923  0.0251953 0.0000
  4    -49.2482931748  -0.002207290788 0.00412689  0.00014179  0.0073164 0.0000
  5    -49.2486025909  -0.000309416148 0.00157019  0.00005170  0.0017533 0.0000
  6    -49.2486380677  -0.000035476749 0.00120323  0.00004736  0.0005227 0.0000
  7    -49.2486450831  -0.000007015394 0.00026759  0.00000996  0.0001154 0.0000
                 **** Energy Check signals convergence ****

               *****************************************************
               *                     SUCCESS                       *
               *           SCF CONVERGED AFTER   8 CYCLES          *
               *****************************************************


----------------
TOTAL SCF ENERGY
----------------

Total Energy       :          -49.24864560 Eh           -1340.12378 eV

Components:
Nuclear Repulsion  :            8.19616517 Eh             223.02899 eV
Electronic Energy  :          -57.44481078 Eh           -1563.15277 eV
One Electron Energy:          -81.00489208 Eh           -2204.25518 eV
Two Electron Energy:           23.56008130 Eh             641.10241 eV

Virial components:
Potential Energy   :          -98.40896333 Eh           -2677.84403 eV
Kinetic Energy     :           49.16031773 Eh            1337.72025 eV
Virial Ratio       :            2.00179673


DFT components:
N(Alpha)           :        5.999998325276 electrons
N(Beta)            :        3.999998243491 electrons
N(Total)           :        9.999996568767 electrons
E(X)               :       -2.197001307812 Eh       
E(C)               :       -0.145454493543 Eh       
E(XC)              :       -2.342455801355 Eh       
DFET-embed. en.    :        0.000000000000 Eh       

---------------
SCF CONVERGENCE
---------------

  Last Energy change         ...   -5.2022e-07  Tolerance :   1.0000e-06
  Last MAX-Density change    ...    1.0071e-04  Tolerance :   1.0000e-05
  Last RMS-Density change    ...    4.0638e-06  Tolerance :   1.0000e-06
  Last DIIS Error            ...    2.3484e-05  Tolerance :   1.0000e-06

             **** THE GBW FILE WAS UPDATED (b2.gbw) ****
             **** DENSITY FILE WAS UPDATED (b2.scfp) ****
             **** ENERGY FILE WAS UPDATED (b2.en.tmp) ****
----------------------
UHF SPIN CONTAMINATION
----------------------

Warning: in a DFT calculation there is little theoretical justification to 
         calculate <S**2> as in Hartree-Fock theory. We will do it anyways
         but you should keep in mind that the values have only limited relevance

Expectation value of <S**2>     :     2.008354
Ideal value S*(S+1) for S=1.0   :     2.000000
Deviation                       :     0.008354

             **** THE GBW FILE WAS UPDATED (b2.gbw) ****
             **** DENSITY FILE WAS UPDATED (b2.scfp) ****
----------------
ORBITAL ENERGIES
----------------
                 SPIN UP ORBITALS
  NO   OCC          E(Eh)            E(eV) 
   0   1.0000      -7.403642      -201.4633 
   1   1.0000      -7.402782      -201.4399 
   2   1.0000      -0.693493       -18.8709 
   3   1.0000      -0.365118        -9.9354 
   4   1.0000      -0.319742        -8.7006 
   5   1.0000      -0.319742        -8.7006 
   6   0.0000      -0.092265        -2.5107 
   7   0.0000       0.039447         1.0734 
   8   0.0000       0.039447         1.0734 
   9   0.0000       0.048288         1.3140 
  10   0.0000       0.056734         1.5438 
  11   0.0000       0.127766         3.4767 
  12   0.0000       0.148867         4.0509 
  13   0.0000       0.148867         4.0509 
  14   0.0000       0.153222         4.1694 
  15   0.0000       0.153222         4.1694 
  16   0.0000       0.169730         4.6186 
  17   0.0000       0.172707         4.6996 
  18   0.0000       0.172707         4.6996 
  19   0.0000       0.221395         6.0245 
  20   0.0000       0.221395         6.0245 
  21   0.0000       0.239633         6.5207 
  22   0.0000       0.239633         6.5207 
  23   0.0000       0.253215         6.8903 
  24   0.0000       0.262318         7.1380 
  25   0.0000       0.351941         9.5768 
  26   0.0000       0.381846        10.3906 
  27   0.0000       0.386910        10.5283 
  28   0.0000       0.386910        10.5283 
  29   0.0000       0.526267        14.3204 
  30   0.0000       0.526267        14.3204 
  31   0.0000       0.564929        15.3725 
  32   0.0000       0.609451        16.5840 
  33   0.0000       0.609451        16.5840 
  34   0.0000       0.700615        19.0647 
  35   0.0000       0.700615        19.0647 
  36   0.0000       0.709907        19.3176 
  37   0.0000       0.790668        21.5152 
  38   0.0000       0.790668        21.5152 
  39   0.0000       0.904263        24.6062 
  40   0.0000       0.998552        27.1720 
  41   0.0000       1.008603        27.4455 
  42   0.0000       1.008603        27.4455 
  43   0.0000       1.102048        29.9883 
  44   0.0000       1.240541        33.7568 
  45   0.0000       1.240541        33.7568 
  46   0.0000       1.314490        35.7691 
  47   0.0000       1.400428        38.1076 
  48   0.0000       1.679379        45.6982 
  49   0.0000       1.679379        45.6982 
  50   0.0000       1.721140        46.8346 
  51   0.0000       1.721140        46.8346 
  52   0.0000       1.738486        47.3066 
  53   0.0000       1.738486        47.3066 
  54   0.0000       1.896992        51.6198 
  55   0.0000       1.948948        53.0336 
  56   0.0000       1.948948        53.0336 
  57   0.0000       2.002978        54.5038 
  58   0.0000       2.002978        54.5038 
  59   0.0000       2.048628        55.7460 
  60   0.0000       2.048628        55.7460 
  61   0.0000       2.060306        56.0638 
  62   0.0000       2.060306        56.0638 
  63   0.0000       2.307175        62.7814 
  64   0.0000       2.307175        62.7814 
  65   0.0000       2.338099        63.6229 
  66   0.0000       2.342238        63.7355 
  67   0.0000       2.342238        63.7355 
  68   0.0000       2.905166        79.0536 
  69   0.0000       2.963450        80.6396 
  70   0.0000       2.963450        80.6396 
  71   0.0000       3.007433        81.8364 
  72   0.0000      14.001558       381.0018 
  73   0.0000      14.458111       393.4252 

                 SPIN DOWN ORBITALS
  NO   OCC          E(Eh)            E(eV) 
   0   1.0000      -7.392467      -201.1593 
   1   1.0000      -7.392021      -201.1471 
   2   1.0000      -0.589510       -16.0414 
   3   1.0000      -0.316197        -8.6042 
   4   0.0000      -0.083659        -2.2765 
   5   0.0000      -0.036387        -0.9901 
   6   0.0000      -0.036387        -0.9901 
   7   0.0000       0.050743         1.3808 
   8   0.0000       0.058603         1.5947 
   9   0.0000       0.088296         2.4027 
  10   0.0000       0.088296         2.4027 
  11   0.0000       0.131839         3.5875 
  12   0.0000       0.157477         4.2852 
  13   0.0000       0.157486         4.2854 
  14   0.0000       0.169488         4.6120 
  15   0.0000       0.174777         4.7559 
  16   0.0000       0.174777         4.7559 
  17   0.0000       0.203868         5.5475 
  18   0.0000       0.203868         5.5475 
  19   0.0000       0.221312         6.0222 
  20   0.0000       0.221317         6.0223 
  21   0.0000       0.252109         6.8602 
  22   0.0000       0.252109         6.8602 
  23   0.0000       0.263348         7.1661 
  24   0.0000       0.269034         7.3208 
  25   0.0000       0.363655         9.8955 
  26   0.0000       0.388583        10.5739 
  27   0.0000       0.407187        11.0801 
  28   0.0000       0.407187        11.0801 
  29   0.0000       0.576603        15.6902 
  30   0.0000       0.576607        15.6903 
  31   0.0000       0.589510        16.0414 
  32   0.0000       0.637497        17.3472 
  33   0.0000       0.637497        17.3472 
  34   0.0000       0.719071        19.5669 
  35   0.0000       0.728039        19.8109 
  36   0.0000       0.728040        19.8110 
  37   0.0000       0.805931        21.9305 
  38   0.0000       0.805931        21.9305 
  39   0.0000       0.906862        24.6770 
  40   0.0000       1.013132        27.5687 
  41   0.0000       1.049130        28.5483 
  42   0.0000       1.049130        28.5483 
  43   0.0000       1.120568        30.4922 
  44   0.0000       1.269850        34.5544 
  45   0.0000       1.269850        34.5544 
  46   0.0000       1.336695        36.3733 
  47   0.0000       1.406353        38.2688 
  48   0.0000       1.718693        46.7680 
  49   0.0000       1.718693        46.7680 
  50   0.0000       1.763650        47.9914 
  51   0.0000       1.763650        47.9914 
  52   0.0000       1.768842        48.1326 
  53   0.0000       1.768842        48.1326 
  54   0.0000       1.914025        52.0833 
  55   0.0000       1.984466        54.0001 
  56   0.0000       1.984466        54.0001 
  57   0.0000       2.043340        55.6021 
  58   0.0000       2.043340        55.6021 
  59   0.0000       2.066177        56.2235 
  60   0.0000       2.066177        56.2235 
  61   0.0000       2.100940        57.1695 
  62   0.0000       2.100941        57.1695 
  63   0.0000       2.323569        63.2275 
  64   0.0000       2.323569        63.2275 
  65   0.0000       2.351955        63.9999 
  66   0.0000       2.368943        64.4622 
  67   0.0000       2.368943        64.4622 
  68   0.0000       2.912787        79.2610 
  69   0.0000       2.985524        81.2402 
  70   0.0000       2.985524        81.2402 
  71   0.0000       3.019022        82.1518 
  72   0.0000      14.010368       381.2415 
  73   0.0000      14.466546       393.6547 

                    ********************************
                    * MULLIKEN POPULATION ANALYSIS *
                    ********************************

--------------------------------------------
MULLIKEN ATOMIC CHARGES AND SPIN POPULATIONS
--------------------------------------------
   0 B :   -0.000006    1.000015
   1 B :    0.000006    0.999985
Sum of atomic charges         :    0.0000000
Sum of atomic spin populations:    2.0000000

-----------------------------------------------------
MULLIKEN REDUCED ORBITAL CHARGES AND SPIN POPULATIONS
-----------------------------------------------------
CHARGE
  0 B s       :     3.643813  s :     3.643813
      pz      :     0.345954  p :     1.310720
      px      :     0.482383
      py      :     0.482383
      dz2     :     0.009569  d :     0.042777
      dxz     :     0.016604
      dyz     :     0.016604
      dx2y2   :     0.000000
      dxy     :     0.000000
      f0      :     0.000671  f :     0.002697
      f+1     :     0.001013
      f-1     :     0.001013
      f+2     :     0.000000
      f-2     :     0.000000
      f+3     :     0.000000
      f-3     :     0.000000
  1 B s       :     3.643803  s :     3.643803
      pz      :     0.345951  p :     1.310718
      px      :     0.482383
      py      :     0.482383
      dz2     :     0.009569  d :     0.042777
      dxz     :     0.016604
      dyz     :     0.016604
      dx2y2   :     0.000000
      dxy     :     0.000000
      f0      :     0.000671  f :     0.002697
      f+1     :     0.001013
      f-1     :     0.001013
      f+2     :     0.000000
      f-2     :     0.000000
      f+3     :     0.000000
      f-3     :     0.000000

SPIN
  0 B s       :    -0.003589  s :    -0.003589
      pz      :    -0.001202  p :     0.963564
      px      :     0.482383
      py      :     0.482383
      dz2     :     0.005256  d :     0.038463
      dxz     :     0.016604
      dyz     :     0.016604
      dx2y2   :    -0.000000
      dxy     :     0.000000
      f0      :    -0.000450  f :     0.001576
      f+1     :     0.001013
      f-1     :     0.001013
      f+2     :    -0.000000
      f-2     :     0.000000
      f+3     :     0.000000
      f-3     :     0.000000
  1 B s       :    -0.003612  s :    -0.003612
      pz      :    -0.001208  p :     0.963559
      px      :     0.482383
      py      :     0.482383
      dz2     :     0.005255  d :     0.038463
      dxz     :     0.016604
      dyz     :     0.016604
      dx2y2   :    -0.000000
      dxy     :    -0.000000
      f0      :    -0.000450  f :     0.001576
      f+1     :     0.001013
      f-1     :     0.001013
      f+2     :    -0.000000
      f-2     :    -0.000000
      f+3     :     0.000000
      f-3     :     0.000000


                     *******************************
                     * LOEWDIN POPULATION ANALYSIS *
                     *******************************

-------------------------------------------
LOEWDIN ATOMIC CHARGES AND SPIN POPULATIONS
-------------------------------------------
   0 B :   -0.000000    1.000000
   1 B :    0.000000    1.000000

----------------------------------------------------
LOEWDIN REDUCED ORBITAL CHARGES AND SPIN POPULATIONS
----------------------------------------------------
CHARGE
  0 B s       :     3.157948  s :     3.157948
      pz      :     0.703166  p :     1.625383
      px      :     0.461109
      py      :     0.461109
      dz2     :     0.129138  d :     0.198758
      dxz     :     0.034810
      dyz     :     0.034810
      dx2y2   :     0.000000
      dxy     :     0.000000
      f0      :     0.009747  f :     0.017910
      f+1     :     0.004081
      f-1     :     0.004081
      f+2     :     0.000000
      f-2     :     0.000000
      f+3     :     0.000000
      f-3     :     0.000000
  1 B s       :     3.157948  s :     3.157948
      pz      :     0.703166  p :     1.625383
      px      :     0.461109
      py      :     0.461109
      dz2     :     0.129138  d :     0.198758
      dxz     :     0.034810
      dyz     :     0.034810
      dx2y2   :     0.000000
      dxy     :     0.000000
      f0      :     0.009747  f :     0.017910
      f+1     :     0.004081
      f-1     :     0.004081
      f+2     :     0.000000
      f-2     :     0.000000
      f+3     :     0.000000
      f-3     :     0.000000

SPIN
  0 B s       :     0.020527  s :     0.020527
      pz      :    -0.024372  p :     0.897846
      px      :     0.461109
      py      :     0.461109
      dz2     :     0.004531  d :     0.074151
      dxz     :     0.034810
      dyz     :     0.034810
      dx2y2   :    -0.000000
      dxy     :     0.000000
      f0      :    -0.000686  f :     0.007477
      f+1     :     0.004081
      f-1     :     0.004081
      f+2     :    -0.000000
      f-2     :     0.000000
      f+3     :     0.000000
      f-3     :     0.000000
  1 B s       :     0.020526  s :     0.020526
      pz      :    -0.024372  p :     0.897846
      px      :     0.461109
      py      :     0.461109
      dz2     :     0.004531  d :     0.074151
      dxz     :     0.034810
      dyz     :     0.034810
      dx2y2   :    -0.000000
      dxy     :    -0.000000
      f0      :    -0.000686  f :     0.007477
      f+1     :     0.004081
      f-1     :     0.004081
      f+2     :    -0.000000
      f-2     :    -0.000000
      f+3     :     0.000000
      f-3     :     0.000000


                      *****************************
                      * MAYER POPULATION ANALYSIS *
                      *****************************

  NA   - Mulliken gross atomic population
  ZA   - Total nuclear charge
  QA   - Mulliken gross atomic charge
  VA   - Mayer's total valence
  BVA  - Mayer's bonded valence
  FA   - Mayer's free valence

  ATOM       NA         ZA         QA         VA         BVA        FA
  0 B      5.0000     5.0000    -0.0000     2.5365     2.0324     0.5041
  1 B      5.0000     5.0000     0.0000     2.5365     2.0324     0.5041

  Mayer bond orders larger than 0.100000
B(  0-B ,  1-B ) :   2.0324 

-------
TIMINGS
-------

Total SCF time: 0 days 0 hours 0 min 54 sec 

Total time                  ....      54.002 sec
Sum of individual times     ....      53.433 sec  ( 98.9%)

Fock matrix formation       ....      50.867 sec  ( 94.2%)
  XC integration            ....      47.907 sec  ( 94.2% of F)
    Basis function eval.    ....       0.008 sec  (  0.0% of XC)
    Density eval.           ....       0.009 sec  (  0.0% of XC)
    XC-Functional eval.     ....       0.009 sec  (  0.0% of XC)
    XC-Potential eval.      ....       0.017 sec  (  0.0% of XC)
Diagonalization             ....       0.772 sec  (  1.4%)
Density matrix formation    ....       0.004 sec  (  0.0%)
Population analysis         ....       0.521 sec  (  1.0%)
Initial guess               ....       0.170 sec  (  0.3%)
Orbital Transformation      ....       0.000 sec  (  0.0%)
Orbital Orthonormalization  ....       0.000 sec  (  0.0%)
DIIS solution               ....       0.054 sec  (  0.1%)
Grid generation             ....       1.045 sec  (  1.9%)


           ************************************************************
           *        Program running with 28 parallel MPI-processes    *
           *              working on a common directory               *
           ************************************************************

------------------------------------------------------------------------------
                                ORCA  MP2 
------------------------------------------------------------------------------

Freezing NCore=4 chemical core electrons

-------------
RI-MP2 ENERGY
-------------
Dimension of the basis                    ...   74
Memory devoted to MP2                     ... 5000 MB   
Data format for buffers                   ... DOUBLE
Compression type for matrix containers    ... UNCOMPRESSED
Scaling for aa/bb pairs                   ...   4.000e-01
Scaling for ab pairs                      ...   4.700e-01
Overall scaling of the MP2 energy         ...   1.000e+00
Calculating two index integrals           ... done (    0.001 sec)
Cholesky decomposition of V**-1           ... done (    0.047 sec)

-----------------
RI-TRANSFORMATION (AUX index driven)
-----------------

Dimension of the orbital-basis         ... 74
Dimension of the aux-basis             ... 184
Transformation of internal/external MOs...    2-   5 to    6-  73
Number Format for Storage              ... Double (8 Byte)
Integral mode                          ... Direct

First Phase: integral generation and transformation of MO indices
  Aux angular momentum 0               ... done (    0.000 sec)
  Aux angular momentum 1               ... done (    0.002 sec)
  Aux angular momentum 2               ... done (    0.001 sec)
  Aux angular momentum 3               ... done (    0.001 sec)
  Aux angular momentum 4               ... done (    0.001 sec)
Closing buffer VIA ( 0.00 GB; CompressionRatio= 0.99)
  Phase 1 completed in     2.964 sec
Second Phase: sorting and transformation of aux index

IA-Transformation
Memory available                       ... 5000 MB 
Max. # MO pairs treated in a batch     ... 1    
# of internal orbitals                 ... 4
# batches for internal orbitals        ... 1
Closing buffer IAV ( 0.00 GB; CompressionRatio= 1.00)
(ia|v) transformation done in     0.048 sec

  Phase 2 completed in     3.328 sec
RI-Integral transformation completed in     7.128 sec

-----------------
RI-TRANSFORMATION (AUX index driven)
-----------------

Dimension of the orbital-basis         ... 74
Dimension of the aux-basis             ... 184
Transformation of internal/external MOs...    2-   3 to    4-  73
Number Format for Storage              ... Double (8 Byte)
Integral mode                          ... Direct

First Phase: integral generation and transformation of MO indices
  Aux angular momentum 0               ... done (    0.000 sec)
  Aux angular momentum 1               ... done (    0.002 sec)
  Aux angular momentum 2               ... done (    0.001 sec)
  Aux angular momentum 3               ... done (    0.001 sec)
  Aux angular momentum 4               ... done (    0.001 sec)
Closing buffer VIA ( 0.00 GB; CompressionRatio= 0.99)
  Phase 1 completed in     3.339 sec
Second Phase: sorting and transformation of aux index

IA-Transformation
Memory available                       ... 5000 MB 
Max. # MO pairs treated in a batch     ... 1    
# of internal orbitals                 ... 2
# batches for internal orbitals        ... 1
Closing buffer IAV ( 0.00 GB; CompressionRatio= 1.00)
(ia|v) transformation done in     0.257 sec

  Phase 2 completed in     3.283 sec
RI-Integral transformation completed in     7.497 sec
Opening buffers                              ... done

Starting loop over batches of integrals:

Operator 0  - window                       ... (  2-  5)x(  6- 73)
Operator 0  - Memory available             ...  5000 MB
Operator 0  - Memory needed per MO         ...   0.1 MB
Operator 0  - Number of orbitals per batch ... 1
Operator 0  - Number of batches            ... 1

OPERATOR  0   PASS   0:  MOs     2 ...    2 +    3 ...    3 +    4 ...    4 +    5 ...    5
  Reading integrals       ... ok

Operator 1  - window                       ... (  2-  3)x(  4- 73)
Operator 1  - Memory available             ...  5000 MB
Operator 1  - Memory needed per MO         ...   0.1 MB
Operator 1  - Number of orbitals per batch ... 1
Operator 1  - Number of batches            ... 1

OPERATOR  1   PASS   0:  MOs     2 ...    2 +    3 ...    3
  Reading integrals       ... ok
Time spent in pair loops =     0.002 sec
Deleting buffer (Ka|jb)[aa] ...done
Deleting buffer (Ka|jb)[ab] ...done
Deleting buffer (Ka|jb)[ba] ...done
Deleting buffer (Ka|jb)[bb] ...done

Spin-scaled correlation energy components}
 E2 and T2 for alpha/alpha pairs :     -0.017179030 Eh      0.000000000
 E2 and T2 for beta/beta   pairs :     -0.001871684 Eh      0.000000000
 E2 and T2 for alpha/beta  pairs :     -0.069696553 Eh      0.000000000


-----------------------------------------------
 RI-MP2 CORRELATION ENERGY:     -0.088747267 Eh
-----------------------------------------------


-------
TIMINGS
-------

Total time                :   16.750 sec
Integral trafo            :   14.653 sec ( 87.5%)
I/O of integrals          :    0.000 sec (  0.0%)
K(i,j) Operators          :    0.000 sec (  0.0%)
T(i,j) pair energies      :    0.000 sec (  0.0%)
V-calculation             :    0.001 sec (  0.0%)
V**(-1/2)                 :    0.047 sec (  0.3%)
Gamma(ia|P)               :    0.000 sec (  0.0%)
Gamma-Trafo               :    0.000 sec (  0.0%)
D(virtual)                :    0.000 sec (  0.0%)
D(internal)               :    0.000 sec (  0.0%)
W(virtual)                :    0.000 sec (  0.0%)
W(internal)               :    0.000 sec (  0.0%)
L(virtual)                :    0.000 sec (  0.0%)
L(internal)               :    0.000 sec (  0.0%)
G(D)                      :    0.000 sec (  0.0%)
G(Z)                      :    0.000 sec (  0.0%)
Z-Vector Solution         :    0.000 sec (  0.0%)
Z-Vector Solution         :    0.000 sec (  0.0%)
3-Index Derivative 
+ Separable RIJ part      :    0.000 sec (  0.0%)
2-Index Derivative 
+ Separable RIJ part      :    0.000 sec (  0.0%)
Separable Gradient (X)    :    0.000 sec (  0.0%)


---------------------------------------
MP2 TOTAL ENERGY:      -49.337392870 Eh
---------------------------------------


-------------------------------------------------------------------------------
                          DFT DISPERSION CORRECTION                            
                                                                               
                              DFTD3 V3.1  Rev 1                                
                          USING Becke-Johnson damping                          
-------------------------------------------------------------------------------
The DSD-BLYP/2013 functional is recognized
Active option DFTDOPT                   ...         4   

molecular C6(AA) [au] = 301.304782 


            DFT-D V3
 parameters
 s6 scaling factor         :     0.5700 
 a1 scaling factor         :     0.0000 
 s8 scaling factor         :     0.0000 
 a2 scaling factor         :     5.4000 
 ad hoc parameters k1-k3   :    16.0000     1.3333    -4.0000 

 Edisp/kcal,au: -1.052439408348  -0.001677168775 
 E6   /kcal   :  -1.052439408 
 E8   /kcal   :  -0.000000000 
 % E8         :   0.000000000 

-------------------------   ----------------
Dispersion correction           -0.001677169
-------------------------   ----------------


-------------------------   --------------------
FINAL SINGLE POINT ENERGY       -49.339070039223
-------------------------   --------------------


                            ***************************************
                            *     ORCA property calculations      *
                            ***************************************


  WARNING: The energy has been calculated at the MP2 level but the densities
           used in the property calculations are still SCF densities
           MP2 response densities have not been calculated 
           use %mp2 Density relaxed end
           or  %mp2 Density unrelaxed end

                                    ---------------------
                                    Active property flags
                                    ---------------------
   (+) Dipole Moment


------------------------------------------------------------------------------
                       ORCA ELECTRIC PROPERTIES CALCULATION
------------------------------------------------------------------------------

Dipole Moment Calculation                       ... on
Quadrupole Moment Calculation                   ... off
Polarizability Calculation                      ... off
GBWName                                         ... b2.gbw
Electron density file                           ... b2.scfp
The origin for moment calculation is the CENTER OF MASS  = ( 0.000000,  0.000000  0.000000)

-------------
DIPOLE MOMENT
-------------
                                X             Y             Z
Electronic contribution:     -0.00000      -0.00000      -0.00000
Nuclear contribution   :      0.00000       0.00000       0.00000
                        -----------------------------------------
Total Dipole Moment    :     -0.00000      -0.00000      -0.00000
                        -----------------------------------------
Magnitude (a.u.)       :      0.00000
Magnitude (Debye)      :      0.00000



--------------------
Rotational spectrum 
--------------------
 
Rotational constants in cm-1:     0.000000     1.197127     1.197127 
Rotational constants in MHz :     0.000000 35888.972992 35888.972992 

 Dipole components along the rotational axes: 
x,y,z [a.u.] :    -0.000000    -0.000000    -0.000000 
x,y,z [Debye]:    -0.000000    -0.000000    -0.000000 

 

Timings for individual modules:

Sum of individual times         ...       74.722 sec (=   1.245 min)
GTO integral calculation        ...        2.276 sec (=   0.038 min)   3.0 %
SCF iterations                  ...       54.670 sec (=   0.911 min)  73.2 %
MP2 module                      ...       17.775 sec (=   0.296 min)  23.8 %
                             ****ORCA TERMINATED NORMALLY****
TOTAL RUN TIME: 0 days 0 hours 2 minutes 10 seconds 861 msec
