
                                 *****************
                                 * O   R   C   A *
                                 *****************

           --- An Ab Initio, DFT and Semiempirical electronic structure package ---

                  #######################################################
                  #                        -***-                        #
                  #          Department of theory and spectroscopy      #
                  #               Directorship: Frank Neese             #
                  #        Max Planck Institute fuer Kohlenforschung    #
                  #                Kaiser Wilhelm Platz 1               #
                  #                 D-45470 Muelheim/Ruhr               #
                  #                      Germany                        #
                  #                                                     #
                  #                  All rights reserved                #
                  #                        -***-                        #
                  #######################################################


                         Program Version 4.2.0 -  RELEASE  -


 With contributions from (in alphabetic order):
   Daniel Aravena         : Magnetic Suceptibility
   Michael Atanasov       : Ab Initio Ligand Field Theory (pilot matlab implementation)
   Alexander A. Auer      : GIAO ZORA, VPT2
   Ute Becker             : Parallelization
   Giovanni Bistoni       : ED, misc. LED, open-shell LED, HFLED
   Martin Brehm           : Molecular dynamics
   Dmytro Bykov           : SCF Hessian
   Vijay G. Chilkuri      : MRCI spin determinant printing, contributions to CSF-ICE
   Dipayan Datta          : RHF DLPNO-CCSD density
   Achintya Kumar Dutta   : EOM-CC, STEOM-CC
   Dmitry Ganyushin       : Spin-Orbit,Spin-Spin,Magnetic field MRCI
   Miquel Garcia          : C-PCM Hessian, Gaussian charge scheme
   Yang Guo               : DLPNO-NEVPT2, CIM, IAO-localization
   Andreas Hansen         : Spin unrestricted coupled pair/coupled cluster methods
   Benjamin Helmich-Paris : CASSCF linear response (MC-RPA)
   Lee Huntington         : MR-EOM, pCC
   Robert Izsak           : Overlap fitted RIJCOSX, COSX-SCS-MP3, EOM
   Christian Kollmar      : KDIIS, OOCD, Brueckner-CCSD(T), CCSD density
   Simone Kossmann        : Meta GGA functionals, TD-DFT gradient, OOMP2, MP2 Hessian
   Martin Krupicka        : AUTO-CI
   Lucas Lang             : DCDCAS
   Dagmar Lenk            : GEPOL surface, SMD
   Dimitrios Liakos       : Extrapolation schemes; Compound Job, initial MDCI parallelization
   Dimitrios Manganas     : Further ROCIS development; embedding schemes
   Dimitrios Pantazis     : SARC Basis sets
   Taras Petrenko         : DFT Hessian,TD-DFT gradient, ASA, ECA, R-Raman, ABS, FL, XAS/XES, NRVS
   Peter Pinski           : DLPNO-MP2, DLPNO-MP2 Gradient
   Christoph Reimann      : Effective Core Potentials
   Marius Retegan         : Local ZFS, SOC
   Christoph Riplinger    : Optimizer, TS searches, QM/MM, DLPNO-CCSD(T), (RO)-DLPNO pert. Triples
   Tobias Risthaus        : Range-separated hybrids, TD-DFT gradient, RPA, STAB
   Michael Roemelt        : Original ROCIS implementation
   Masaaki Saitow         : Open-shell DLPNO-CCSD energy and density
   Barbara Sandhoefer     : DKH picture change effects
   Avijit Sen             : IP-ROCIS
   Kantharuban Sivalingam : CASSCF convergence, NEVPT2, FIC-MRCI
   Bernardo de Souza      : ESD, SOC TD-DFT
   Georgi Stoychev        : AutoAux, RI-MP2 NMR
   Willem Van den Heuvel  : Paramagnetic NMR
   Boris Wezisla          : Elementary symmetry handling
   Frank Wennmohs         : Technical directorship


 We gratefully acknowledge several colleagues who have allowed us to
 interface, adapt or use parts of their codes:
   Stefan Grimme, W. Hujo, H. Kruse,             : VdW corrections, initial TS optimization,
                  C. Bannwarth                     DFT functionals, gCP, sTDA/sTD-DF
   Ed Valeev, F. Pavosevic, A. Kumar             : LibInt (2-el integral package), F12 methods
   Garnet Chan, S. Sharma, J. Yang, R. Olivares  : DMRG
   Ulf Ekstrom                                   : XCFun DFT Library
   Mihaly Kallay                                 : mrcc  (arbitrary order and MRCC methods)
   Andreas Klamt, Michael Diedenhofen            : otool_cosmo (COSMO solvation model)
   Jiri Pittner, Ondrej Demel                    : Mk-CCSD
   Frank Weinhold                                : gennbo (NPA and NBO analysis)
   Christopher J. Cramer and Donald G. Truhlar   : smd solvation model
   Lars Goerigk                                  : TD-DFT with DH, B97 family of functionals
   V. Asgeirsson, H. Jonsson                     : NEB implementation
   FAccTs GmbH                                   : IRC, NEB, NEB-TS, Multilevel, MM, QM/MM, CI optimization
   S Lehtola, MJT Oliveira, MAL Marques          : LibXC Library


 Your calculation uses the libint2 library for the computation of 2-el integrals
 For citations please refer to: http://libint.valeyev.net

 Your ORCA version has been built with support for libXC version: 4.2.3
 For citations please refer to: https://tddft.org/programs/libxc/

 This ORCA versions uses:
   CBLAS   interface :  Fast vector & matrix operations
   LAPACKE interface :  Fast linear algebra routines
   SCALAPACK package :  Parallel linear algebra routines


Your calculation utilizes the atom-pairwise dispersion correction
with the Becke-Johnson damping scheme (D3BJ)
Cite in your paper:
S.Grimme, S.Ehrlich, L.Goerigk, J Comput Chem, (2011), 32, 1456–1465 
S.Grimme, J.Antony, S.Ehrlich and H.Krieg, J.Chem.Phys., 132, (2010), 154104 
   

----- Orbital basis set information -----
Your calculation utilizes the basis: def2-TZVPPD
   F. Weigend and R. Ahlrichs, Phys. Chem. Chem. Phys. 7, 3297 (2005).
   D. Rappoport and F. Furche, J. Chem. Phys. 133 134105 (2010).

----- AuxC basis set information -----
Your calculation utilizes the auxiliary basis: def2-TZVPPD/C
   A. Hellweg, C. Hattig, S. Hofener and W. Klopper, Theor. Chem. Acc. 117, 587 (2007).

----- AuxJK basis set information -----
Your calculation utilizes the auxiliary basis: def2/JK
   H-Ba, Hf-Rn: F. Weigend, J. Comput. Chem. 29, 167 (2008).

================================================================================
                                        WARNINGS
                       Please study these warnings very carefully!
================================================================================


WARNING: No MP2 level density has been requested!
         To caclulate MP2 level properties use
         %mp2 Density relaxed end
         or
         %mp2 Density unrelaxed end
         Otherwise for double-hybrid DFT only the energy is correct!

WARNING: There are different parametrizations of Gershom Martin's DSD-DFs
         for use with and without D3(BJ)!
         You are using the D3(BJ) parametrized version,
         consistent with the 2013 article (S. Kozuch and J. M. L. Martin, JCC 2013, 34, 2327)

WARNING: The frozen-core approximation is turned on by default for 
         the MP2 part of double-hybrid DFT.

INFO   : the flag for use of LIBINT has been found!

================================================================================
                                       INPUT FILE
================================================================================
NAME = Cr2.in
|  1> #
|  2> # Cr2 ri-DSD-BLYP/2013-D3BJ/Def2-TZVPPD
|  3> #
|  4> ! rijk ri-dsd-blyp/2013 d3bj def2-tzvppd def2/jk def2-tzvppd/c grid4 nofinalgrid
|  5> 
|  6> *xyz 0 1
|  7> Cr         0.00000        0.00000        0.00000
|  8> Cr         0.00000        0.00000        1.68000
|  9> *
| 10> 
| 11> %maxcore 5000
| 12> 
| 13> %pal
| 14> nprocs = 28
| 15> end
| 16> 
| 17> 
| 18>                          ****END OF INPUT****
================================================================================

                       ****************************
                       * Single Point Calculation *
                       ****************************

---------------------------------
CARTESIAN COORDINATES (ANGSTROEM)
---------------------------------
  Cr     0.000000    0.000000    0.000000
  Cr     0.000000    0.000000    1.680000

----------------------------
CARTESIAN COORDINATES (A.U.)
----------------------------
  NO LB      ZA    FRAG     MASS         X           Y           Z
   0 Cr   24.0000    0    52.000    0.000000    0.000000    0.000000
   1 Cr   24.0000    0    52.000    0.000000    0.000000    3.174740

--------------------------------
INTERNAL COORDINATES (ANGSTROEM)
--------------------------------
 Cr     0   0   0     0.000000000000     0.00000000     0.00000000
 Cr     1   0   0     1.680000000000     0.00000000     0.00000000

---------------------------
INTERNAL COORDINATES (A.U.)
---------------------------
 Cr     0   0   0     0.000000000000     0.00000000     0.00000000
 Cr     1   0   0     3.174739904988     0.00000000     0.00000000

---------------------
BASIS SET INFORMATION
---------------------
There are 1 groups of distinct atoms

 Group   1 Type Cr  : 17s13p7d2f1g contracted to 6s6p4d2f1g pattern {842111/631111/4111/11/1}

Atom   0Cr   basis set group =>   1
Atom   1Cr   basis set group =>   1
---------------------------------
AUXILIARY/C BASIS SET INFORMATION
---------------------------------
There are 1 groups of distinct atoms

 Group   1 Type Cr  : 10s10p9d7f5g3h1i contracted to 10s10p9d7f5g3h1i pattern {1111111111/1111111111/111111111/1111111/11111/111/1}

Atom   0Cr   basis set group =>   1
Atom   1Cr   basis set group =>   1
----------------------------------
AUXILIARY/JK BASIS SET INFORMATION
----------------------------------
There are 1 groups of distinct atoms

 Group   1 Type Cr  : 19s14p12d10f7g3h1i contracted to 16s13p11d9f5g3h1i pattern {4111111111111111/2111111111111/21111111111/211111111/31111/111/1}

Atom   0Cr   basis set group =>   1
Atom   1Cr   basis set group =>   1


           ************************************************************
           *        Program running with 28 parallel MPI-processes    *
           *              working on a common directory               *
           ************************************************************
------------------------------------------------------------------------------
                           ORCA GTO INTEGRAL CALCULATION
                           -- RI-GTO INTEGRALS CHOSEN --
------------------------------------------------------------------------------

                         BASIS SET STATISTICS AND STARTUP INFO

Gaussian basis set:
 # of primitive gaussian shells          ...   80
 # of primitive gaussian functions       ...  228
 # of contracted shells                  ...   38
 # of contracted basis functions         ...  134
 Highest angular momentum                ...    4
 Maximum contraction depth               ...    8
Auxiliary gaussian basis set:
 # of primitive gaussian shells          ...  132
 # of primitive gaussian functions       ...  600
 # of contracted shells                  ...  116
 # of contracted aux-basis functions     ...  528
 Highest angular momentum                ...    6
 Maximum contraction depth               ...    4
Ratio of auxiliary to basis functions    ...  3.94
Integral package used                  ... LIBINT
 One Electron integrals                  ... done
 Ordering auxiliary basis shells         ... done
 Integral threshhold             Thresh  ...  1.000e-10
 Primitive cut-off               TCut    ...  1.000e-11
 Pre-screening matrix                    ... done
 Shell pair data                         ... 
 Ordering of the shell pairs             ... done (   0.000 sec) 733 of 741 pairs
 Determination of significant pairs      ... done (   0.000 sec)
 Creation of shell pair data             ... done (   0.000 sec)
 Storage of shell pair data              ... done (   0.030 sec)
 Shell pair data done in (   0.030 sec)
 Computing two index integrals           ... done
 Cholesky decomposition of the V-matrix  ... done


Timings:
 Total evaluation time                   ...   0.485 sec (  0.008 min)
 One electron matrix time                ...   0.099 sec (  0.002 min) = 20.4%
 Schwartz matrix evaluation time         ...   0.169 sec (  0.003 min) = 34.9%
 Two index repulsion integral time       ...   0.121 sec (  0.002 min) = 25.0%
 Cholesky decomposition of V             ...   0.023 sec (  0.000 min) =  4.7%
 Three index repulsion integral time     ...   0.000 sec (  0.000 min) =  0.0%



           ************************************************************
           *        Program running with 28 parallel MPI-processes    *
           *              working on a common directory               *
           ************************************************************
-------------------------------------------------------------------------------
                                 ORCA SCF
-------------------------------------------------------------------------------

------------
SCF SETTINGS
------------
Hamiltonian:
 Density Functional     Method          .... DFT(GTOs)
 Exchange Functional    Exchange        .... B88
   X-Alpha parameter    XAlpha          ....  0.666667
   Becke's b parameter  XBeta           ....  0.004200
 Correlation Functional Correlation     .... LYP
 LDA part of GGA corr.  LDAOpt          .... VWN-5
 Gradients option       PostSCFGGA      .... off
 Hybrid DFT is turned on
   Fraction HF Exchange ScalHFX         ....  0.710000
   Scaling of DF-GGA-X  ScalDFX         ....  0.290000
   Scaling of DF-GGA-C  ScalDFC         ....  0.540000
   Scaling of DF-LDA-C  ScalLDAC        ....  0.540000
   Perturbative correction              ....  1.000000
   Density functional embedding theory  .... OFF
 RI-approximation to the Coulomb term is turned on
   Number of auxiliary basis functions  .... 528
   RI-JK (J+K treated both via RI)      .... on


General Settings:
 Integral files         IntName         .... Cr2
 Hartree-Fock type      HFTyp           .... RHF
 Total Charge           Charge          ....    0
 Multiplicity           Mult            ....    1
 Number of Electrons    NEL             ....   48
 Basis Dimension        Dim             ....  134
 Nuclear Repulsion      ENuc            ....    181.4321857029 Eh

Convergence Acceleration:
 DIIS                   CNVDIIS         .... on
   Start iteration      DIISMaxIt       ....    12
   Startup error        DIISStart       ....  0.200000
   # of expansion vecs  DIISMaxEq       ....     5
   Bias factor          DIISBfac        ....   1.050
   Max. coefficient     DIISMaxC        ....  10.000
 Newton-Raphson         CNVNR           .... off
 SOSCF                  CNVSOSCF        .... off
 Level Shifting         CNVShift        .... on
   Level shift para.    LevelShift      ....    0.2500
   Turn off err/grad.   ShiftErr        ....    0.0010
 Zerner damping         CNVZerner       .... off
 Static damping         CNVDamp         .... on
   Fraction old density DampFac         ....    0.7000
   Max. Damping (<1)    DampMax         ....    0.9800
   Min. Damping (>=0)   DampMin         ....    0.0000
   Turn off err/grad.   DampErr         ....    0.1000
 Fernandez-Rico         CNVRico         .... off

SCF Procedure:
 Maximum # iterations   MaxIter         ....   125
 SCF integral mode      SCFMode         .... Direct
   Integral package                     .... LIBINT
 Reset frequency        DirectResetFreq ....    20
 Integral Threshold     Thresh          ....  1.000e-10 Eh
 Primitive CutOff       TCut            ....  1.000e-11 Eh

Convergence Tolerance:
 Convergence Check Mode ConvCheckMode   .... Total+1el-Energy
 Convergence forced     ConvForced      .... 0
 Energy Change          TolE            ....  1.000e-06 Eh
 1-El. energy change                    ....  1.000e-03 Eh
 DIIS Error             TolErr          ....  1.000e-06


Diagonalization of the overlap matrix:
Smallest eigenvalue                        ... 6.049e-05
Time for diagonalization                   ...    0.004 sec
Threshold for overlap eigenvalues          ... 1.000e-08
Number of eigenvalues below threshold      ... 0
Time for construction of square roots      ...    0.036 sec
Total time needed                          ...    0.052 sec

-------------------
DFT GRID GENERATION
-------------------

General Integration Accuracy     IntAcc      ...  4.670
Radial Grid Type                 RadialGrid  ... Gauss-Chebyshev
Angular Grid (max. acc.)         AngularGrid ... Lebedev-302
Angular grid pruning method      GridPruning ... 3 (G Style)
Weight generation scheme         WeightScheme... Becke
Basis function cutoff            BFCut       ...    1.0000e-10
Integration weight cutoff        WCut        ...    1.0000e-14
Grids for H and He will be reduced by one unit

# of grid points (after initial pruning)     ...  19328 (   0.0 sec)
# of grid points (after weights+screening)   ...  19284 (   0.0 sec)
nearest neighbour list constructed           ...    0.0 sec
Grid point re-assignment to atoms done       ...    0.0 sec
Grid point division into batches done        ...    0.2 sec
Reduced shell lists constructed in    0.2 sec

Total number of grid points                  ...    19284
Total number of batches                      ...      302
Average number of points per batch           ...       63
Average number of grid points per atom       ...     9642
Average number of shells per batch           ...     7.83 (20.61%)
Average number of basis functions per batch  ...    22.67 (16.92%)
Average number of large shells per batch     ...     6.67 (85.11%)
Average number of large basis fcns per batch ...    20.00 (88.24%)
Average number of aux-shells per batch       ...     7.83 ( 6.75%)
Average number of aux functions per batch    ...    22.67 ( 4.29%)
Maximum spatial batch extension              ...  24.19, 24.19, 15.73 au
Average spatial batch extension              ...   0.70,  0.70,  0.51 au

Time for grid setup =    0.865 sec

------------------------------
INITIAL GUESS: MODEL POTENTIAL
------------------------------
Loading Hartree-Fock densities                     ... done
Calculating cut-offs                               ... done
Setting up the integral package                    ... done
Initializing the effective Hamiltonian             ... done
Starting the Coulomb interaction                   ... done (   0.0 sec)
Reading the grid                                   ... done
Mapping shells                                     ... done
Starting the XC term evaluation                    ... done (   0.0 sec)
  promolecular density results
     # of electrons  =     48.000013008
     EX              =    -95.029171909
     EC              =     -0.311198953
     EX+EC           =    -95.340370863
Transforming the Hamiltonian                       ... done (   0.0 sec)
Diagonalizing the Hamiltonian                      ... done (   0.0 sec)
Back transforming the eigenvectors                 ... done (   0.0 sec)
Now organizing SCF variables                       ... done
                      ------------------
                      INITIAL GUESS DONE (   1.1 sec)
                      ------------------
--------------
SCF ITERATIONS
--------------
ITER       Energy         Delta-E        Max-DP      RMS-DP      [F,P]     Damp
  0  -2087.1406655707   0.000000000000 0.11814432  0.00246215  0.1425064 0.7000
  1  -2086.9495659898   0.191099580860 0.11636960  0.00230414  0.1071975 0.7000
                               ***Turning on DIIS***
  2  -2087.0185599831  -0.068993993316 0.28116007  0.00520029  0.0614815 0.0000
  3  -2087.2706079121  -0.252047928953 0.03485562  0.00128198  0.0906548 0.0000
  4  -2087.3103654183  -0.039757506196 0.02504374  0.00070729  0.0272336 0.0000
  5  -2087.3156836436  -0.005318225341 0.01007832  0.00028993  0.0143896 0.0000
  6  -2087.3169654734  -0.001281829797 0.00176047  0.00011295  0.0043061 0.0000
  7  -2087.3171635448  -0.000198071337 0.00106184  0.00006130  0.0023645 0.0000
  8  -2087.3172201789  -0.000056634107 0.00129363  0.00005714  0.0008991 0.0000
  9  -2087.3172345653  -0.000014386444 0.00035681  0.00001090  0.0001106 0.0000
                 **** Energy Check signals convergence ****

               *****************************************************
               *                     SUCCESS                       *
               *           SCF CONVERGED AFTER  10 CYCLES          *
               *****************************************************


----------------
TOTAL SCF ENERGY
----------------

Total Energy       :        -2087.31723483 Eh          -56798.78955 eV

Components:
Nuclear Repulsion  :          181.43218570 Eh            4937.02077 eV
Electronic Energy  :        -2268.74942053 Eh          -61735.81032 eV
One Electron Energy:        -3233.65937016 Eh          -87992.34491 eV
Two Electron Energy:          964.90994963 Eh           26256.53459 eV

Virial components:
Potential Energy   :        -4172.09823492 Eh         -113528.56465 eV
Kinetic Energy     :         2084.78100009 Eh           56729.77510 eV
Virial Ratio       :            2.00121655


DFT components:
N(Alpha)           :       24.000008264023 electrons
N(Beta)            :       24.000008264023 electrons
N(Total)           :       48.000016528046 electrons
E(X)               :      -27.561040130302 Eh       
E(C)               :       -1.169980968629 Eh       
E(XC)              :      -28.731021098931 Eh       
DFET-embed. en.    :        0.000000000000 Eh       

---------------
SCF CONVERGENCE
---------------

  Last Energy change         ...   -2.6684e-07  Tolerance :   1.0000e-06
  Last MAX-Density change    ...    7.3985e-05  Tolerance :   1.0000e-05
  Last RMS-Density change    ...    2.2485e-06  Tolerance :   1.0000e-06
  Last DIIS Error            ...    1.9659e-04  Tolerance :   1.0000e-06

             **** THE GBW FILE WAS UPDATED (Cr2.gbw) ****
             **** DENSITY FILE WAS UPDATED (Cr2.scfp) ****
             **** ENERGY FILE WAS UPDATED (Cr2.en.tmp) ****
             **** THE GBW FILE WAS UPDATED (Cr2.gbw) ****
             **** DENSITY FILE WAS UPDATED (Cr2.scfp) ****
----------------
ORBITAL ENERGIES
----------------

  NO   OCC          E(Eh)            E(eV) 
   0   2.0000    -218.889201     -5956.2780 
   1   2.0000    -218.889154     -5956.2767 
   2   2.0000     -25.845017      -703.2787 
   3   2.0000     -25.844963      -703.2772 
   4   2.0000     -21.905351      -596.0749 
   5   2.0000     -21.905017      -596.0658 
   6   2.0000     -21.903524      -596.0252 
   7   2.0000     -21.903524      -596.0252 
   8   2.0000     -21.903272      -596.0183 
   9   2.0000     -21.903272      -596.0183 
  10   2.0000      -3.308749       -90.0356 
  11   2.0000      -3.237679       -88.1017 
  12   2.0000      -2.216969       -60.3268 
  13   2.0000      -2.112182       -57.4754 
  14   2.0000      -2.112182       -57.4754 
  15   2.0000      -2.064510       -56.1782 
  16   2.0000      -2.064510       -56.1782 
  17   2.0000      -1.992904       -54.2297 
  18   2.0000      -0.342083        -9.3085 
  19   2.0000      -0.342083        -9.3085 
  20   2.0000      -0.335559        -9.1310 
  21   2.0000      -0.241872        -6.5817 
  22   2.0000      -0.241871        -6.5816 
  23   2.0000      -0.210555        -5.7295 
  24   0.0000      -0.027600        -0.7510 
  25   0.0000       0.003683         0.1002 
  26   0.0000       0.003683         0.1002 
  27   0.0000       0.031338         0.8528 
  28   0.0000       0.031340         0.8528 
  29   0.0000       0.041362         1.1255 
  30   0.0000       0.041637         1.1330 
  31   0.0000       0.041637         1.1330 
  32   0.0000       0.051362         1.3976 
  33   0.0000       0.087775         2.3885 
  34   0.0000       0.087775         2.3885 
  35   0.0000       0.088754         2.4151 
  36   0.0000       0.107450         2.9239 
  37   0.0000       0.107450         2.9239 
  38   0.0000       0.114759         3.1228 
  39   0.0000       0.138619         3.7720 
  40   0.0000       0.138619         3.7720 
  41   0.0000       0.154456         4.2030 
  42   0.0000       0.178960         4.8698 
  43   0.0000       0.178960         4.8698 
  44   0.0000       0.181768         4.9461 
  45   0.0000       0.186757         5.0819 
  46   0.0000       0.186757         5.0819 
  47   0.0000       0.187563         5.1039 
  48   0.0000       0.187563         5.1039 
  49   0.0000       0.195786         5.3276 
  50   0.0000       0.289220         7.8701 
  51   0.0000       0.289220         7.8701 
  52   0.0000       0.297184         8.0868 
  53   0.0000       0.442640        12.0448 
  54   0.0000       0.457246        12.4423 
  55   0.0000       0.457246        12.4423 
  56   0.0000       0.541233        14.7277 
  57   0.0000       0.584723        15.9111 
  58   0.0000       0.584724        15.9111 
  59   0.0000       0.593019        16.1369 
  60   0.0000       0.593019        16.1369 
  61   0.0000       0.658059        17.9067 
  62   0.0000       0.658059        17.9067 
  63   0.0000       0.666884        18.1468 
  64   0.0000       0.674657        18.3584 
  65   0.0000       0.674658        18.3584 
  66   0.0000       0.690025        18.7765 
  67   0.0000       0.768632        20.9156 
  68   0.0000       0.768632        20.9156 
  69   0.0000       0.881480        23.9863 
  70   0.0000       1.491084        40.5745 
  71   0.0000       1.491085        40.5745 
  72   0.0000       1.601019        43.5659 
  73   0.0000       1.601019        43.5659 
  74   0.0000       1.665621        45.3238 
  75   0.0000       1.665621        45.3238 
  76   0.0000       1.782746        48.5110 
  77   0.0000       1.782746        48.5110 
  78   0.0000       1.805433        49.1283 
  79   0.0000       1.820796        49.5464 
  80   0.0000       1.871114        50.9156 
  81   0.0000       2.028962        55.2109 
  82   0.0000       2.028962        55.2109 
  83   0.0000       2.079106        56.5754 
  84   0.0000       2.079106        56.5754 
  85   0.0000       2.104007        57.2529 
  86   0.0000       2.104007        57.2529 
  87   0.0000       2.137841        58.1736 
  88   0.0000       2.137841        58.1736 
  89   0.0000       2.200371        59.8751 
  90   0.0000       2.266188        61.6661 
  91   0.0000       2.266188        61.6661 
  92   0.0000       2.272186        61.8293 
  93   0.0000       2.272187        61.8294 
  94   0.0000       2.389850        65.0311 
  95   0.0000       2.396729        65.2183 
  96   0.0000       2.396729        65.2183 
  97   0.0000       2.646716        72.0208 
  98   0.0000       3.030882        82.4745 
  99   0.0000       3.120918        84.9245 
 100   0.0000       3.120918        84.9245 
 101   0.0000       4.378015       119.1318 
 102   0.0000       5.485821       149.2768 
 103   0.0000       5.485821       149.2768 
 104   0.0000       5.552147       151.0816 
 105   0.0000       5.576649       151.7483 
 106   0.0000       5.576650       151.7484 
 107   0.0000       5.774896       157.1429 
 108   0.0000       5.774896       157.1429 
 109   0.0000       5.864040       159.5686 
 110   0.0000       5.864099       159.5702 
 111   0.0000       5.881744       160.0504 
 112   0.0000       5.881803       160.0520 
 113   0.0000       5.956821       162.0933 
 114   0.0000       5.956821       162.0933 
 115   0.0000       6.218631       169.2176 
 116   0.0000       6.218636       169.2177 
 117   0.0000       6.527518       177.6228 
 118   0.0000       6.527518       177.6228 
 119   0.0000       6.531350       177.7271 
 120   0.0000       6.531350       177.7271 
 121   0.0000       6.533054       177.7734 
 122   0.0000       6.535124       177.8298 
 123   0.0000       6.535131       177.8300 
 124   0.0000       6.592891       179.4017 
 125   0.0000       6.592891       179.4017 
 126   0.0000       6.795305       184.9096 
 127   0.0000       6.795305       184.9096 
 128   0.0000       6.816218       185.4787 
 129   0.0000       6.816219       185.4788 
 130   0.0000       7.116535       193.6508 
 131   0.0000       7.186578       195.5567 
 132   0.0000       7.347834       199.9447 
 133   0.0000       7.347834       199.9447 

                    ********************************
                    * MULLIKEN POPULATION ANALYSIS *
                    ********************************

-----------------------
MULLIKEN ATOMIC CHARGES
-----------------------
   0 Cr:    0.000123
   1 Cr:   -0.000123
Sum of atomic charges:    0.0000000

--------------------------------
MULLIKEN REDUCED ORBITAL CHARGES
--------------------------------
  0 Crs       :     7.025842  s :     7.025842
      pz      :     3.980043  p :    12.025422
      px      :     4.022689
      py      :     4.022689
      dz2     :     0.985600  d :     4.916792
      dxz     :     0.969376
      dyz     :     0.969376
      dx2y2   :     0.996220
      dxy     :     0.996220
      f0      :     0.007899  f :     0.030195
      f+1     :     0.007546
      f-1     :     0.007546
      f+2     :     0.003603
      f-2     :     0.003603
      f+3     :     0.000000
      f-3     :     0.000000
      g0      :     0.000714  g :     0.001626
      g+1     :     0.000346
      g-1     :     0.000346
      g+2     :     0.000110
      g-2     :     0.000110
      g+3     :     0.000000
      g-3     :     0.000000
      g+4     :     0.000000
      g-4     :     0.000000
  1 Crs       :     7.025589  s :     7.025589
      pz      :     3.980014  p :    12.025394
      px      :     4.022690
      py      :     4.022690
      dz2     :     0.985686  d :     4.917321
      dxz     :     0.969462
      dyz     :     0.969462
      dx2y2   :     0.996356
      dxy     :     0.996356
      f0      :     0.007898  f :     0.030193
      f+1     :     0.007545
      f-1     :     0.007545
      f+2     :     0.003602
      f-2     :     0.003602
      f+3     :     0.000000
      f-3     :     0.000000
      g0      :     0.000714  g :     0.001626
      g+1     :     0.000346
      g-1     :     0.000346
      g+2     :     0.000110
      g-2     :     0.000110
      g+3     :     0.000000
      g-3     :     0.000000
      g+4     :     0.000000
      g-4     :     0.000000


                     *******************************
                     * LOEWDIN POPULATION ANALYSIS *
                     *******************************

----------------------
LOEWDIN ATOMIC CHARGES
----------------------
   0 Cr:    0.000259
   1 Cr:   -0.000259

-------------------------------
LOEWDIN REDUCED ORBITAL CHARGES
-------------------------------
  0 Crs       :     6.773327  s :     6.773327
      pz      :     4.084522  p :    12.102215
      px      :     4.008846
      py      :     4.008846
      dz2     :     1.087092  d :     5.022079
      dxz     :     0.972804
      dyz     :     0.972804
      dx2y2   :     0.994689
      dxy     :     0.994689
      f0      :     0.052434  f :     0.097742
      f+1     :     0.017571
      f-1     :     0.017571
      f+2     :     0.005083
      f-2     :     0.005083
      f+3     :     0.000000
      f-3     :     0.000000
      g0      :     0.002575  g :     0.004377
      g+1     :     0.000739
      g-1     :     0.000739
      g+2     :     0.000162
      g-2     :     0.000162
      g+3     :     0.000000
      g-3     :     0.000000
      g+4     :     0.000000
      g-4     :     0.000000
  1 Crs       :     6.773350  s :     6.773350
      pz      :     4.084516  p :    12.102206
      px      :     4.008845
      py      :     4.008845
      dz2     :     1.087175  d :     5.022589
      dxz     :     0.972884
      dyz     :     0.972884
      dx2y2   :     0.994823
      dxy     :     0.994823
      f0      :     0.052434  f :     0.097738
      f+1     :     0.017570
      f-1     :     0.017570
      f+2     :     0.005082
      f-2     :     0.005082
      f+3     :     0.000000
      f-3     :     0.000000
      g0      :     0.002575  g :     0.004377
      g+1     :     0.000739
      g-1     :     0.000739
      g+2     :     0.000162
      g-2     :     0.000162
      g+3     :     0.000000
      g-3     :     0.000000
      g+4     :     0.000000
      g-4     :     0.000000


                      *****************************
                      * MAYER POPULATION ANALYSIS *
                      *****************************

  NA   - Mulliken gross atomic population
  ZA   - Total nuclear charge
  QA   - Mulliken gross atomic charge
  VA   - Mayer's total valence
  BVA  - Mayer's bonded valence
  FA   - Mayer's free valence

  ATOM       NA         ZA         QA         VA         BVA        FA
  0 Cr    23.9999    24.0000     0.0001     6.0275     6.0275     0.0000
  1 Cr    24.0001    24.0000    -0.0001     6.0275     6.0275     0.0000

  Mayer bond orders larger than 0.100000
B(  0-Cr,  1-Cr) :   6.0275 

-------
TIMINGS
-------

Total SCF time: 0 days 0 hours 1 min 2 sec 

Total time                  ....      62.220 sec
Sum of individual times     ....      61.452 sec  ( 98.8%)

Fock matrix formation       ....      59.432 sec  ( 95.5%)
  XC integration            ....      56.498 sec  ( 95.1% of F)
    Basis function eval.    ....       0.027 sec  (  0.0% of XC)
    Density eval.           ....       0.017 sec  (  0.0% of XC)
    XC-Functional eval.     ....       0.015 sec  (  0.0% of XC)
    XC-Potential eval.      ....       0.036 sec  (  0.1% of XC)
Diagonalization             ....       0.575 sec  (  0.9%)
Density matrix formation    ....       0.070 sec  (  0.1%)
Population analysis         ....       0.138 sec  (  0.2%)
Initial guess               ....       0.282 sec  (  0.5%)
Orbital Transformation      ....       0.000 sec  (  0.0%)
Orbital Orthonormalization  ....       0.000 sec  (  0.0%)
DIIS solution               ....       0.090 sec  (  0.1%)
Grid generation             ....       0.865 sec  (  1.4%)


           ************************************************************
           *        Program running with 28 parallel MPI-processes    *
           *              working on a common directory               *
           ************************************************************

------------------------------------------------------------------------------
                                ORCA  MP2 
------------------------------------------------------------------------------

Freezing NCore=20 chemical core electrons

-------------
RI-MP2 ENERGY
-------------
Dimension of the basis                    ...  134
Memory devoted to MP2                     ... 5000 MB   
Data format for buffers                   ... DOUBLE
Compression type for matrix containers    ... UNCOMPRESSED
Scaling for aa/bb pairs                   ...   4.000e-01
Scaling for ab pairs                      ...   4.700e-01
Overall scaling of the MP2 energy         ...   1.000e+00
Calculating two index integrals           ... done (    0.009 sec)
Cholesky decomposition of V**-1           ... done (    0.038 sec)

-----------------
RI-TRANSFORMATION (AUX index driven)
-----------------

Dimension of the orbital-basis         ... 134
Dimension of the aux-basis             ... 450
Transformation of internal/external MOs...   10-  23 to   24- 133
Number Format for Storage              ... Double (8 Byte)
Integral mode                          ... Direct

First Phase: integral generation and transformation of MO indices
  Aux angular momentum 0               ... done (    0.001 sec)
  Aux angular momentum 1               ... done (    0.001 sec)
  Aux angular momentum 2               ... done (    0.002 sec)
  Aux angular momentum 3               ... done (    0.003 sec)
  Aux angular momentum 4               ... done (    0.006 sec)
  Aux angular momentum 5               ... done (    0.007 sec)
  Aux angular momentum 6               ... done (    0.012 sec)
Closing buffer VIA ( 0.01 GB; CompressionRatio= 1.00)
  Phase 1 completed in     1.631 sec
Second Phase: sorting and transformation of aux index

IA-Transformation
Memory available                       ... 4998 MB 
Max. # MO pairs treated in a batch     ... 1    
# of internal orbitals                 ... 14
# batches for internal orbitals        ... 1
Closing buffer IAV ( 0.00 GB; CompressionRatio= 1.00)
(ia|v) transformation done in     0.845 sec

  Phase 2 completed in     1.921 sec
RI-Integral transformation completed in     3.997 sec
Opening buffers                              ... done

Starting loop over batches of integrals:

Operator 0  - window                       ... ( 10- 23)x( 24-133)
Operator 0  - Memory available             ...  5000 MB
Operator 0  - Memory needed per MO         ...   0.4 MB
Operator 0  - Number of orbitals per batch ... 1
Operator 0  - Number of batches            ... 1

OPERATOR  0   PASS   0:  MOs    10 ...   10 +   11 ...   11 +   12 ...   12 +   13 ...   13
                            +   14 ...   14 +   15 ...   15 +   16 ...   16 +   17 ...   17
                            +   18 ...   18 +   19 ...   19 +   20 ...   20 +   21 ...   21
                            +   22 ...   22 +   23 ...   23
  Reading integrals       ... ok
Time spent in pair loops =     0.232 sec
Deleting buffer (Ka|jb)[aa] ...done

-----------------------------------------------
 RI-MP2 CORRELATION ENERGY:     -1.530395451 Eh
-----------------------------------------------


-------
TIMINGS
-------

Total time                :    4.626 sec
Integral trafo            :    4.005 sec ( 86.6%)
I/O of integrals          :    0.000 sec (  0.0%)
K(i,j) Operators          :    0.000 sec (  0.0%)
T(i,j) pair energies      :    0.000 sec (  0.0%)
V-calculation             :    0.009 sec (  0.2%)
V**(-1/2)                 :    0.038 sec (  0.8%)
Gamma(ia|P)               :    0.000 sec (  0.0%)
Gamma-Trafo               :    0.000 sec (  0.0%)
D(virtual)                :    0.000 sec (  0.0%)
D(internal)               :    0.000 sec (  0.0%)
W(virtual)                :    0.000 sec (  0.0%)
W(internal)               :    0.000 sec (  0.0%)
L(virtual)                :    0.000 sec (  0.0%)
L(internal)               :    0.000 sec (  0.0%)
G(D)                      :    0.000 sec (  0.0%)
G(Z)                      :    0.000 sec (  0.0%)
Z-Vector Solution         :    0.000 sec (  0.0%)
Z-Vector Solution         :    0.000 sec (  0.0%)
3-Index Derivative 
+ Separable RIJ part      :    0.000 sec (  0.0%)
2-Index Derivative 
+ Separable RIJ part      :    0.000 sec (  0.0%)
Separable Gradient (X)    :    0.000 sec (  0.0%)


---------------------------------------
MP2 TOTAL ENERGY:    -2088.847630283 Eh
---------------------------------------


-------------------------------------------------------------------------------
                          DFT DISPERSION CORRECTION                            
                                                                               
                              DFTD3 V3.1  Rev 1                                
                          USING Becke-Johnson damping                          
-------------------------------------------------------------------------------
The DSD-BLYP/2013 functional is recognized
Active option DFTDOPT                   ...         4   

molecular C6(AA) [au] = 1419.801836 


            DFT-D V3
 parameters
 s6 scaling factor         :     0.5700 
 a1 scaling factor         :     0.0000 
 s8 scaling factor         :     0.0000 
 a2 scaling factor         :     5.4000 
 ad hoc parameters k1-k3   :    16.0000     1.3333    -4.0000 

 Edisp/kcal,au: -4.917303683579  -0.007836221384 
 E6   /kcal   :  -4.917303684 
 E8   /kcal   :  -0.000000000 
 % E8         :   0.000000000 

-------------------------   ----------------
Dispersion correction           -0.007836221
-------------------------   ----------------


-------------------------   --------------------
FINAL SINGLE POINT ENERGY     -2088.855466504061
-------------------------   --------------------


                            ***************************************
                            *     ORCA property calculations      *
                            ***************************************


  WARNING: The energy has been calculated at the MP2 level but the densities
           used in the property calculations are still SCF densities
           MP2 response densities have not been calculated 
           use %mp2 Density relaxed end
           or  %mp2 Density unrelaxed end

                                    ---------------------
                                    Active property flags
                                    ---------------------
   (+) Dipole Moment


------------------------------------------------------------------------------
                       ORCA ELECTRIC PROPERTIES CALCULATION
------------------------------------------------------------------------------

Dipole Moment Calculation                       ... on
Quadrupole Moment Calculation                   ... off
Polarizability Calculation                      ... off
GBWName                                         ... Cr2.gbw
Electron density file                           ... Cr2.scfp
The origin for moment calculation is the CENTER OF MASS  = ( 0.000000,  0.000000  1.587370)

-------------
DIPOLE MOMENT
-------------
                                X             Y             Z
Electronic contribution:     -0.00000       0.00000      -0.00102
Nuclear contribution   :      0.00000       0.00000       0.00000
                        -----------------------------------------
Total Dipole Moment    :     -0.00000       0.00000      -0.00102
                        -----------------------------------------
Magnitude (a.u.)       :      0.00102
Magnitude (Debye)      :      0.00259



--------------------
Rotational spectrum 
--------------------
 
Rotational constants in cm-1:     0.000000     0.229723     0.229723 
Rotational constants in MHz :     0.000000  6886.930377  6886.930377 

 Dipole components along the rotational axes: 
x,y,z [a.u.] :    -0.001019     0.000000    -0.000000 
x,y,z [Debye]:    -0.002590     0.000000    -0.000000 

 

Timings for individual modules:

Sum of individual times         ...       70.525 sec (=   1.175 min)
GTO integral calculation        ...        2.256 sec (=   0.038 min)   3.2 %
SCF iterations                  ...       62.892 sec (=   1.048 min)  89.2 %
MP2 module                      ...        5.377 sec (=   0.090 min)   7.6 %
                             ****ORCA TERMINATED NORMALLY****
TOTAL RUN TIME: 0 days 0 hours 1 minutes 20 seconds 359 msec
