
                                 *****************
                                 * O   R   C   A *
                                 *****************

           --- An Ab Initio, DFT and Semiempirical electronic structure package ---

                  #######################################################
                  #                        -***-                        #
                  #          Department of theory and spectroscopy      #
                  #               Directorship: Frank Neese             #
                  #        Max Planck Institute fuer Kohlenforschung    #
                  #                Kaiser Wilhelm Platz 1               #
                  #                 D-45470 Muelheim/Ruhr               #
                  #                      Germany                        #
                  #                                                     #
                  #                  All rights reserved                #
                  #                        -***-                        #
                  #######################################################


                         Program Version 4.2.0 -  RELEASE  -


 With contributions from (in alphabetic order):
   Daniel Aravena         : Magnetic Suceptibility
   Michael Atanasov       : Ab Initio Ligand Field Theory (pilot matlab implementation)
   Alexander A. Auer      : GIAO ZORA, VPT2
   Ute Becker             : Parallelization
   Giovanni Bistoni       : ED, misc. LED, open-shell LED, HFLED
   Martin Brehm           : Molecular dynamics
   Dmytro Bykov           : SCF Hessian
   Vijay G. Chilkuri      : MRCI spin determinant printing, contributions to CSF-ICE
   Dipayan Datta          : RHF DLPNO-CCSD density
   Achintya Kumar Dutta   : EOM-CC, STEOM-CC
   Dmitry Ganyushin       : Spin-Orbit,Spin-Spin,Magnetic field MRCI
   Miquel Garcia          : C-PCM Hessian, Gaussian charge scheme
   Yang Guo               : DLPNO-NEVPT2, CIM, IAO-localization
   Andreas Hansen         : Spin unrestricted coupled pair/coupled cluster methods
   Benjamin Helmich-Paris : CASSCF linear response (MC-RPA)
   Lee Huntington         : MR-EOM, pCC
   Robert Izsak           : Overlap fitted RIJCOSX, COSX-SCS-MP3, EOM
   Christian Kollmar      : KDIIS, OOCD, Brueckner-CCSD(T), CCSD density
   Simone Kossmann        : Meta GGA functionals, TD-DFT gradient, OOMP2, MP2 Hessian
   Martin Krupicka        : AUTO-CI
   Lucas Lang             : DCDCAS
   Dagmar Lenk            : GEPOL surface, SMD
   Dimitrios Liakos       : Extrapolation schemes; Compound Job, initial MDCI parallelization
   Dimitrios Manganas     : Further ROCIS development; embedding schemes
   Dimitrios Pantazis     : SARC Basis sets
   Taras Petrenko         : DFT Hessian,TD-DFT gradient, ASA, ECA, R-Raman, ABS, FL, XAS/XES, NRVS
   Peter Pinski           : DLPNO-MP2, DLPNO-MP2 Gradient
   Christoph Reimann      : Effective Core Potentials
   Marius Retegan         : Local ZFS, SOC
   Christoph Riplinger    : Optimizer, TS searches, QM/MM, DLPNO-CCSD(T), (RO)-DLPNO pert. Triples
   Tobias Risthaus        : Range-separated hybrids, TD-DFT gradient, RPA, STAB
   Michael Roemelt        : Original ROCIS implementation
   Masaaki Saitow         : Open-shell DLPNO-CCSD energy and density
   Barbara Sandhoefer     : DKH picture change effects
   Avijit Sen             : IP-ROCIS
   Kantharuban Sivalingam : CASSCF convergence, NEVPT2, FIC-MRCI
   Bernardo de Souza      : ESD, SOC TD-DFT
   Georgi Stoychev        : AutoAux, RI-MP2 NMR
   Willem Van den Heuvel  : Paramagnetic NMR
   Boris Wezisla          : Elementary symmetry handling
   Frank Wennmohs         : Technical directorship


 We gratefully acknowledge several colleagues who have allowed us to
 interface, adapt or use parts of their codes:
   Stefan Grimme, W. Hujo, H. Kruse,             : VdW corrections, initial TS optimization,
                  C. Bannwarth                     DFT functionals, gCP, sTDA/sTD-DF
   Ed Valeev, F. Pavosevic, A. Kumar             : LibInt (2-el integral package), F12 methods
   Garnet Chan, S. Sharma, J. Yang, R. Olivares  : DMRG
   Ulf Ekstrom                                   : XCFun DFT Library
   Mihaly Kallay                                 : mrcc  (arbitrary order and MRCC methods)
   Andreas Klamt, Michael Diedenhofen            : otool_cosmo (COSMO solvation model)
   Jiri Pittner, Ondrej Demel                    : Mk-CCSD
   Frank Weinhold                                : gennbo (NPA and NBO analysis)
   Christopher J. Cramer and Donald G. Truhlar   : smd solvation model
   Lars Goerigk                                  : TD-DFT with DH, B97 family of functionals
   V. Asgeirsson, H. Jonsson                     : NEB implementation
   FAccTs GmbH                                   : IRC, NEB, NEB-TS, Multilevel, MM, QM/MM, CI optimization
   S Lehtola, MJT Oliveira, MAL Marques          : LibXC Library


 Your calculation uses the libint2 library for the computation of 2-el integrals
 For citations please refer to: http://libint.valeyev.net

 Your ORCA version has been built with support for libXC version: 4.2.3
 For citations please refer to: https://tddft.org/programs/libxc/

 This ORCA versions uses:
   CBLAS   interface :  Fast vector & matrix operations
   LAPACKE interface :  Fast linear algebra routines
   SCALAPACK package :  Parallel linear algebra routines


Your calculation utilizes the atom-pairwise dispersion correction
with the Becke-Johnson damping scheme (D3BJ)
Cite in your paper:
S.Grimme, S.Ehrlich, L.Goerigk, J Comput Chem, (2011), 32, 1456–1465 
S.Grimme, J.Antony, S.Ehrlich and H.Krieg, J.Chem.Phys., 132, (2010), 154104 
   

----- Orbital basis set information -----
Your calculation utilizes the basis: def2-TZVPPD
   F. Weigend and R. Ahlrichs, Phys. Chem. Chem. Phys. 7, 3297 (2005).
   D. Rappoport and F. Furche, J. Chem. Phys. 133 134105 (2010).

----- AuxC basis set information -----
Your calculation utilizes the auxiliary basis: def2-TZVPPD/C
   A. Hellweg, C. Hattig, S. Hofener and W. Klopper, Theor. Chem. Acc. 117, 587 (2007).

----- AuxJK basis set information -----
Your calculation utilizes the auxiliary basis: def2/JK
   H-Ba, Hf-Rn: F. Weigend, J. Comput. Chem. 29, 167 (2008).

================================================================================
                                        WARNINGS
                       Please study these warnings very carefully!
================================================================================


WARNING: No MP2 level density has been requested!
         To caclulate MP2 level properties use
         %mp2 Density relaxed end
         or
         %mp2 Density unrelaxed end
         Otherwise for double-hybrid DFT only the energy is correct!

WARNING: There are different parametrizations of Gershom Martin's DSD-DFs
         for use with and without D3(BJ)!
         You are using the D3(BJ) parametrized version,
         consistent with the 2013 article (S. Kozuch and J. M. L. Martin, JCC 2013, 34, 2327)

WARNING: The frozen-core approximation is turned on by default for 
         the MP2 part of double-hybrid DFT.

INFO   : the flag for use of LIBINT has been found!

================================================================================
                                       INPUT FILE
================================================================================
NAME = FeCO5.in
|  1> #
|  2> # FeCO5 ri-DSD-BLYP/2013-D3BJ/Def2-TZVPPD
|  3> #
|  4> ! rijk ri-dsd-blyp/2013 d3bj def2-tzvppd def2/jk def2-tzvppd/c grid4 nofinalgrid
|  5> 
|  6> *xyz 0 1
|  7> Fe        -0.20173       -0.07205       -0.00000
|  8> C          1.72826       -0.07205        0.00000
|  9> O          2.84367       -0.07205        0.00000
| 10> C         -0.20170       -0.07205       -1.93000
| 11> O         -0.20173       -0.07205       -3.04540
| 12> C         -0.20170       -0.07205        1.93000
| 13> O         -0.20173       -0.07205        3.04540
| 14> C         -1.16675       -1.74347        0.00000
| 15> O         -1.72443       -2.70944        0.00000
| 16> C         -1.16675        1.59938        0.00000
| 17> O         -1.72443        2.56535        0.00000
| 18> *
| 19> 
| 20> %maxcore 5000
| 21> 
| 22> %pal
| 23> nprocs = 28
| 24> end
| 25> 
| 26> 
| 27>                          ****END OF INPUT****
================================================================================

                       ****************************
                       * Single Point Calculation *
                       ****************************

---------------------------------
CARTESIAN COORDINATES (ANGSTROEM)
---------------------------------
  Fe    -0.201730   -0.072050   -0.000000
  C      1.728260   -0.072050    0.000000
  O      2.843670   -0.072050    0.000000
  C     -0.201700   -0.072050   -1.930000
  O     -0.201730   -0.072050   -3.045400
  C     -0.201700   -0.072050    1.930000
  O     -0.201730   -0.072050    3.045400
  C     -1.166750   -1.743470    0.000000
  O     -1.724430   -2.709440    0.000000
  C     -1.166750    1.599380    0.000000
  O     -1.724430    2.565350    0.000000

----------------------------
CARTESIAN COORDINATES (A.U.)
----------------------------
  NO LB      ZA    FRAG     MASS         X           Y           Z
   0 Fe   26.0000    0    55.850   -0.381214   -0.136155   -0.000000
   1 C     6.0000    0    12.011    3.265938   -0.136155    0.000000
   2 O     8.0000    0    15.999    5.373758   -0.136155    0.000000
   3 C     6.0000    0    12.011   -0.381158   -0.136155   -3.647171
   4 O     8.0000    0    15.999   -0.381214   -0.136155   -5.754972
   5 C     6.0000    0    12.011   -0.381158   -0.136155    3.647171
   6 O     8.0000    0    15.999   -0.381214   -0.136155    5.754972
   7 C     6.0000    0    12.011   -2.204838   -3.294681    0.000000
   8 O     8.0000    0    15.999   -3.258700   -5.120100    0.000000
   9 C     6.0000    0    12.011   -2.204838    3.022390    0.000000
  10 O     8.0000    0    15.999   -3.258700    4.847809    0.000000

--------------------------------
INTERNAL COORDINATES (ANGSTROEM)
--------------------------------
 Fe     0   0   0     0.000000000000     0.00000000     0.00000000
 C      1   0   0     1.929990000000     0.00000000     0.00000000
 O      2   1   0     1.115410000000   180.00000000     0.00000000
 C      1   2   3     1.930000000233    89.99910939     0.00000000
 O      4   1   2     1.115400000403   179.99756835   180.00000000
 C      1   2   3     1.930000000233    89.99910939     0.00000000
 O      6   1   2     1.115400000403   179.99756835   180.00000000
 C      1   2   3     1.930002180517   120.00064822     0.00000000
 O      8   1   2     1.115394559472   179.99832684     0.00000000
 C      1   2   3     1.930010840721   120.00049978     0.00000000
 O     10   1   2     1.115394559472   179.99847528     0.00000000

---------------------------
INTERNAL COORDINATES (A.U.)
---------------------------
 Fe     0   0   0     0.000000000000     0.00000000     0.00000000
 C      1   0   0     3.647152541207     0.00000000     0.00000000
 O      2   1   0     2.107819427037   180.00000000     0.00000000
 C      1   2   3     3.647171438909    89.99910939     0.00000000
 O      4   1   2     2.107800530538   179.99756835   180.00000000
 C      1   2   3     3.647171438909    89.99910939     0.00000000
 O      6   1   2     2.107800530538   179.99756835   180.00000000
 C      1   2   3     3.647175559048   120.00064822     0.00000000
 O      8   1   2     2.107790248668   179.99832684     0.00000000
 C      1   2   3     3.647191924462   120.00049978     0.00000000
 O     10   1   2     2.107790248668   179.99847528     0.00000000

---------------------
BASIS SET INFORMATION
---------------------
There are 3 groups of distinct atoms

 Group   1 Type Fe  : 17s13p7d2f1g contracted to 6s6p4d2f1g pattern {842111/631111/4111/11/1}
 Group   2 Type C   : 12s6p3d1f contracted to 6s3p3d1f pattern {621111/411/111/1}
 Group   3 Type O   : 12s7p3d1f contracted to 6s4p3d1f pattern {621111/4111/111/1}

Atom   0Fe   basis set group =>   1
Atom   1C    basis set group =>   2
Atom   2O    basis set group =>   3
Atom   3C    basis set group =>   2
Atom   4O    basis set group =>   3
Atom   5C    basis set group =>   2
Atom   6O    basis set group =>   3
Atom   7C    basis set group =>   2
Atom   8O    basis set group =>   3
Atom   9C    basis set group =>   2
Atom  10O    basis set group =>   3
---------------------------------
AUXILIARY/C BASIS SET INFORMATION
---------------------------------
There are 3 groups of distinct atoms

 Group   1 Type Fe  : 10s10p9d7f5g3h1i contracted to 10s10p9d7f5g3h1i pattern {1111111111/1111111111/111111111/1111111/11111/111/1}
 Group   2 Type C   : 9s7p6d4f1g contracted to 9s7p5d4f1g pattern {111111111/1111111/21111/1111/1}
 Group   3 Type O   : 9s7p6d4f1g contracted to 9s7p5d4f1g pattern {111111111/1111111/21111/1111/1}

Atom   0Fe   basis set group =>   1
Atom   1C    basis set group =>   2
Atom   2O    basis set group =>   3
Atom   3C    basis set group =>   2
Atom   4O    basis set group =>   3
Atom   5C    basis set group =>   2
Atom   6O    basis set group =>   3
Atom   7C    basis set group =>   2
Atom   8O    basis set group =>   3
Atom   9C    basis set group =>   2
Atom  10O    basis set group =>   3
----------------------------------
AUXILIARY/JK BASIS SET INFORMATION
----------------------------------
There are 3 groups of distinct atoms

 Group   1 Type Fe  : 19s14p12d10f7g3h1i contracted to 16s13p11d9f5g3h1i pattern {4111111111111111/2111111111111/21111111111/211111111/31111/111/1}
 Group   2 Type C   : 14s10p6d2f1g contracted to 10s8p5d1f1g pattern {5111111111/31111111/21111/2/1}
 Group   3 Type O   : 14s10p6d2f1g contracted to 10s8p4d2f1g pattern {5111111111/31111111/3111/11/1}

Atom   0Fe   basis set group =>   1
Atom   1C    basis set group =>   2
Atom   2O    basis set group =>   3
Atom   3C    basis set group =>   2
Atom   4O    basis set group =>   3
Atom   5C    basis set group =>   2
Atom   6O    basis set group =>   3
Atom   7C    basis set group =>   2
Atom   8O    basis set group =>   3
Atom   9C    basis set group =>   2
Atom  10O    basis set group =>   3


           ************************************************************
           *        Program running with 28 parallel MPI-processes    *
           *              working on a common directory               *
           ************************************************************
------------------------------------------------------------------------------
                           ORCA GTO INTEGRAL CALCULATION
                           -- RI-GTO INTEGRALS CHOSEN --
------------------------------------------------------------------------------

                         BASIS SET STATISTICS AND STARTUP INFO

Gaussian basis set:
 # of primitive gaussian shells          ...  265
 # of primitive gaussian functions       ...  649
 # of contracted shells                  ...  154
 # of contracted basis functions         ...  452
 Highest angular momentum                ...    4
 Maximum contraction depth               ...    8
Auxiliary gaussian basis set:
 # of primitive gaussian shells          ...  396
 # of primitive gaussian functions       ... 1270
 # of contracted shells                  ...  308
 # of contracted aux-basis functions     ... 1024
 Highest angular momentum                ...    6
 Maximum contraction depth               ...    5
Ratio of auxiliary to basis functions    ...  2.27
Integral package used                  ... LIBINT
 One Electron integrals                  ... done
 Ordering auxiliary basis shells         ... done
 Integral threshhold             Thresh  ...  1.000e-10
 Primitive cut-off               TCut    ...  1.000e-11
 Pre-screening matrix                    ... done
 Shell pair data                         ... 
 Ordering of the shell pairs             ... done (   0.002 sec) 10556 of 11935 pairs
 Determination of significant pairs      ... done (   0.000 sec)
 Creation of shell pair data             ... done (   0.002 sec)
 Storage of shell pair data              ... done (   0.027 sec)
 Shell pair data done in (   0.031 sec)
 Computing two index integrals           ... done
 Cholesky decomposition of the V-matrix  ... done


Timings:
 Total evaluation time                   ...   0.765 sec (  0.013 min)
 One electron matrix time                ...   0.127 sec (  0.002 min) = 16.6%
 Schwartz matrix evaluation time         ...   0.327 sec (  0.005 min) = 42.7%
 Two index repulsion integral time       ...   0.093 sec (  0.002 min) = 12.2%
 Cholesky decomposition of V             ...   0.129 sec (  0.002 min) = 16.9%
 Three index repulsion integral time     ...   0.000 sec (  0.000 min) =  0.0%



           ************************************************************
           *        Program running with 28 parallel MPI-processes    *
           *              working on a common directory               *
           ************************************************************
-------------------------------------------------------------------------------
                                 ORCA SCF
-------------------------------------------------------------------------------

------------
SCF SETTINGS
------------
Hamiltonian:
 Density Functional     Method          .... DFT(GTOs)
 Exchange Functional    Exchange        .... B88
   X-Alpha parameter    XAlpha          ....  0.666667
   Becke's b parameter  XBeta           ....  0.004200
 Correlation Functional Correlation     .... LYP
 LDA part of GGA corr.  LDAOpt          .... VWN-5
 Gradients option       PostSCFGGA      .... off
 Hybrid DFT is turned on
   Fraction HF Exchange ScalHFX         ....  0.710000
   Scaling of DF-GGA-X  ScalDFX         ....  0.290000
   Scaling of DF-GGA-C  ScalDFC         ....  0.540000
   Scaling of DF-LDA-C  ScalLDAC        ....  0.540000
   Perturbative correction              ....  1.000000
   Density functional embedding theory  .... OFF
 RI-approximation to the Coulomb term is turned on
   Number of auxiliary basis functions  .... 1024
   RI-JK (J+K treated both via RI)      .... on


General Settings:
 Integral files         IntName         .... FeCO5
 Hartree-Fock type      HFTyp           .... RHF
 Total Charge           Charge          ....    0
 Multiplicity           Mult            ....    1
 Number of Electrons    NEL             ....   96
 Basis Dimension        Dim             ....  452
 Nuclear Repulsion      ENuc            ....    774.1815765639 Eh

Convergence Acceleration:
 DIIS                   CNVDIIS         .... on
   Start iteration      DIISMaxIt       ....    12
   Startup error        DIISStart       ....  0.200000
   # of expansion vecs  DIISMaxEq       ....     5
   Bias factor          DIISBfac        ....   1.050
   Max. coefficient     DIISMaxC        ....  10.000
 Newton-Raphson         CNVNR           .... off
 SOSCF                  CNVSOSCF        .... off
 Level Shifting         CNVShift        .... on
   Level shift para.    LevelShift      ....    0.2500
   Turn off err/grad.   ShiftErr        ....    0.0010
 Zerner damping         CNVZerner       .... off
 Static damping         CNVDamp         .... on
   Fraction old density DampFac         ....    0.7000
   Max. Damping (<1)    DampMax         ....    0.9800
   Min. Damping (>=0)   DampMin         ....    0.0000
   Turn off err/grad.   DampErr         ....    0.1000
 Fernandez-Rico         CNVRico         .... off

SCF Procedure:
 Maximum # iterations   MaxIter         ....   125
 SCF integral mode      SCFMode         .... Direct
   Integral package                     .... LIBINT
 Reset frequency        DirectResetFreq ....    20
 Integral Threshold     Thresh          ....  1.000e-10 Eh
 Primitive CutOff       TCut            ....  1.000e-11 Eh

Convergence Tolerance:
 Convergence Check Mode ConvCheckMode   .... Total+1el-Energy
 Convergence forced     ConvForced      .... 0
 Energy Change          TolE            ....  1.000e-06 Eh
 1-El. energy change                    ....  1.000e-03 Eh
 DIIS Error             TolErr          ....  1.000e-06


Diagonalization of the overlap matrix:
Smallest eigenvalue                        ... 5.177e-06
Time for diagonalization                   ...    0.116 sec
Threshold for overlap eigenvalues          ... 1.000e-08
Number of eigenvalues below threshold      ... 0
Time for construction of square roots      ...    0.094 sec
Total time needed                          ...    0.211 sec

-------------------
DFT GRID GENERATION
-------------------

General Integration Accuracy     IntAcc      ...  4.670
Radial Grid Type                 RadialGrid  ... Gauss-Chebyshev
Angular Grid (max. acc.)         AngularGrid ... Lebedev-302
Angular grid pruning method      GridPruning ... 3 (G Style)
Weight generation scheme         WeightScheme... Becke
Basis function cutoff            BFCut       ...    1.0000e-10
Integration weight cutoff        WCut        ...    1.0000e-14
Grids for H and He will be reduced by one unit

# of grid points (after initial pruning)     ...  71760 (   0.0 sec)
# of grid points (after weights+screening)   ...  68008 (   0.0 sec)
nearest neighbour list constructed           ...    0.0 sec
Grid point re-assignment to atoms done       ...    0.0 sec
Grid point division into batches done        ...    0.4 sec
Reduced shell lists constructed in    0.6 sec

Total number of grid points                  ...    68008
Total number of batches                      ...     1068
Average number of points per batch           ...       63
Average number of grid points per atom       ...     6183
Average number of shells per batch           ...   115.20 (74.81%)
Average number of basis functions per batch  ...   355.60 (78.67%)
Average number of large shells per batch     ...    98.40 (85.42%)
Average number of large basis fcns per batch ...   302.80 (85.15%)
Average number of aux-shells per batch       ...   115.20 (37.40%)
Average number of aux functions per batch    ...   355.60 (34.73%)
Maximum spatial batch extension              ...   1.61,  1.83,  2.58 au
Average spatial batch extension              ...   0.05,  0.05,  0.05 au

Time for grid setup =    1.517 sec

------------------------------
INITIAL GUESS: MODEL POTENTIAL
------------------------------
Loading Hartree-Fock densities                     ... done
Calculating cut-offs                               ... done
Setting up the integral package                    ... done
Initializing the effective Hamiltonian             ... done
Starting the Coulomb interaction                   ... done (   0.0 sec)
Reading the grid                                   ... done
Mapping shells                                     ... done
Starting the XC term evaluation                    ... done (   0.1 sec)
  promolecular density results
     # of electrons  =     96.000025319
     EX              =   -120.998234904
     EC              =     -0.481390757
     EX+EC           =   -121.479625661
Transforming the Hamiltonian                       ... done (   0.0 sec)
Diagonalizing the Hamiltonian                      ... done (   0.0 sec)
Back transforming the eigenvectors                 ... done (   0.0 sec)
Now organizing SCF variables                       ... done
                      ------------------
                      INITIAL GUESS DONE (   2.1 sec)
                      ------------------
--------------
SCF ITERATIONS
--------------
ITER       Energy         Delta-E        Max-DP      RMS-DP      [F,P]     Damp
  0  -1828.1229836108   0.000000000000 0.18513777  0.00112165  0.1930845 0.7000
  1  -1827.9073626483   0.215620962424 0.15933252  0.00091362  0.1605391 0.7000
                               ***Turning on DIIS***
  2  -1827.9964147632  -0.089052114865 0.11481586  0.00062200  0.1170730 0.7000
  3  -1828.1851319551  -0.188717191844 0.26479116  0.00143288  0.0961422 0.0000
  4  -1828.3713389556  -0.186207000547 0.04504391  0.00033144  0.0310941 0.0000
  5  -1828.3748706377  -0.003531682050 0.02544870  0.00017650  0.0340593 0.0000
  6  -1828.3753417460  -0.000471108299 0.00773699  0.00009201  0.0299984 0.0000
  7  -1828.3766465877  -0.001304841704 0.00373562  0.00004762  0.0062668 0.0000
  8  -1828.3769039342  -0.000257346555 0.00393956  0.00004133  0.0040845 0.0000
  9  -1828.3770264305  -0.000122496313 0.00333640  0.00002866  0.0025234 0.0000
 10  -1828.3771055939  -0.000079163387 0.00204968  0.00002275  0.0013816 0.0000
 11  -1828.3771393071  -0.000033713191 0.00184338  0.00001808  0.0012707 0.0000
 12  -1828.3771556315  -0.000016324346 0.00148912  0.00001719  0.0005288 0.0000
 13  -1828.3771615400  -0.000005908570 0.00052353  0.00000578  0.0008418 0.0000
 14  -1828.3771625631  -0.000001023091 0.00022636  0.00000350  0.0002046 0.0000
 15  -1828.3771626476  -0.000000084457 0.00017851  0.00000260  0.0001107 0.0000
                 **** Energy Check signals convergence ****

               *****************************************************
               *                     SUCCESS                       *
               *           SCF CONVERGED AFTER  16 CYCLES          *
               *****************************************************


----------------
TOTAL SCF ENERGY
----------------

Total Energy       :        -1828.37716267 Eh          -49752.67197 eV

Components:
Nuclear Repulsion  :          774.18157656 Eh           21066.55170 eV
Electronic Energy  :        -2602.55873923 Eh          -70819.22367 eV
One Electron Energy:        -4059.84969795 Eh         -110474.12668 eV
Two Electron Energy:         1457.29095872 Eh           39654.90300 eV

Virial components:
Potential Energy   :        -3654.43639090 Eh          -99442.26974 eV
Kinetic Energy     :         1826.05922823 Eh           49689.59777 eV
Virial Ratio       :            2.00126936


DFT components:
N(Alpha)           :       48.000027823462 electrons
N(Beta)            :       48.000027823462 electrons
N(Total)           :       96.000055646924 electrons
E(X)               :      -35.299535892469 Eh       
E(C)               :       -2.001022797709 Eh       
E(XC)              :      -37.300558690178 Eh       
DFET-embed. en.    :        0.000000000000 Eh       

---------------
SCF CONVERGENCE
---------------

  Last Energy change         ...   -2.2634e-08  Tolerance :   1.0000e-06
  Last MAX-Density change    ...    3.6924e-04  Tolerance :   1.0000e-05
  Last RMS-Density change    ...    5.8950e-06  Tolerance :   1.0000e-06
  Last DIIS Error            ...    1.8546e-05  Tolerance :   1.0000e-06

             **** THE GBW FILE WAS UPDATED (FeCO5.gbw) ****
             **** DENSITY FILE WAS UPDATED (FeCO5.scfp) ****
             **** ENERGY FILE WAS UPDATED (FeCO5.en.tmp) ****
             **** THE GBW FILE WAS UPDATED (FeCO5.gbw) ****
             **** DENSITY FILE WAS UPDATED (FeCO5.scfp) ****
----------------
ORBITAL ENERGIES
----------------

  NO   OCC          E(Eh)            E(eV) 
   0   2.0000    -259.453099     -7060.0778 
   1   2.0000     -31.229856      -849.8076 
   2   2.0000     -26.857186      -730.8212 
   3   2.0000     -26.841436      -730.3926 
   4   2.0000     -26.841434      -730.3926 
   5   2.0000     -20.165867      -548.7411 
   6   2.0000     -20.165865      -548.7411 
   7   2.0000     -20.145431      -548.1850 
   8   2.0000     -20.145430      -548.1850 
   9   2.0000     -20.145421      -548.1848 
  10   2.0000     -11.004680      -299.4526 
  11   2.0000     -11.004679      -299.4525 
  12   2.0000     -10.989326      -299.0348 
  13   2.0000     -10.989325      -299.0347 
  14   2.0000     -10.989323      -299.0347 
  15   2.0000      -3.857894      -104.9786 
  16   2.0000      -2.520283       -68.5804 
  17   2.0000      -2.500812       -68.0506 
  18   2.0000      -2.500810       -68.0505 
  19   2.0000      -1.420828       -38.6627 
  20   2.0000      -1.420764       -38.6610 
  21   2.0000      -1.402656       -38.1682 
  22   2.0000      -1.402567       -38.1658 
  23   2.0000      -1.402554       -38.1654 
  24   2.0000      -0.760438       -20.6926 
  25   2.0000      -0.744013       -20.2456 
  26   2.0000      -0.728244       -19.8165 
  27   2.0000      -0.726761       -19.7762 
  28   2.0000      -0.726756       -19.7760 
  29   2.0000      -0.647096       -17.6084 
  30   2.0000      -0.617485       -16.8026 
  31   2.0000      -0.617484       -16.8026 
  32   2.0000      -0.614198       -16.7132 
  33   2.0000      -0.614198       -16.7132 
  34   2.0000      -0.606094       -16.4927 
  35   2.0000      -0.596866       -16.2416 
  36   2.0000      -0.596857       -16.2413 
  37   2.0000      -0.592150       -16.1132 
  38   2.0000      -0.589470       -16.0403 
  39   2.0000      -0.589462       -16.0401 
  40   2.0000      -0.553905       -15.0725 
  41   2.0000      -0.553902       -15.0724 
  42   2.0000      -0.551286       -15.0013 
  43   2.0000      -0.528860       -14.3910 
  44   2.0000      -0.383762       -10.4427 
  45   2.0000      -0.383760       -10.4426 
  46   2.0000      -0.285872        -7.7790 
  47   2.0000      -0.285861        -7.7787 
  48   0.0000       0.029820         0.8114 
  49   0.0000       0.044939         1.2228 
  50   0.0000       0.045937         1.2500 
  51   0.0000       0.045939         1.2501 
  52   0.0000       0.050992         1.3876 
  53   0.0000       0.050993         1.3876 
  54   0.0000       0.061620         1.6768 
  55   0.0000       0.061623         1.6769 
  56   0.0000       0.070524         1.9191 
  57   0.0000       0.075909         2.0656 
  58   0.0000       0.076562         2.0834 
  59   0.0000       0.076565         2.0834 
  60   0.0000       0.085354         2.3226 
  61   0.0000       0.085916         2.3379 
  62   0.0000       0.085922         2.3380 
  63   0.0000       0.097561         2.6548 
  64   0.0000       0.097563         2.6548 
  65   0.0000       0.101562         2.7636 
  66   0.0000       0.107082         2.9138 
  67   0.0000       0.117875         3.2075 
  68   0.0000       0.117878         3.2076 
  69   0.0000       0.124304         3.3825 
  70   0.0000       0.128752         3.5035 
  71   0.0000       0.128759         3.5037 
  72   0.0000       0.146593         3.9890 
  73   0.0000       0.149095         4.0571 
  74   0.0000       0.149102         4.0573 
  75   0.0000       0.161490         4.3944 
  76   0.0000       0.161496         4.3945 
  77   0.0000       0.171835         4.6759 
  78   0.0000       0.178174         4.8484 
  79   0.0000       0.178644         4.8611 
  80   0.0000       0.189308         5.1513 
  81   0.0000       0.189328         5.1519 
  82   0.0000       0.218842         5.9550 
  83   0.0000       0.226755         6.1703 
  84   0.0000       0.226761         6.1705 
  85   0.0000       0.251789         6.8515 
  86   0.0000       0.255179         6.9438 
  87   0.0000       0.255261         6.9460 
  88   0.0000       0.261728         7.1220 
  89   0.0000       0.282780         7.6948 
  90   0.0000       0.282821         7.6959 
  91   0.0000       0.286805         7.8044 
  92   0.0000       0.299722         8.1558 
  93   0.0000       0.299726         8.1560 
  94   0.0000       0.302111         8.2209 
  95   0.0000       0.302112         8.2209 
  96   0.0000       0.308899         8.4056 
  97   0.0000       0.321602         8.7512 
  98   0.0000       0.340412         9.2631 
  99   0.0000       0.347797         9.4640 
 100   0.0000       0.347838         9.4652 
 101   0.0000       0.353473         9.6185 
 102   0.0000       0.357526         9.7288 
 103   0.0000       0.363867         9.9013 
 104   0.0000       0.363869         9.9014 
 105   0.0000       0.378353        10.2955 
 106   0.0000       0.378354        10.2955 
 107   0.0000       0.401008        10.9120 
 108   0.0000       0.410735        11.1767 
 109   0.0000       0.410746        11.1770 
 110   0.0000       0.412314        11.2196 
 111   0.0000       0.412323        11.2199 
 112   0.0000       0.434803        11.8316 
 113   0.0000       0.440521        11.9872 
 114   0.0000       0.459797        12.5117 
 115   0.0000       0.459802        12.5119 
 116   0.0000       0.467309        12.7161 
 117   0.0000       0.517706        14.0875 
 118   0.0000       0.517711        14.0876 
 119   0.0000       0.526939        14.3387 
 120   0.0000       0.526948        14.3390 
 121   0.0000       0.532688        14.4952 
 122   0.0000       0.532741        14.4966 
 123   0.0000       0.534756        14.5515 
 124   0.0000       0.560283        15.2461 
 125   0.0000       0.571281        15.5453 
 126   0.0000       0.571347        15.5471 
 127   0.0000       0.574463        15.6319 
 128   0.0000       0.580275        15.7901 
 129   0.0000       0.592271        16.1165 
 130   0.0000       0.592287        16.1169 
 131   0.0000       0.602803        16.4031 
 132   0.0000       0.602863        16.4047 
 133   0.0000       0.606995        16.5172 
 134   0.0000       0.611910        16.6509 
 135   0.0000       0.612130        16.6569 
 136   0.0000       0.644629        17.5412 
 137   0.0000       0.646993        17.6056 
 138   0.0000       0.647399        17.6166 
 139   0.0000       0.649621        17.6771 
 140   0.0000       0.649648        17.6778 
 141   0.0000       0.659761        17.9530 
 142   0.0000       0.659763        17.9531 
 143   0.0000       0.682806        18.5801 
 144   0.0000       0.685199        18.6452 
 145   0.0000       0.685299        18.6479 
 146   0.0000       0.692822        18.8526 
 147   0.0000       0.692825        18.8527 
 148   0.0000       0.705811        19.2061 
 149   0.0000       0.710582        19.3359 
 150   0.0000       0.710659        19.3380 
 151   0.0000       0.712173        19.3792 
 152   0.0000       0.722871        19.6703 
 153   0.0000       0.722929        19.6719 
 154   0.0000       0.738225        20.0881 
 155   0.0000       0.749863        20.4048 
 156   0.0000       0.767055        20.8726 
 157   0.0000       0.767072        20.8731 
 158   0.0000       0.773809        21.0564 
 159   0.0000       0.773818        21.0567 
 160   0.0000       0.786091        21.3906 
 161   0.0000       0.792079        21.5536 
 162   0.0000       0.792084        21.5537 
 163   0.0000       0.816797        22.2262 
 164   0.0000       0.826716        22.4961 
 165   0.0000       0.826756        22.4972 
 166   0.0000       0.866944        23.5907 
 167   0.0000       0.898150        24.4399 
 168   0.0000       0.927340        25.2342 
 169   0.0000       0.930263        25.3137 
 170   0.0000       0.938717        25.5438 
 171   0.0000       0.938725        25.5440 
 172   0.0000       0.949548        25.8385 
 173   0.0000       0.958700        26.0876 
 174   0.0000       0.958818        26.0908 
 175   0.0000       0.962973        26.2038 
 176   0.0000       0.962978        26.2040 
 177   0.0000       0.966661        26.3042 
 178   0.0000       0.994485        27.0613 
 179   0.0000       0.994504        27.0618 
 180   0.0000       0.997161        27.1341 
 181   0.0000       1.011500        27.5243 
 182   0.0000       1.011510        27.5246 
 183   0.0000       1.017249        27.6808 
 184   0.0000       1.017254        27.6809 
 185   0.0000       1.039042        28.2738 
 186   0.0000       1.039052        28.2740 
 187   0.0000       1.039641        28.2901 
 188   0.0000       1.063977        28.9523 
 189   0.0000       1.068487        29.0750 
 190   0.0000       1.068494        29.0752 
 191   0.0000       1.104210        30.0471 
 192   0.0000       1.104297        30.0494 
 193   0.0000       1.113654        30.3041 
 194   0.0000       1.133645        30.8480 
 195   0.0000       1.169964        31.8363 
 196   0.0000       1.187546        32.3148 
 197   0.0000       1.187594        32.3161 
 198   0.0000       1.196632        32.5620 
 199   0.0000       1.197039        32.5731 
 200   0.0000       1.209849        32.9217 
 201   0.0000       1.210071        32.9277 
 202   0.0000       1.241216        33.7752 
 203   0.0000       1.322573        35.9890 
 204   0.0000       1.341917        36.5154 
 205   0.0000       1.341955        36.5165 
 206   0.0000       1.343020        36.5454 
 207   0.0000       1.343407        36.5560 
 208   0.0000       1.393188        37.9106 
 209   0.0000       1.394554        37.9477 
 210   0.0000       1.396987        38.0140 
 211   0.0000       1.397081        38.0165 
 212   0.0000       1.437231        39.1091 
 213   0.0000       1.453073        39.5401 
 214   0.0000       1.453080        39.5403 
 215   0.0000       1.624601        44.2076 
 216   0.0000       1.624616        44.2080 
 217   0.0000       1.642971        44.7075 
 218   0.0000       1.672391        45.5081 
 219   0.0000       1.672407        45.5085 
 220   0.0000       1.850077        50.3432 
 221   0.0000       1.850484        50.3542 
 222   0.0000       1.855294        50.4851 
 223   0.0000       1.875241        51.0279 
 224   0.0000       1.875250        51.0281 
 225   0.0000       1.882327        51.2207 
 226   0.0000       1.882376        51.2221 
 227   0.0000       1.895903        51.5901 
 228   0.0000       1.895905        51.5902 
 229   0.0000       1.909035        51.9475 
 230   0.0000       1.909047        51.9478 
 231   0.0000       1.912787        52.0496 
 232   0.0000       1.916893        52.1613 
 233   0.0000       1.922813        52.3224 
 234   0.0000       1.922825        52.3227 
 235   0.0000       1.941697        52.8363 
 236   0.0000       1.941715        52.8368 
 237   0.0000       1.947099        52.9833 
 238   0.0000       1.951550        53.1044 
 239   0.0000       1.951553        53.1045 
 240   0.0000       1.961572        53.3771 
 241   0.0000       1.961616        53.3783 
 242   0.0000       1.979638        53.8687 
 243   0.0000       1.990061        54.1523 
 244   0.0000       2.009787        54.6891 
 245   0.0000       2.011978        54.7487 
 246   0.0000       2.011996        54.7492 
 247   0.0000       2.073572        56.4248 
 248   0.0000       2.085336        56.7449 
 249   0.0000       2.085356        56.7454 
 250   0.0000       2.166816        58.9621 
 251   0.0000       2.180008        59.3210 
 252   0.0000       2.200583        59.8809 
 253   0.0000       2.280772        62.0629 
 254   0.0000       2.280783        62.0633 
 255   0.0000       2.283434        62.1354 
 256   0.0000       2.283442        62.1356 
 257   0.0000       2.390193        65.0405 
 258   0.0000       2.390199        65.0406 
 259   0.0000       2.431863        66.1744 
 260   0.0000       2.441769        66.4439 
 261   0.0000       2.441774        66.4440 
 262   0.0000       2.562170        69.7202 
 263   0.0000       2.585477        70.3544 
 264   0.0000       2.592931        70.5572 
 265   0.0000       2.597752        70.6884 
 266   0.0000       2.597756        70.6885 
 267   0.0000       2.673674        72.7544 
 268   0.0000       2.673735        72.7560 
 269   0.0000       2.749255        74.8110 
 270   0.0000       2.749258        74.8111 
 271   0.0000       2.793662        76.0194 
 272   0.0000       2.798176        76.1422 
 273   0.0000       2.807668        76.4005 
 274   0.0000       2.841538        77.3222 
 275   0.0000       2.857635        77.7602 
 276   0.0000       2.857650        77.7606 
 277   0.0000       2.858557        77.7853 
 278   0.0000       2.858568        77.7856 
 279   0.0000       2.870748        78.1170 
 280   0.0000       2.903492        79.0080 
 281   0.0000       2.909466        79.1706 
 282   0.0000       2.966556        80.7241 
 283   0.0000       3.019153        82.1553 
 284   0.0000       3.019751        82.1716 
 285   0.0000       3.019761        82.1719 
 286   0.0000       3.022701        82.2519 
 287   0.0000       3.022702        82.2519 
 288   0.0000       3.048221        82.9463 
 289   0.0000       3.048223        82.9464 
 290   0.0000       3.068248        83.4913 
 291   0.0000       3.099269        84.3354 
 292   0.0000       3.099278        84.3356 
 293   0.0000       3.130947        85.1974 
 294   0.0000       3.140925        85.4689 
 295   0.0000       3.141059        85.4726 
 296   0.0000       3.168310        86.2141 
 297   0.0000       3.195476        86.9533 
 298   0.0000       3.195486        86.9536 
 299   0.0000       3.239558        88.1529 
 300   0.0000       3.239570        88.1532 
 301   0.0000       3.243524        88.2608 
 302   0.0000       3.243526        88.2608 
 303   0.0000       3.249728        88.4296 
 304   0.0000       3.268813        88.9489 
 305   0.0000       3.268844        88.9498 
 306   0.0000       3.286950        89.4425 
 307   0.0000       3.310750        90.0901 
 308   0.0000       3.310757        90.0903 
 309   0.0000       3.333773        90.7166 
 310   0.0000       3.333810        90.7176 
 311   0.0000       3.353014        91.2402 
 312   0.0000       3.353019        91.2403 
 313   0.0000       3.394366        92.3654 
 314   0.0000       3.403252        92.6072 
 315   0.0000       3.403257        92.6073 
 316   0.0000       3.428537        93.2952 
 317   0.0000       3.432832        93.4121 
 318   0.0000       3.432835        93.4122 
 319   0.0000       3.458372        94.1071 
 320   0.0000       3.458417        94.1083 
 321   0.0000       3.459346        94.1336 
 322   0.0000       3.468417        94.3804 
 323   0.0000       3.488561        94.9286 
 324   0.0000       3.528962        96.0279 
 325   0.0000       3.528995        96.0288 
 326   0.0000       3.592767        97.7641 
 327   0.0000       3.592794        97.7649 
 328   0.0000       3.623154        98.5910 
 329   0.0000       3.634226        98.8923 
 330   0.0000       3.638030        98.9958 
 331   0.0000       3.638046        98.9963 
 332   0.0000       3.660540        99.6084 
 333   0.0000       3.690576       100.4257 
 334   0.0000       3.731943       101.5513 
 335   0.0000       3.731960       101.5518 
 336   0.0000       3.811041       103.7037 
 337   0.0000       3.811048       103.7039 
 338   0.0000       3.867303       105.2347 
 339   0.0000       3.888121       105.8011 
 340   0.0000       3.888124       105.8012 
 341   0.0000       3.951467       107.5249 
 342   0.0000       3.998979       108.8178 
 343   0.0000       3.998988       108.8180 
 344   0.0000       4.011453       109.1572 
 345   0.0000       4.035218       109.8039 
 346   0.0000       4.096131       111.4614 
 347   0.0000       4.096137       111.4616 
 348   0.0000       4.148843       112.8958 
 349   0.0000       4.160795       113.2210 
 350   0.0000       4.160805       113.2213 
 351   0.0000       4.268251       116.1450 
 352   0.0000       4.268270       116.1455 
 353   0.0000       4.415787       120.1597 
 354   0.0000       4.415788       120.1597 
 355   0.0000       4.436880       120.7336 
 356   0.0000       4.566768       124.2681 
 357   0.0000       4.616799       125.6295 
 358   0.0000       4.688688       127.5857 
 359   0.0000       4.688702       127.5861 
 360   0.0000       4.773954       129.9059 
 361   0.0000       4.886354       132.9645 
 362   0.0000       5.054705       137.5455 
 363   0.0000       5.058125       137.6386 
 364   0.0000       5.058143       137.6391 
 365   0.0000       5.183889       141.0608 
 366   0.0000       5.345304       145.4531 
 367   0.0000       5.345518       145.4590 
 368   0.0000       5.347003       145.4993 
 369   0.0000       5.349580       145.5695 
 370   0.0000       5.362775       145.9285 
 371   0.0000       5.363791       145.9562 
 372   0.0000       5.363798       145.9564 
 373   0.0000       5.363907       145.9593 
 374   0.0000       5.363911       145.9594 
 375   0.0000       5.366073       146.0183 
 376   0.0000       5.797307       157.7527 
 377   0.0000       5.797309       157.7528 
 378   0.0000       5.805011       157.9624 
 379   0.0000       5.814449       158.2192 
 380   0.0000       5.814452       158.2193 
 381   0.0000       5.825470       158.5191 
 382   0.0000       5.825479       158.5193 
 383   0.0000       5.837103       158.8356 
 384   0.0000       5.837124       158.8362 
 385   0.0000       5.875177       159.8717 
 386   0.0000       6.574562       178.9029 
 387   0.0000       6.574567       178.9031 
 388   0.0000       6.630624       180.4285 
 389   0.0000       6.636128       180.5782 
 390   0.0000       6.647202       180.8796 
 391   0.0000       6.647218       180.8800 
 392   0.0000       6.693725       182.1455 
 393   0.0000       6.693754       182.1463 
 394   0.0000       6.702033       182.3716 
 395   0.0000       6.702044       182.3719 
 396   0.0000       6.714594       182.7134 
 397   0.0000       6.714598       182.7135 
 398   0.0000       6.717536       182.7934 
 399   0.0000       6.717542       182.7936 
 400   0.0000       6.726828       183.0463 
 401   0.0000       6.741803       183.4538 
 402   0.0000       6.741807       183.4539 
 403   0.0000       6.757722       183.8870 
 404   0.0000       6.757728       183.8871 
 405   0.0000       6.758139       183.8983 
 406   0.0000       7.008109       190.7004 
 407   0.0000       7.032366       191.3604 
 408   0.0000       7.046438       191.7433 
 409   0.0000       7.063312       192.2025 
 410   0.0000       7.063341       192.2033 
 411   0.0000       7.125265       193.8883 
 412   0.0000       7.125271       193.8885 
 413   0.0000       7.140220       194.2953 
 414   0.0000       7.140228       194.2955 
 415   0.0000       7.145022       194.4259 
 416   0.0000       7.178611       195.3399 
 417   0.0000       7.178616       195.3401 
 418   0.0000       7.179232       195.3568 
 419   0.0000       7.179242       195.3571 
 420   0.0000       7.188184       195.6004 
 421   0.0000       7.531771       204.9499 
 422   0.0000       7.537150       205.0963 
 423   0.0000       7.557922       205.6615 
 424   0.0000       7.561088       205.7477 
 425   0.0000       7.561102       205.7480 
 426   0.0000       8.922170       242.7846 
 427   0.0000       8.963670       243.9139 
 428   0.0000       8.963693       243.9145 
 429   0.0000       8.984614       244.4838 
 430   0.0000       8.987320       244.5574 
 431   0.0000       8.987322       244.5575 
 432   0.0000       9.099279       247.6040 
 433   0.0000       9.099289       247.6042 
 434   0.0000       9.254931       251.8395 
 435   0.0000       9.810830       266.9663 
 436   0.0000       9.810850       266.9668 
 437   0.0000       9.946493       270.6578 
 438   0.0000      10.102600       274.9057 
 439   0.0000      10.102610       274.9060 
 440   0.0000      10.305529       280.4277 
 441   0.0000      10.324906       280.9550 
 442   0.0000      23.653630       643.6480 
 443   0.0000      23.693160       644.7237 
 444   0.0000      24.062008       654.7605 
 445   0.0000      24.178618       657.9336 
 446   0.0000      24.178657       657.9347 
 447   0.0000      45.100503      1227.2471 
 448   0.0000      45.219093      1230.4741 
 449   0.0000      45.220676      1230.5171 
 450   0.0000      45.224791      1230.6291 
 451   0.0000      45.224804      1230.6295 

                    ********************************
                    * MULLIKEN POPULATION ANALYSIS *
                    ********************************

-----------------------
MULLIKEN ATOMIC CHARGES
-----------------------
   0 Fe:    1.011236
   1 C :    0.002822
   2 O :   -0.282572
   3 C :    0.162401
   4 O :   -0.247344
   5 C :    0.162019
   6 O :   -0.247265
   7 C :    0.001908
   8 O :   -0.282545
   9 C :    0.001810
  10 O :   -0.282471
Sum of atomic charges:    0.0000000

--------------------------------
MULLIKEN REDUCED ORBITAL CHARGES
--------------------------------
  0 Fes       :     6.427005  s :     6.427005
      pz      :     3.932471  p :    11.866635
      px      :     3.966877
      py      :     3.967287
      dz2     :     0.348929  d :     6.689124
      dxz     :     1.735998
      dyz     :     1.736020
      dx2y2   :     1.434080
      dxy     :     1.434097
      f0      :     0.002327  f :     0.005926
      f+1     :     0.000782
      f-1     :     0.000782
      f+2     :     0.000106
      f-2     :     0.000106
      f+3     :     0.001619
      f-3     :     0.000203
      g0      :     0.000026  g :     0.000075
      g+1     :     0.000014
      g-1     :     0.000014
      g+2     :     0.000003
      g-2     :     0.000003
      g+3     :     0.000001
      g-3     :     0.000000
      g+4     :     0.000008
      g-4     :     0.000008
  1 C s       :     3.769388  s :     3.769388
      pz      :     0.543839  p :     2.039115
      px      :     0.897041
      py      :     0.598235
      dz2     :     0.007509  d :     0.170508
      dxz     :     0.068152
      dyz     :     0.002540
      dx2y2   :     0.011404
      dxy     :     0.080903
      f0      :     0.002292  f :     0.018166
      f+1     :     0.001780
      f-1     :     0.000331
      f+2     :     0.004260
      f-2     :     0.000074
      f+3     :     0.003181
      f-3     :     0.006248
  2 O s       :     3.900394  s :     3.900394
      pz      :     1.465104  p :     4.333398
      px      :     1.350947
      py      :     1.517347
      dz2     :     0.003040  d :     0.046709
      dxz     :     0.016620
      dyz     :    -0.000106
      dx2y2   :     0.011248
      dxy     :     0.015906
      f0      :     0.000288  f :     0.002071
      f+1     :     0.000169
      f-1     :     0.000041
      f+2     :     0.000522
      f-2     :     0.000000
      f+3     :     0.000310
      f-3     :     0.000740
  3 C s       :     3.531073  s :     3.531073
      pz      :     0.970152  p :     2.104884
      px      :     0.567354
      py      :     0.567378
      dz2     :     0.006883  d :     0.183074
      dxz     :     0.083106
      dyz     :     0.083103
      dx2y2   :     0.004992
      dxy     :     0.004991
      f0      :     0.004699  f :     0.018568
      f+1     :     0.006811
      f-1     :     0.006811
      f+2     :     0.000119
      f-2     :     0.000119
      f+3     :     0.000007
      f-3     :     0.000002
  4 O s       :     3.868912  s :     3.868912
      pz      :     1.360000  p :     4.325470
      px      :     1.482736
      py      :     1.482734
      dz2     :     0.018746  d :     0.050882
      dxz     :     0.016281
      dyz     :     0.016279
      dx2y2   :    -0.000212
      dxy     :    -0.000212
      f0      :     0.000472  f :     0.002080
      f+1     :     0.000804
      f-1     :     0.000804
      f+2     :     0.000000
      f-2     :     0.000000
      f+3     :    -0.000000
      f-3     :    -0.000000
  5 C s       :     3.531450  s :     3.531450
      pz      :     0.970144  p :     2.104865
      px      :     0.567348
      py      :     0.567374
      dz2     :     0.006909  d :     0.183098
      dxz     :     0.083107
      dyz     :     0.083101
      dx2y2   :     0.004991
      dxy     :     0.004990
      f0      :     0.004699  f :     0.018568
      f+1     :     0.006811
      f-1     :     0.006811
      f+2     :     0.000119
      f-2     :     0.000119
      f+3     :     0.000007
      f-3     :     0.000002
  6 O s       :     3.868839  s :     3.868839
      pz      :     1.359995  p :     4.325464
      px      :     1.482736
      py      :     1.482734
      dz2     :     0.018745  d :     0.050882
      dxz     :     0.016281
      dyz     :     0.016279
      dx2y2   :    -0.000212
      dxy     :    -0.000212
      f0      :     0.000472  f :     0.002080
      f+1     :     0.000804
      f-1     :     0.000804
      f+2     :     0.000000
      f-2     :     0.000000
      f+3     :    -0.000000
      f-3     :    -0.000000
  7 C s       :     3.769991  s :     3.769991
      pz      :     0.543853  p :     2.039430
      px      :     0.672981
      py      :     0.822596
      dz2     :     0.007508  d :     0.170504
      dxz     :     0.018930
      dyz     :     0.051728
      dx2y2   :     0.063539
      dxy     :     0.028799
      f0      :     0.002292  f :     0.018167
      f+1     :     0.000693
      f-1     :     0.001418
      f+2     :     0.001121
      f-2     :     0.003214
      f+3     :     0.003181
      f-3     :     0.006248
  8 O s       :     3.900420  s :     3.900420
      pz      :     1.465092  p :     4.333350
      px      :     1.475741
      py      :     1.392517
      dz2     :     0.003040  d :     0.046703
      dxz     :     0.004075
      dyz     :     0.012438
      dx2y2   :     0.014736
      dxy     :     0.012414
      f0      :     0.000288  f :     0.002072
      f+1     :     0.000073
      f-1     :     0.000137
      f+2     :     0.000131
      f-2     :     0.000392
      f+3     :     0.000310
      f-3     :     0.000740
  9 C s       :     3.769956  s :     3.769956
      pz      :     0.543852  p :     2.039576
      px      :     0.672987
      py      :     0.822738
      dz2     :     0.007502  d :     0.170491
      dxz     :     0.018930
      dyz     :     0.051728
      dx2y2   :     0.063537
      dxy     :     0.028793
      f0      :     0.002292  f :     0.018167
      f+1     :     0.000693
      f-1     :     0.001418
      f+2     :     0.001121
      f-2     :     0.003214
      f+3     :     0.003181
      f-3     :     0.006248
 10 O s       :     3.900341  s :     3.900341
      pz      :     1.465092  p :     4.333352
      px      :     1.475741
      py      :     1.392519
      dz2     :     0.003040  d :     0.046706
      dxz     :     0.004075
      dyz     :     0.012438
      dx2y2   :     0.014737
      dxy     :     0.012415
      f0      :     0.000288  f :     0.002072
      f+1     :     0.000073
      f-1     :     0.000137
      f+2     :     0.000131
      f-2     :     0.000392
      f+3     :     0.000310
      f-3     :     0.000740


                     *******************************
                     * LOEWDIN POPULATION ANALYSIS *
                     *******************************

----------------------
LOEWDIN ATOMIC CHARGES
----------------------
   0 Fe:   -0.503245
   1 C :   -0.047333
   2 O :    0.138634
   3 C :   -0.050358
   4 O :    0.164995
   5 C :   -0.050359
   6 O :    0.164995
   7 C :   -0.047326
   8 O :    0.138658
   9 C :   -0.047322
  10 O :    0.138659

-------------------------------
LOEWDIN REDUCED ORBITAL CHARGES
-------------------------------
  0 Fes       :     6.035331  s :     6.035331
      pz      :     4.331214  p :    13.050074
      px      :     4.359430
      py      :     4.359429
      dz2     :     0.743151  d :     7.395958
      dxz     :     1.731603
      dyz     :     1.731612
      dx2y2   :     1.594826
      dxy     :     1.594766
      f0      :     0.009032  f :     0.021703
      f+1     :     0.002452
      f-1     :     0.002452
      f+2     :     0.000150
      f-2     :     0.000150
      f+3     :     0.007077
      f-3     :     0.000392
      g0      :     0.000074  g :     0.000179
      g+1     :     0.000011
      g-1     :     0.000011
      g+2     :     0.000015
      g-2     :     0.000015
      g+3     :     0.000001
      g-3     :     0.000000
      g+4     :     0.000026
      g-4     :     0.000026
  1 C s       :     2.949415  s :     2.949415
      pz      :     0.539450  p :     2.221616
      px      :     1.096861
      py      :     0.585304
      dz2     :     0.073043  d :     0.781506
      dxz     :     0.237628
      dyz     :     0.006623
      dx2y2   :     0.202317
      dxy     :     0.261896
      f0      :     0.012128  f :     0.094795
      f+1     :     0.010441
      f-1     :     0.002025
      f+2     :     0.020559
      f-2     :     0.000295
      f+3     :     0.017976
      f-3     :     0.031372
  2 O s       :     3.377266  s :     3.377266
      pz      :     1.310318  p :     4.296349
      px      :     1.625899
      py      :     1.360133
      dz2     :     0.028779  d :     0.181005
      dxz     :     0.027508
      dyz     :     0.000007
      dx2y2   :     0.083443
      dxy     :     0.041268
      f0      :     0.000473  f :     0.006746
      f+1     :     0.001473
      f-1     :     0.000088
      f+2     :     0.000818
      f-2     :     0.000001
      f+3     :     0.002494
      f-3     :     0.001399
  3 C s       :     2.944555  s :     2.944555
      pz      :     1.117356  p :     2.219917
      px      :     0.551278
      py      :     0.551282
      dz2     :     0.247155  d :     0.790887
      dxz     :     0.254068
      dyz     :     0.254067
      dx2y2   :     0.017797
      dxy     :     0.017800
      f0      :     0.027108  f :     0.094999
      f+1     :     0.033591
      f-1     :     0.033591
      f+2     :     0.000340
      f-2     :     0.000340
      f+3     :     0.000028
      f-3     :     0.000003
  4 O s       :     3.372379  s :     3.372379
      pz      :     1.623767  p :     4.280451
      px      :     1.328341
      py      :     1.328343
      dz2     :     0.113316  d :     0.175519
      dxz     :     0.031076
      dyz     :     0.031077
      dx2y2   :     0.000025
      dxy     :     0.000025
      f0      :     0.003971  f :     0.006655
      f+1     :     0.001341
      f-1     :     0.001341
      f+2     :     0.000001
      f-2     :     0.000001
      f+3     :     0.000000
      f-3     :     0.000000
  5 C s       :     2.944557  s :     2.944557
      pz      :     1.117356  p :     2.219917
      px      :     0.551278
      py      :     0.551282
      dz2     :     0.247155  d :     0.790887
      dxz     :     0.254068
      dyz     :     0.254066
      dx2y2   :     0.017797
      dxy     :     0.017800
      f0      :     0.027108  f :     0.094999
      f+1     :     0.033591
      f-1     :     0.033591
      f+2     :     0.000340
      f-2     :     0.000340
      f+3     :     0.000028
      f-3     :     0.000003
  6 O s       :     3.372379  s :     3.372379
      pz      :     1.623767  p :     4.280451
      px      :     1.328341
      py      :     1.328343
      dz2     :     0.113316  d :     0.175519
      dxz     :     0.031076
      dyz     :     0.031077
      dx2y2   :     0.000025
      dxy     :     0.000025
      f0      :     0.003971  f :     0.006655
      f+1     :     0.001341
      f-1     :     0.001341
      f+2     :     0.000001
      f-2     :     0.000001
      f+3     :     0.000000
      f-3     :     0.000000
  7 C s       :     2.949418  s :     2.949418
      pz      :     0.539456  p :     2.221623
      px      :     0.713180
      py      :     0.968987
      dz2     :     0.073042  d :     0.781487
      dxz     :     0.064371
      dyz     :     0.179871
      dx2y2   :     0.246995
      dxy     :     0.217209
      f0      :     0.012129  f :     0.094798
      f+1     :     0.004129
      f-1     :     0.008337
      f+2     :     0.005362
      f-2     :     0.015493
      f+3     :     0.017976
      f-3     :     0.031373
  8 O s       :     3.377259  s :     3.377259
      pz      :     1.310309  p :     4.296332
      px      :     1.426560
      py      :     1.559463
      dz2     :     0.028779  d :     0.181004
      dxz     :     0.006882
      dyz     :     0.020634
      dx2y2   :     0.051812
      dxy     :     0.072898
      f0      :     0.000473  f :     0.006747
      f+1     :     0.000434
      f-1     :     0.001127
      f+2     :     0.000205
      f-2     :     0.000614
      f+3     :     0.002495
      f-3     :     0.001399
  9 C s       :     2.949421  s :     2.949421
      pz      :     0.539455  p :     2.221621
      px      :     0.713179
      py      :     0.968988
      dz2     :     0.073041  d :     0.781482
      dxz     :     0.064370
      dyz     :     0.179869
      dx2y2   :     0.246993
      dxy     :     0.217208
      f0      :     0.012129  f :     0.094798
      f+1     :     0.004129
      f-1     :     0.008337
      f+2     :     0.005362
      f-2     :     0.015493
      f+3     :     0.017976
      f-3     :     0.031373
 10 O s       :     3.377259  s :     3.377259
      pz      :     1.310309  p :     4.296332
      px      :     1.426559
      py      :     1.559463
      dz2     :     0.028779  d :     0.181004
      dxz     :     0.006882
      dyz     :     0.020633
      dx2y2   :     0.051811
      dxy     :     0.072898
      f0      :     0.000473  f :     0.006747
      f+1     :     0.000434
      f-1     :     0.001127
      f+2     :     0.000205
      f-2     :     0.000614
      f+3     :     0.002495
      f-3     :     0.001399


                      *****************************
                      * MAYER POPULATION ANALYSIS *
                      *****************************

  NA   - Mulliken gross atomic population
  ZA   - Total nuclear charge
  QA   - Mulliken gross atomic charge
  VA   - Mayer's total valence
  BVA  - Mayer's bonded valence
  FA   - Mayer's free valence

  ATOM       NA         ZA         QA         VA         BVA        FA
  0 Fe    24.9888    26.0000     1.0112     2.2578     2.2578    -0.0000
  1 C      5.9972     6.0000     0.0028     2.7544     2.7544    -0.0000
  2 O      8.2826     8.0000    -0.2826     2.2710     2.2710     0.0000
  3 C      5.8376     6.0000     0.1624     3.2212     3.2212    -0.0000
  4 O      8.2473     8.0000    -0.2473     2.3286     2.3286    -0.0000
  5 C      5.8380     6.0000     0.1620     3.2212     3.2212    -0.0000
  6 O      8.2473     8.0000    -0.2473     2.3287     2.3287    -0.0000
  7 C      5.9981     6.0000     0.0019     2.7545     2.7545    -0.0000
  8 O      8.2825     8.0000    -0.2825     2.2709     2.2709     0.0000
  9 C      5.9982     6.0000     0.0018     2.7542     2.7542     0.0000
 10 O      8.2825     8.0000    -0.2825     2.2710     2.2710     0.0000

  Mayer bond orders larger than 0.100000
B(  0-Fe,  1-C ) :   0.3462 B(  0-Fe,  3-C ) :   0.6421 B(  0-Fe,  5-C ) :   0.6418 
B(  0-Fe,  7-C ) :   0.3463 B(  0-Fe,  9-C ) :   0.3457 B(  1-C ,  2-O ) :   2.2778 
B(  3-C ,  4-O ) :   2.2874 B(  5-C ,  6-O ) :   2.2875 B(  7-C ,  8-O ) :   2.2777 
B(  9-C , 10-O ) :   2.2777 

-------
TIMINGS
-------

Total SCF time: 0 days 0 hours 1 min 56 sec 

Total time                  ....     116.975 sec
Sum of individual times     ....     115.871 sec  ( 99.1%)

Fock matrix formation       ....     109.871 sec  ( 93.9%)
  XC integration            ....      87.050 sec  ( 79.2% of F)
    Basis function eval.    ....       0.394 sec  (  0.5% of XC)
    Density eval.           ....       0.364 sec  (  0.4% of XC)
    XC-Functional eval.     ....       0.037 sec  (  0.0% of XC)
    XC-Potential eval.      ....       0.607 sec  (  0.7% of XC)
Diagonalization             ....       1.873 sec  (  1.6%)
Density matrix formation    ....       0.117 sec  (  0.1%)
Population analysis         ....       0.163 sec  (  0.1%)
Initial guess               ....       0.556 sec  (  0.5%)
Orbital Transformation      ....       0.000 sec  (  0.0%)
Orbital Orthonormalization  ....       0.000 sec  (  0.0%)
DIIS solution               ....       1.774 sec  (  1.5%)
Grid generation             ....       1.517 sec  (  1.3%)


           ************************************************************
           *        Program running with 28 parallel MPI-processes    *
           *              working on a common directory               *
           ************************************************************

------------------------------------------------------------------------------
                                ORCA  MP2 
------------------------------------------------------------------------------

Freezing NCore=30 chemical core electrons

-------------
RI-MP2 ENERGY
-------------
Dimension of the basis                    ...  452
Memory devoted to MP2                     ... 5000 MB   
Data format for buffers                   ... DOUBLE
Compression type for matrix containers    ... UNCOMPRESSED
Scaling for aa/bb pairs                   ...   4.000e-01
Scaling for ab pairs                      ...   4.700e-01
Overall scaling of the MP2 energy         ...   1.000e+00
Calculating two index integrals           ... done (    0.019 sec)
Cholesky decomposition of V**-1           ... done (    0.285 sec)

-----------------
RI-TRANSFORMATION (AUX index driven)
-----------------

Dimension of the orbital-basis         ... 452
Dimension of the aux-basis             ... 1145
Transformation of internal/external MOs...   15-  47 to   48- 451
Number Format for Storage              ... Double (8 Byte)
Integral mode                          ... Direct

First Phase: integral generation and transformation of MO indices
  Aux angular momentum 0               ... done (    0.026 sec)
  Aux angular momentum 1               ... done (    0.037 sec)
  Aux angular momentum 2               ... done (    0.066 sec)
  Aux angular momentum 3               ... done (    0.060 sec)
  Aux angular momentum 4               ... done (    0.046 sec)
  Aux angular momentum 5               ... done (    0.062 sec)
  Aux angular momentum 6               ... done (    0.097 sec)
Closing buffer VIA ( 0.11 GB; CompressionRatio= 1.00)
  Phase 1 completed in     1.556 sec
Second Phase: sorting and transformation of aux index

IA-Transformation
Memory available                       ... 4975 MB 
Max. # MO pairs treated in a batch     ... 2    
# of internal orbitals                 ... 33
# batches for internal orbitals        ... 1
Closing buffer IAV ( 0.01 GB; CompressionRatio= 1.00)
(ia|v) transformation done in     0.531 sec

  Phase 2 completed in     2.441 sec
RI-Integral transformation completed in     4.369 sec
Opening buffers                              ... done

Starting loop over batches of integrals:

Operator 0  - window                       ... ( 15- 47)x( 48-451)
Operator 0  - Memory available             ...  5000 MB
Operator 0  - Memory needed per MO         ...   3.5 MB
Operator 0  - Number of orbitals per batch ... 2
Operator 0  - Number of batches            ... 1

OPERATOR  0   PASS   0:  MOs    15 ...   16 +   17 ...   18 +   19 ...   20 +   21 ...   22
                            +   23 ...   24 +   25 ...   26 +   27 ...   28 +   29 ...   30
                            +   31 ...   32 +   33 ...   34 +   35 ...   36 +   37 ...   38
                            +   39 ...   40 +   41 ...   42 +   43 ...   44 +   45 ...   46
                            +   47 ...   47
  Reading integrals       ... ok
Time spent in pair loops =     0.055 sec
Deleting buffer (Ka|jb)[aa] ...done

-----------------------------------------------
 RI-MP2 CORRELATION ENERGY:     -1.488477369 Eh
-----------------------------------------------


-------
TIMINGS
-------

Total time                :    5.687 sec
Integral trafo            :    4.381 sec ( 77.0%)
I/O of integrals          :    0.006 sec (  0.1%)
K(i,j) Operators          :    0.038 sec (  0.7%)
T(i,j) pair energies      :    0.004 sec (  0.1%)
V-calculation             :    0.019 sec (  0.3%)
V**(-1/2)                 :    0.285 sec (  5.0%)
Gamma(ia|P)               :    0.000 sec (  0.0%)
Gamma-Trafo               :    0.000 sec (  0.0%)
D(virtual)                :    0.000 sec (  0.0%)
D(internal)               :    0.000 sec (  0.0%)
W(virtual)                :    0.000 sec (  0.0%)
W(internal)               :    0.000 sec (  0.0%)
L(virtual)                :    0.000 sec (  0.0%)
L(internal)               :    0.000 sec (  0.0%)
G(D)                      :    0.000 sec (  0.0%)
G(Z)                      :    0.000 sec (  0.0%)
Z-Vector Solution         :    0.000 sec (  0.0%)
Z-Vector Solution         :    0.000 sec (  0.0%)
3-Index Derivative 
+ Separable RIJ part      :    0.000 sec (  0.0%)
2-Index Derivative 
+ Separable RIJ part      :    0.000 sec (  0.0%)
Separable Gradient (X)    :    0.000 sec (  0.0%)


---------------------------------------
MP2 TOTAL ENERGY:    -1829.865640039 Eh
---------------------------------------


-------------------------------------------------------------------------------
                          DFT DISPERSION CORRECTION                            
                                                                               
                              DFTD3 V3.1  Rev 1                                
                          USING Becke-Johnson damping                          
-------------------------------------------------------------------------------
The DSD-BLYP/2013 functional is recognized
Active option DFTDOPT                   ...         4   

molecular C6(AA) [au] = 3441.509033 


            DFT-D V3
 parameters
 s6 scaling factor         :     0.5700 
 a1 scaling factor         :     0.0000 
 s8 scaling factor         :     0.0000 
 a2 scaling factor         :     5.4000 
 ad hoc parameters k1-k3   :    16.0000     1.3333    -4.0000 

 Edisp/kcal,au: -10.524801805519  -0.016772337499 
 E6   /kcal   : -10.524801806 
 E8   /kcal   :  -0.000000000 
 % E8         :   0.000000000 

-------------------------   ----------------
Dispersion correction           -0.016772337
-------------------------   ----------------


-------------------------   --------------------
FINAL SINGLE POINT ENERGY     -1829.882412376669
-------------------------   --------------------


                            ***************************************
                            *     ORCA property calculations      *
                            ***************************************


  WARNING: The energy has been calculated at the MP2 level but the densities
           used in the property calculations are still SCF densities
           MP2 response densities have not been calculated 
           use %mp2 Density relaxed end
           or  %mp2 Density unrelaxed end

                                    ---------------------
                                    Active property flags
                                    ---------------------
   (+) Dipole Moment


------------------------------------------------------------------------------
                       ORCA ELECTRIC PROPERTIES CALCULATION
------------------------------------------------------------------------------

Dipole Moment Calculation                       ... on
Quadrupole Moment Calculation                   ... off
Polarizability Calculation                      ... off
GBWName                                         ... FeCO5.gbw
Electron density file                           ... FeCO5.scfp
The origin for moment calculation is the CENTER OF MASS  = (-0.381213, -0.136152 -0.000000)

-------------
DIPOLE MOMENT
-------------
                                X             Y             Z
Electronic contribution:     -0.00016       0.00001       0.00000
Nuclear contribution   :      0.00000       0.00001       0.00000
                        -----------------------------------------
Total Dipole Moment    :     -0.00016       0.00001       0.00000
                        -----------------------------------------
Magnitude (a.u.)       :      0.00016
Magnitude (Debye)      :      0.00041



--------------------
Rotational spectrum 
--------------------
 
Rotational constants in cm-1:     0.029097     0.024940     0.024940 
Rotational constants in MHz :   872.297468   747.684312   747.683291 

 Dipole components along the rotational axes: 
x,y,z [a.u.] :     0.000000    -0.000151    -0.000058 
x,y,z [Debye]:     0.000000    -0.000384    -0.000149 

 

Timings for individual modules:

Sum of individual times         ...      126.839 sec (=   2.114 min)
GTO integral calculation        ...        2.744 sec (=   0.046 min)   2.2 %
SCF iterations                  ...      117.591 sec (=   1.960 min)  92.7 %
MP2 module                      ...        6.504 sec (=   0.108 min)   5.1 %
                             ****ORCA TERMINATED NORMALLY****
TOTAL RUN TIME: 0 days 0 hours 2 minutes 14 seconds 511 msec
