
                                 *****************
                                 * O   R   C   A *
                                 *****************

           --- An Ab Initio, DFT and Semiempirical electronic structure package ---

                  #######################################################
                  #                        -***-                        #
                  #          Department of theory and spectroscopy      #
                  #               Directorship: Frank Neese             #
                  #        Max Planck Institute fuer Kohlenforschung    #
                  #                Kaiser Wilhelm Platz 1               #
                  #                 D-45470 Muelheim/Ruhr               #
                  #                      Germany                        #
                  #                                                     #
                  #                  All rights reserved                #
                  #                        -***-                        #
                  #######################################################


                         Program Version 4.2.0 -  RELEASE  -


 With contributions from (in alphabetic order):
   Daniel Aravena         : Magnetic Suceptibility
   Michael Atanasov       : Ab Initio Ligand Field Theory (pilot matlab implementation)
   Alexander A. Auer      : GIAO ZORA, VPT2
   Ute Becker             : Parallelization
   Giovanni Bistoni       : ED, misc. LED, open-shell LED, HFLED
   Martin Brehm           : Molecular dynamics
   Dmytro Bykov           : SCF Hessian
   Vijay G. Chilkuri      : MRCI spin determinant printing, contributions to CSF-ICE
   Dipayan Datta          : RHF DLPNO-CCSD density
   Achintya Kumar Dutta   : EOM-CC, STEOM-CC
   Dmitry Ganyushin       : Spin-Orbit,Spin-Spin,Magnetic field MRCI
   Miquel Garcia          : C-PCM Hessian, Gaussian charge scheme
   Yang Guo               : DLPNO-NEVPT2, CIM, IAO-localization
   Andreas Hansen         : Spin unrestricted coupled pair/coupled cluster methods
   Benjamin Helmich-Paris : CASSCF linear response (MC-RPA)
   Lee Huntington         : MR-EOM, pCC
   Robert Izsak           : Overlap fitted RIJCOSX, COSX-SCS-MP3, EOM
   Christian Kollmar      : KDIIS, OOCD, Brueckner-CCSD(T), CCSD density
   Simone Kossmann        : Meta GGA functionals, TD-DFT gradient, OOMP2, MP2 Hessian
   Martin Krupicka        : AUTO-CI
   Lucas Lang             : DCDCAS
   Dagmar Lenk            : GEPOL surface, SMD
   Dimitrios Liakos       : Extrapolation schemes; Compound Job, initial MDCI parallelization
   Dimitrios Manganas     : Further ROCIS development; embedding schemes
   Dimitrios Pantazis     : SARC Basis sets
   Taras Petrenko         : DFT Hessian,TD-DFT gradient, ASA, ECA, R-Raman, ABS, FL, XAS/XES, NRVS
   Peter Pinski           : DLPNO-MP2, DLPNO-MP2 Gradient
   Christoph Reimann      : Effective Core Potentials
   Marius Retegan         : Local ZFS, SOC
   Christoph Riplinger    : Optimizer, TS searches, QM/MM, DLPNO-CCSD(T), (RO)-DLPNO pert. Triples
   Tobias Risthaus        : Range-separated hybrids, TD-DFT gradient, RPA, STAB
   Michael Roemelt        : Original ROCIS implementation
   Masaaki Saitow         : Open-shell DLPNO-CCSD energy and density
   Barbara Sandhoefer     : DKH picture change effects
   Avijit Sen             : IP-ROCIS
   Kantharuban Sivalingam : CASSCF convergence, NEVPT2, FIC-MRCI
   Bernardo de Souza      : ESD, SOC TD-DFT
   Georgi Stoychev        : AutoAux, RI-MP2 NMR
   Willem Van den Heuvel  : Paramagnetic NMR
   Boris Wezisla          : Elementary symmetry handling
   Frank Wennmohs         : Technical directorship


 We gratefully acknowledge several colleagues who have allowed us to
 interface, adapt or use parts of their codes:
   Stefan Grimme, W. Hujo, H. Kruse,             : VdW corrections, initial TS optimization,
                  C. Bannwarth                     DFT functionals, gCP, sTDA/sTD-DF
   Ed Valeev, F. Pavosevic, A. Kumar             : LibInt (2-el integral package), F12 methods
   Garnet Chan, S. Sharma, J. Yang, R. Olivares  : DMRG
   Ulf Ekstrom                                   : XCFun DFT Library
   Mihaly Kallay                                 : mrcc  (arbitrary order and MRCC methods)
   Andreas Klamt, Michael Diedenhofen            : otool_cosmo (COSMO solvation model)
   Jiri Pittner, Ondrej Demel                    : Mk-CCSD
   Frank Weinhold                                : gennbo (NPA and NBO analysis)
   Christopher J. Cramer and Donald G. Truhlar   : smd solvation model
   Lars Goerigk                                  : TD-DFT with DH, B97 family of functionals
   V. Asgeirsson, H. Jonsson                     : NEB implementation
   FAccTs GmbH                                   : IRC, NEB, NEB-TS, Multilevel, MM, QM/MM, CI optimization
   S Lehtola, MJT Oliveira, MAL Marques          : LibXC Library


 Your calculation uses the libint2 library for the computation of 2-el integrals
 For citations please refer to: http://libint.valeyev.net

 Your ORCA version has been built with support for libXC version: 4.2.3
 For citations please refer to: https://tddft.org/programs/libxc/

 This ORCA versions uses:
   CBLAS   interface :  Fast vector & matrix operations
   LAPACKE interface :  Fast linear algebra routines
   SCALAPACK package :  Parallel linear algebra routines


Your calculation utilizes the atom-pairwise dispersion correction
with the Becke-Johnson damping scheme (D3BJ)
Cite in your paper:
S.Grimme, S.Ehrlich, L.Goerigk, J Comput Chem, (2011), 32, 1456–1465 
S.Grimme, J.Antony, S.Ehrlich and H.Krieg, J.Chem.Phys., 132, (2010), 154104 
   

----- Orbital basis set information -----
Your calculation utilizes the basis: def2-TZVPPD
   F. Weigend and R. Ahlrichs, Phys. Chem. Chem. Phys. 7, 3297 (2005).
   D. Rappoport and F. Furche, J. Chem. Phys. 133 134105 (2010).

----- AuxC basis set information -----
Your calculation utilizes the auxiliary basis: def2-TZVPPD/C
   A. Hellweg, C. Hattig, S. Hofener and W. Klopper, Theor. Chem. Acc. 117, 587 (2007).

----- AuxJK basis set information -----
Your calculation utilizes the auxiliary basis: def2/JK
   H-Ba, Hf-Rn: F. Weigend, J. Comput. Chem. 29, 167 (2008).

================================================================================
                                        WARNINGS
                       Please study these warnings very carefully!
================================================================================


WARNING: your system is open-shell and RHF/RKS was chosen
  ===> : WILL SWITCH to UHF/UKS


WARNING: No MP2 level density has been requested!
         To caclulate MP2 level properties use
         %mp2 Density relaxed end
         or
         %mp2 Density unrelaxed end
         Otherwise for double-hybrid DFT only the energy is correct!

WARNING: There are different parametrizations of Gershom Martin's DSD-DFs
         for use with and without D3(BJ)!
         You are using the D3(BJ) parametrized version,
         consistent with the 2013 article (S. Kozuch and J. M. L. Martin, JCC 2013, 34, 2327)

WARNING: The frozen-core approximation is turned on by default for 
         the MP2 part of double-hybrid DFT.

INFO   : the flag for use of LIBINT has been found!

================================================================================
                                       INPUT FILE
================================================================================
NAME = Ni+.in
|  1> #
|  2> # Ni+ ri-DSD-BLYP/2013-D3BJ/Def2-TZVPPD
|  3> #
|  4> ! rijk ri-dsd-blyp/2013 d3bj def2-tzvppd def2/jk def2-tzvppd/c grid4 nofinalgrid
|  5> 
|  6> *xyz 1 2
|  7> Ni         0.00000        0.00000        0.00000
|  8> *
|  9> 
| 10> %maxcore 5000
| 11> 
| 12> %pal
| 13> nprocs = 28
| 14> end
| 15> 
| 16> 
| 17>                          ****END OF INPUT****
================================================================================

                       ****************************
                       * Single Point Calculation *
                       ****************************

---------------------------------
CARTESIAN COORDINATES (ANGSTROEM)
---------------------------------
  Ni     0.000000    0.000000    0.000000

----------------------------
CARTESIAN COORDINATES (A.U.)
----------------------------
  NO LB      ZA    FRAG     MASS         X           Y           Z
   0 Ni   28.0000    0    58.700    0.000000    0.000000    0.000000

--------------------------------
INTERNAL COORDINATES (ANGSTROEM)
--------------------------------
 Ni     0   0   0     0.000000000000     0.00000000     0.00000000

---------------------------
INTERNAL COORDINATES (A.U.)
---------------------------
 Ni     0   0   0     0.000000000000     0.00000000     0.00000000

---------------------
BASIS SET INFORMATION
---------------------
There are 1 groups of distinct atoms

 Group   1 Type Ni  : 17s13p7d2f1g contracted to 6s6p4d2f1g pattern {842111/631111/4111/11/1}

Atom   0Ni   basis set group =>   1
---------------------------------
AUXILIARY/C BASIS SET INFORMATION
---------------------------------
There are 1 groups of distinct atoms

 Group   1 Type Ni  : 10s10p9d7f5g3h1i contracted to 10s10p9d7f5g3h1i pattern {1111111111/1111111111/111111111/1111111/11111/111/1}

Atom   0Ni   basis set group =>   1
----------------------------------
AUXILIARY/JK BASIS SET INFORMATION
----------------------------------
There are 1 groups of distinct atoms

 Group   1 Type Ni  : 19s14p12d10f7g3h1i contracted to 16s13p11d9f5g3h1i pattern {4111111111111111/2111111111111/21111111111/211111111/31111/111/1}

Atom   0Ni   basis set group =>   1


           ************************************************************
           *        Program running with 28 parallel MPI-processes    *
           *              working on a common directory               *
           ************************************************************
------------------------------------------------------------------------------
                           ORCA GTO INTEGRAL CALCULATION
                           -- RI-GTO INTEGRALS CHOSEN --
------------------------------------------------------------------------------

                         BASIS SET STATISTICS AND STARTUP INFO

Gaussian basis set:
 # of primitive gaussian shells          ...   40
 # of primitive gaussian functions       ...  114
 # of contracted shells                  ...   19
 # of contracted basis functions         ...   67
 Highest angular momentum                ...    4
 Maximum contraction depth               ...    8
Auxiliary gaussian basis set:
 # of primitive gaussian shells          ...   66
 # of primitive gaussian functions       ...  300
 # of contracted shells                  ...   58
 # of contracted aux-basis functions     ...  264
 Highest angular momentum                ...    6
 Maximum contraction depth               ...    4
Ratio of auxiliary to basis functions    ...  3.94
Integral package used                  ... LIBINT
 One Electron integrals                  ... done
 Ordering auxiliary basis shells         ... done
 Integral threshhold             Thresh  ...  1.000e-10
 Primitive cut-off               TCut    ...  1.000e-11
 Pre-screening matrix                    ... done
 Shell pair data                         ... 
 Ordering of the shell pairs             ... done (   0.000 sec) 190 of 190 pairs
 Determination of significant pairs      ... done (   0.000 sec)
 Creation of shell pair data             ... done (   0.000 sec)
 Storage of shell pair data              ... done (   0.035 sec)
 Shell pair data done in (   0.035 sec)
 Computing two index integrals           ... done
 Cholesky decomposition of the V-matrix  ... done


Timings:
 Total evaluation time                   ...   0.351 sec (  0.006 min)
 One electron matrix time                ...   0.085 sec (  0.001 min) = 24.1%
 Schwartz matrix evaluation time         ...   0.128 sec (  0.002 min) = 36.5%
 Two index repulsion integral time       ...   0.037 sec (  0.001 min) = 10.4%
 Cholesky decomposition of V             ...   0.019 sec (  0.000 min) =  5.4%
 Three index repulsion integral time     ...   0.000 sec (  0.000 min) =  0.0%



           ************************************************************
           *        Program running with 28 parallel MPI-processes    *
           *              working on a common directory               *
           ************************************************************
-------------------------------------------------------------------------------
                                 ORCA SCF
-------------------------------------------------------------------------------

------------
SCF SETTINGS
------------
Hamiltonian:
 Density Functional     Method          .... DFT(GTOs)
 Exchange Functional    Exchange        .... B88
   X-Alpha parameter    XAlpha          ....  0.666667
   Becke's b parameter  XBeta           ....  0.004200
 Correlation Functional Correlation     .... LYP
 LDA part of GGA corr.  LDAOpt          .... VWN-5
 Gradients option       PostSCFGGA      .... off
 Hybrid DFT is turned on
   Fraction HF Exchange ScalHFX         ....  0.710000
   Scaling of DF-GGA-X  ScalDFX         ....  0.290000
   Scaling of DF-GGA-C  ScalDFC         ....  0.540000
   Scaling of DF-LDA-C  ScalLDAC        ....  0.540000
   Perturbative correction              ....  1.000000
   Density functional embedding theory  .... OFF
 RI-approximation to the Coulomb term is turned on
   Number of auxiliary basis functions  .... 264
   RI-JK (J+K treated both via RI)      .... on


General Settings:
 Integral files         IntName         .... Ni+
 Hartree-Fock type      HFTyp           .... UHF
 Total Charge           Charge          ....    1
 Multiplicity           Mult            ....    2
 Number of Electrons    NEL             ....   27
 Basis Dimension        Dim             ....   67
 Nuclear Repulsion      ENuc            ....      0.0000000000 Eh

Convergence Acceleration:
 DIIS                   CNVDIIS         .... on
   Start iteration      DIISMaxIt       ....    12
   Startup error        DIISStart       ....  0.200000
   # of expansion vecs  DIISMaxEq       ....     5
   Bias factor          DIISBfac        ....   1.050
   Max. coefficient     DIISMaxC        ....  10.000
 Newton-Raphson         CNVNR           .... off
 SOSCF                  CNVSOSCF        .... off
 Level Shifting         CNVShift        .... on
   Level shift para.    LevelShift      ....    0.2500
   Turn off err/grad.   ShiftErr        ....    0.0010
 Zerner damping         CNVZerner       .... off
 Static damping         CNVDamp         .... on
   Fraction old density DampFac         ....    0.7000
   Max. Damping (<1)    DampMax         ....    0.9800
   Min. Damping (>=0)   DampMin         ....    0.0000
   Turn off err/grad.   DampErr         ....    0.1000
 Fernandez-Rico         CNVRico         .... off

SCF Procedure:
 Maximum # iterations   MaxIter         ....   125
 SCF integral mode      SCFMode         .... Direct
   Integral package                     .... LIBINT
 Reset frequency        DirectResetFreq ....    20
 Integral Threshold     Thresh          ....  1.000e-10 Eh
 Primitive CutOff       TCut            ....  1.000e-11 Eh

Convergence Tolerance:
 Convergence Check Mode ConvCheckMode   .... Total+1el-Energy
 Convergence forced     ConvForced      .... 0
 Energy Change          TolE            ....  1.000e-06 Eh
 1-El. energy change                    ....  1.000e-03 Eh
 DIIS Error             TolErr          ....  1.000e-06


Diagonalization of the overlap matrix:
Smallest eigenvalue                        ... 4.474e-02
Time for diagonalization                   ...    0.002 sec
Threshold for overlap eigenvalues          ... 1.000e-08
Number of eigenvalues below threshold      ... 0
Time for construction of square roots      ...    0.040 sec
Total time needed                          ...    0.041 sec

-------------------
DFT GRID GENERATION
-------------------

General Integration Accuracy     IntAcc      ...  4.670
Radial Grid Type                 RadialGrid  ... Gauss-Chebyshev
Angular Grid (max. acc.)         AngularGrid ... Lebedev-302
Angular grid pruning method      GridPruning ... 3 (G Style)
Weight generation scheme         WeightScheme... Becke
Basis function cutoff            BFCut       ...    1.0000e-10
Integration weight cutoff        WCut        ...    1.0000e-14
Grids for H and He will be reduced by one unit

# of grid points (after initial pruning)     ...   9664 (   0.0 sec)
# of grid points (after weights+screening)   ...   9664 (   0.0 sec)
Grid point division into batches done        ...    0.1 sec
Reduced shell lists constructed in    0.1 sec

Total number of grid points                  ...     9664
Total number of batches                      ...      152
Average number of points per batch           ...       63
Average number of grid points per atom       ...     9664
Average number of shells per batch           ...     3.43 (18.05%)
Average number of basis functions per batch  ...    10.29 (15.35%)
Average number of large shells per batch     ...     1.71 (50.00%)
Average number of large basis fcns per batch ...     3.43 (33.33%)
Average number of aux-shells per batch       ...     3.43 ( 5.91%)
Average number of aux functions per batch    ...    10.29 ( 3.90%)
Maximum spatial batch extension              ...  20.42, 20.42, 20.42 au
Average spatial batch extension              ...   0.71,  0.70,  0.68 au

Time for grid setup =    0.601 sec

------------------------------
INITIAL GUESS: MODEL POTENTIAL
------------------------------
Loading Hartree-Fock densities                     ... done
Calculating cut-offs                               ... done
Setting up the integral package                    ... done
Initializing the effective Hamiltonian             ... done
Starting the Coulomb interaction                   ... done (   0.0 sec)
Reading the grid                                   ... done
Mapping shells                                     ... done
Starting the XC term evaluation                    ... done (   0.0 sec)
  promolecular density results
     # of electrons  =     28.000038162
     EX              =    -61.794391803
     EC              =     -0.184787462
     EX+EC           =    -61.979179265
Transforming the Hamiltonian                       ... done (   0.0 sec)
Diagonalizing the Hamiltonian                      ... done (   0.0 sec)
Back transforming the eigenvectors                 ... done (   0.0 sec)
Now organizing SCF variables                       ... done
                      ------------------
                      INITIAL GUESS DONE (   0.9 sec)
                      ------------------
--------------
SCF ITERATIONS
--------------
ITER       Energy         Delta-E        Max-DP      RMS-DP      [F,P]     Damp
  0  -1507.2987904840   0.000000000000 0.00841528  0.00040164  0.1420117 0.7000
  1  -1507.2331250525   0.065665431449 0.00599021  0.00029681  0.0967753 0.7000
                               ***Turning on DIIS***
  2  -1507.2676528895  -0.034527836947 0.01068533  0.00056123  0.0388525 0.0000
  3  -1507.3196518966  -0.051999007158 0.00514456  0.00023252  0.0287817 0.0000
  4  -1507.3199619980  -0.000310101348 0.00197034  0.00009600  0.0192979 0.0000
  5  -1507.3202568386  -0.000294840635 0.00042740  0.00001640  0.0014533 0.0000
  6  -1507.3202632971  -0.000006458495 0.00054571  0.00001372  0.0003882 0.0000
  7  -1507.3202655946  -0.000002297438 0.00045298  0.00000979  0.0002158 0.0000
                 **** Energy Check signals convergence ****

               *****************************************************
               *                     SUCCESS                       *
               *           SCF CONVERGED AFTER   8 CYCLES          *
               *****************************************************


----------------
TOTAL SCF ENERGY
----------------

Total Energy       :        -1507.32026625 Eh          -41016.26967 eV

Components:
Nuclear Repulsion  :            0.00000000 Eh               0.00000 eV
Electronic Energy  :        -1507.32026625 Eh          -41016.26967 eV
One Electron Energy:        -2090.03674792 Eh          -56872.79127 eV
Two Electron Energy:          582.71648167 Eh           15856.52160 eV

Virial components:
Potential Energy   :        -3013.38972243 Eh          -81998.50307 eV
Kinetic Energy     :         1506.06945618 Eh           40982.23340 eV
Virial Ratio       :            2.00083051


DFT components:
N(Alpha)           :       14.000000568561 electrons
N(Beta)            :       13.000000568602 electrons
N(Total)           :       27.000001137163 electrons
E(X)               :      -17.960436130660 Eh       
E(C)               :       -0.694662989497 Eh       
E(XC)              :      -18.655099120157 Eh       
DFET-embed. en.    :        0.000000000000 Eh       

---------------
SCF CONVERGENCE
---------------

  Last Energy change         ...   -6.5555e-07  Tolerance :   1.0000e-06
  Last MAX-Density change    ...    2.8948e-04  Tolerance :   1.0000e-05
  Last RMS-Density change    ...    5.9464e-06  Tolerance :   1.0000e-06
  Last DIIS Error            ...    1.0183e-04  Tolerance :   1.0000e-06

             **** THE GBW FILE WAS UPDATED (Ni+.gbw) ****
             **** DENSITY FILE WAS UPDATED (Ni+.scfp) ****
             **** ENERGY FILE WAS UPDATED (Ni+.en.tmp) ****
----------------------
UHF SPIN CONTAMINATION
----------------------

Warning: in a DFT calculation there is little theoretical justification to 
         calculate <S**2> as in Hartree-Fock theory. We will do it anyways
         but you should keep in mind that the values have only limited relevance

Expectation value of <S**2>     :     0.751748
Ideal value S*(S+1) for S=0.5   :     0.750000
Deviation                       :     0.001748

             **** THE GBW FILE WAS UPDATED (Ni+.gbw) ****
             **** DENSITY FILE WAS UPDATED (Ni+.scfp) ****
----------------
ORBITAL ENERGIES
----------------
                 SPIN UP ORBITALS
  NO   OCC          E(Eh)            E(eV) 
   0   1.0000    -303.704194     -8264.2113 
   1   1.0000     -37.284643     -1014.5667 
   2   1.0000     -32.479996      -883.8256 
   3   1.0000     -32.451957      -883.0626 
   4   1.0000     -32.439162      -882.7145 
   5   1.0000      -4.753634      -129.3530 
   6   1.0000      -3.283810       -89.3570 
   7   1.0000      -3.224894       -87.7538 
   8   1.0000      -3.198399       -87.0329 
   9   1.0000      -0.773919       -21.0594 
  10   1.0000      -0.719873       -19.5887 
  11   1.0000      -0.709739       -19.3130 
  12   1.0000      -0.687145       -18.6982 
  13   1.0000      -0.686081       -18.6692 
  14   0.0000      -0.285145        -7.7592 
  15   0.0000      -0.156288        -4.2528 
  16   0.0000      -0.152045        -4.1374 
  17   0.0000      -0.149982        -4.0812 
  18   0.0000       0.006882         0.1873 
  19   0.0000       0.011084         0.3016 
  20   0.0000       0.013107         0.3567 
  21   0.0000       0.014673         0.3993 
  22   0.0000       0.067990         1.8501 
  23   0.0000       0.070188         1.9099 
  24   0.0000       0.071566         1.9474 
  25   0.0000       0.074473         2.0265 
  26   0.0000       0.074650         2.0313 
  27   0.0000       0.531635        14.4665 
  28   0.0000       0.544256        14.8100 
  29   0.0000       0.550092        14.9688 
  30   0.0000       0.927346        25.2344 
  31   0.0000       0.944628        25.7046 
  32   0.0000       0.949066        25.8254 
  33   0.0000       0.958913        26.0934 
  34   0.0000       0.959376        26.1059 
  35   0.0000       2.894293        78.7577 
  36   0.0000       2.934175        79.8429 
  37   0.0000       2.946935        80.1902 
  38   0.0000       2.964776        80.6757 
  39   0.0000       2.967320        80.7449 
  40   0.0000       2.977376        81.0185 
  41   0.0000       2.998370        81.5898 
  42   0.0000       2.999336        81.6161 
  43   0.0000       3.008078        81.8540 
  44   0.0000       3.008348        81.8613 
  45   0.0000       3.062906        83.3459 
  46   0.0000       4.187929       113.9593 
  47   0.0000       4.225212       114.9739 
  48   0.0000       4.233434       115.1976 
  49   0.0000       4.251639       115.6930 
  50   0.0000       4.252608       115.7193 
  51   0.0000      11.602423       315.7180 
  52   0.0000      11.608810       315.8918 
  53   0.0000      11.620329       316.2052 
  54   0.0000      11.642059       316.7965 
  55   0.0000      11.643380       316.8325 
  56   0.0000      11.672814       317.6334 
  57   0.0000      11.672851       317.6344 
  58   0.0000      11.676339       317.7293 
  59   0.0000      11.676346       317.7295 
  60   0.0000      12.000923       326.5617 
  61   0.0000      12.017505       327.0129 
  62   0.0000      12.030628       327.3700 
  63   0.0000      12.074452       328.5626 
  64   0.0000      12.075269       328.5848 
  65   0.0000      12.087274       328.9114 
  66   0.0000      12.087370       328.9140 

                 SPIN DOWN ORBITALS
  NO   OCC          E(Eh)            E(eV) 
   0   1.0000    -303.703562     -8264.1941 
   1   1.0000     -37.253063     -1013.7074 
   2   1.0000     -32.430576      -882.4808 
   3   1.0000     -32.426851      -882.3795 
   4   1.0000     -32.425000      -882.3291 
   5   1.0000      -4.672895      -127.1559 
   6   1.0000      -3.156395       -85.8899 
   7   1.0000      -3.145976       -85.6064 
   8   1.0000      -3.121808       -84.9487 
   9   1.0000      -0.698630       -19.0107 
  10   1.0000      -0.681348       -18.5404 
  11   1.0000      -0.643438       -17.5088 
  12   1.0000      -0.641800       -17.4643 
  13   0.0000      -0.280742        -7.6394 
  14   0.0000      -0.152788        -4.1576 
  15   0.0000      -0.150710        -4.1010 
  16   0.0000      -0.149838        -4.0773 
  17   0.0000      -0.100979        -2.7478 
  18   0.0000       0.010609         0.2887 
  19   0.0000       0.012651         0.3443 
  20   0.0000       0.013440         0.3657 
  21   0.0000       0.019233         0.5233 
  22   0.0000       0.070843         1.9277 
  23   0.0000       0.072695         1.9781 
  24   0.0000       0.077045         2.0965 
  25   0.0000       0.077247         2.1020 
  26   0.0000       0.119585         3.2541 
  27   0.0000       0.544869        14.8266 
  28   0.0000       0.550576        14.9819 
  29   0.0000       0.552882        15.0447 
  30   0.0000       0.949294        25.8316 
  31   0.0000       0.955377        25.9971 
  32   0.0000       0.969395        26.3786 
  33   0.0000       0.969949        26.3937 
  34   0.0000       1.022411        27.8212 
  35   0.0000       2.942929        80.0812 
  36   0.0000       2.954484        80.3956 
  37   0.0000       2.960632        80.5629 
  38   0.0000       3.000378        81.6444 
  39   0.0000       3.001387        81.6719 
  40   0.0000       3.022322        82.2416 
  41   0.0000       3.023544        82.2748 
  42   0.0000       3.030495        82.4640 
  43   0.0000       3.031742        82.4979 
  44   0.0000       3.043003        82.8043 
  45   0.0000       3.092470        84.1504 
  46   0.0000       4.238024       115.3225 
  47   0.0000       4.249137       115.6249 
  48   0.0000       4.273752       116.2947 
  49   0.0000       4.274849       116.3245 
  50   0.0000       4.321373       117.5905 
  51   0.0000      11.673133       317.6421 
  52   0.0000      11.674439       317.6776 
  53   0.0000      11.674585       317.6816 
  54   0.0000      11.677268       317.7546 
  55   0.0000      11.678501       317.7882 
  56   0.0000      11.683313       317.9191 
  57   0.0000      11.684769       317.9587 
  58   0.0000      11.701880       318.4243 
  59   0.0000      11.701882       318.4244 
  60   0.0000      12.084981       328.8490 
  61   0.0000      12.086131       328.8804 
  62   0.0000      12.113759       329.6321 
  63   0.0000      12.119554       329.7898 
  64   0.0000      12.127069       329.9943 
  65   0.0000      12.127842       330.0154 
  66   0.0000      12.142355       330.4103 

                    ********************************
                    * MULLIKEN POPULATION ANALYSIS *
                    ********************************

--------------------------------------------
MULLIKEN ATOMIC CHARGES AND SPIN POPULATIONS
--------------------------------------------
   0 Ni:    1.000000    1.000000
Sum of atomic charges         :    1.0000000
Sum of atomic spin populations:    1.0000000

-----------------------------------------------------
MULLIKEN REDUCED ORBITAL CHARGES AND SPIN POPULATIONS
-----------------------------------------------------
CHARGE
  0 Nis       :     6.000040  s :     6.000040
      pz      :     3.999896  p :    11.999692
      px      :     3.999916
      py      :     3.999881
      dz2     :     1.941812  d :     8.999897
      dxz     :     1.775233
      dyz     :     1.593976
      dx2y2   :     1.959743
      dxy     :     1.729134
      f0      :     0.000048  f :     0.000308
      f+1     :     0.000023
      f-1     :     0.000044
      f+2     :     0.000025
      f-2     :     0.000089
      f+3     :     0.000049
      f-3     :     0.000029
      g0      :     0.000004  g :     0.000063
      g+1     :     0.000004
      g-1     :     0.000008
      g+2     :     0.000004
      g-2     :     0.000007
      g+3     :     0.000012
      g-3     :     0.000007
      g+4     :     0.000009
      g-4     :     0.000009

SPIN
  0 Nis       :     0.000043  s :     0.000043
      pz      :     0.000063  p :     0.000133
      px      :     0.000032
      py      :     0.000038
      dz2     :     0.058170  d :     0.999934
      dxz     :     0.224755
      dyz     :     0.406001
      dx2y2   :     0.040232
      dxy     :     0.270777
      f0      :    -0.000026  f :    -0.000133
      f+1     :    -0.000020
      f-1     :    -0.000040
      f+2     :    -0.000014
      f-2     :    -0.000023
      f+3     :    -0.000002
      f-3     :    -0.000008
      g0      :     0.000001  g :     0.000023
      g+1     :    -0.000000
      g-1     :    -0.000000
      g+2     :    -0.000002
      g-2     :     0.000004
      g+3     :     0.000007
      g-3     :     0.000006
      g+4     :     0.000004
      g-4     :     0.000004


                     *******************************
                     * LOEWDIN POPULATION ANALYSIS *
                     *******************************

-------------------------------------------
LOEWDIN ATOMIC CHARGES AND SPIN POPULATIONS
-------------------------------------------
   0 Ni:    1.000000    1.000000

----------------------------------------------------
LOEWDIN REDUCED ORBITAL CHARGES AND SPIN POPULATIONS
----------------------------------------------------
CHARGE
  0 Nis       :     6.000040  s :     6.000040
      pz      :     3.999896  p :    11.999692
      px      :     3.999916
      py      :     3.999881
      dz2     :     1.941812  d :     8.999897
      dxz     :     1.775233
      dyz     :     1.593976
      dx2y2   :     1.959743
      dxy     :     1.729134
      f0      :     0.000048  f :     0.000308
      f+1     :     0.000023
      f-1     :     0.000044
      f+2     :     0.000025
      f-2     :     0.000089
      f+3     :     0.000049
      f-3     :     0.000029
      g0      :     0.000004  g :     0.000063
      g+1     :     0.000004
      g-1     :     0.000008
      g+2     :     0.000004
      g-2     :     0.000007
      g+3     :     0.000012
      g-3     :     0.000007
      g+4     :     0.000009
      g-4     :     0.000009

SPIN
  0 Nis       :     0.000043  s :     0.000043
      pz      :     0.000063  p :     0.000133
      px      :     0.000032
      py      :     0.000038
      dz2     :     0.058170  d :     0.999934
      dxz     :     0.224755
      dyz     :     0.406001
      dx2y2   :     0.040232
      dxy     :     0.270777
      f0      :    -0.000026  f :    -0.000133
      f+1     :    -0.000020
      f-1     :    -0.000040
      f+2     :    -0.000014
      f-2     :    -0.000023
      f+3     :    -0.000002
      f-3     :    -0.000008
      g0      :     0.000001  g :     0.000023
      g+1     :    -0.000000
      g-1     :    -0.000000
      g+2     :    -0.000002
      g-2     :     0.000004
      g+3     :     0.000007
      g-3     :     0.000006
      g+4     :     0.000004
      g-4     :     0.000004


                      *****************************
                      * MAYER POPULATION ANALYSIS *
                      *****************************

  NA   - Mulliken gross atomic population
  ZA   - Total nuclear charge
  QA   - Mulliken gross atomic charge
  VA   - Mayer's total valence
  BVA  - Mayer's bonded valence
  FA   - Mayer's free valence

  ATOM       NA         ZA         QA         VA         BVA        FA
  0 Ni    27.0000    28.0000     1.0000     1.0035     0.0000     1.0035

  Mayer bond orders larger than 0.100000


-------
TIMINGS
-------

Total SCF time: 0 days 0 hours 0 min 50 sec 

Total time                  ....      50.591 sec
Sum of individual times     ....      49.896 sec  ( 98.6%)

Fock matrix formation       ....      47.787 sec  ( 94.5%)
  XC integration            ....      44.903 sec  ( 94.0% of F)
    Basis function eval.    ....       0.006 sec  (  0.0% of XC)
    Density eval.           ....       0.009 sec  (  0.0% of XC)
    XC-Functional eval.     ....       0.012 sec  (  0.0% of XC)
    XC-Potential eval.      ....       0.009 sec  (  0.0% of XC)
Diagonalization             ....       0.681 sec  (  1.3%)
Density matrix formation    ....       0.004 sec  (  0.0%)
Population analysis         ....       0.515 sec  (  1.0%)
Initial guess               ....       0.250 sec  (  0.5%)
Orbital Transformation      ....       0.000 sec  (  0.0%)
Orbital Orthonormalization  ....       0.000 sec  (  0.0%)
DIIS solution               ....       0.059 sec  (  0.1%)
Grid generation             ....       0.601 sec  (  1.2%)


           ************************************************************
           *        Program running with 28 parallel MPI-processes    *
           *              working on a common directory               *
           ************************************************************

------------------------------------------------------------------------------
                                ORCA  MP2 
------------------------------------------------------------------------------

Freezing NCore=10 chemical core electrons

-------------
RI-MP2 ENERGY
-------------
Dimension of the basis                    ...   67
Memory devoted to MP2                     ... 5000 MB   
Data format for buffers                   ... DOUBLE
Compression type for matrix containers    ... UNCOMPRESSED
Scaling for aa/bb pairs                   ...   4.000e-01
Scaling for ab pairs                      ...   4.700e-01
Overall scaling of the MP2 energy         ...   1.000e+00
Calculating two index integrals           ... done (    0.006 sec)
Cholesky decomposition of V**-1           ... done (    0.056 sec)

-----------------
RI-TRANSFORMATION (AUX index driven)
-----------------

Dimension of the orbital-basis         ... 67
Dimension of the aux-basis             ... 225
Transformation of internal/external MOs...    5-  13 to   14-  66
Number Format for Storage              ... Double (8 Byte)
Integral mode                          ... Direct

First Phase: integral generation and transformation of MO indices
  Aux angular momentum 0               ... done (    0.000 sec)
  Aux angular momentum 1               ... done (    0.002 sec)
  Aux angular momentum 2               ... done (    0.001 sec)
  Aux angular momentum 3               ... done (    0.001 sec)
  Aux angular momentum 4               ... done (    0.001 sec)
  Aux angular momentum 5               ... done (    0.002 sec)
  Aux angular momentum 6               ... done (    0.003 sec)
Closing buffer VIA ( 0.00 GB; CompressionRatio= 1.00)
  Phase 1 completed in     2.391 sec
Second Phase: sorting and transformation of aux index

IA-Transformation
Memory available                       ... 5000 MB 
Max. # MO pairs treated in a batch     ... 1    
# of internal orbitals                 ... 9
# batches for internal orbitals        ... 1
Closing buffer IAV ( 0.00 GB; CompressionRatio= 1.00)
(ia|v) transformation done in     0.051 sec

  Phase 2 completed in     2.532 sec
RI-Integral transformation completed in     5.464 sec

-----------------
RI-TRANSFORMATION (AUX index driven)
-----------------

Dimension of the orbital-basis         ... 67
Dimension of the aux-basis             ... 225
Transformation of internal/external MOs...    5-  12 to   13-  66
Number Format for Storage              ... Double (8 Byte)
Integral mode                          ... Direct

First Phase: integral generation and transformation of MO indices
  Aux angular momentum 0               ... done (    0.000 sec)
  Aux angular momentum 1               ... done (    0.002 sec)
  Aux angular momentum 2               ... done (    0.001 sec)
  Aux angular momentum 3               ... done (    0.001 sec)
  Aux angular momentum 4               ... done (    0.001 sec)
  Aux angular momentum 5               ... done (    0.002 sec)
  Aux angular momentum 6               ... done (    0.003 sec)
Closing buffer VIA ( 0.00 GB; CompressionRatio= 1.00)
  Phase 1 completed in     2.320 sec
Second Phase: sorting and transformation of aux index

IA-Transformation
Memory available                       ... 5000 MB 
Max. # MO pairs treated in a batch     ... 1    
# of internal orbitals                 ... 8
# batches for internal orbitals        ... 1
Closing buffer IAV ( 0.00 GB; CompressionRatio= 1.00)
(ia|v) transformation done in     0.636 sec

  Phase 2 completed in     2.400 sec
RI-Integral transformation completed in     5.351 sec
Opening buffers                              ... done

Starting loop over batches of integrals:

Operator 0  - window                       ... (  5- 13)x( 14- 66)
Operator 0  - Memory available             ...  5000 MB
Operator 0  - Memory needed per MO         ...   0.1 MB
Operator 0  - Number of orbitals per batch ... 1
Operator 0  - Number of batches            ... 1

OPERATOR  0   PASS   0:  MOs     5 ...    5 +    6 ...    6 +    7 ...    7 +    8 ...    8
                            +    9 ...    9 +   10 ...   10 +   11 ...   11 +   12 ...   12
                            +   13 ...   13
  Reading integrals       ... ok

Operator 1  - window                       ... (  5- 12)x( 13- 66)
Operator 1  - Memory available             ...  5000 MB
Operator 1  - Memory needed per MO         ...   0.1 MB
Operator 1  - Number of orbitals per batch ... 1
Operator 1  - Number of batches            ... 1

OPERATOR  1   PASS   0:  MOs     5 ...    5 +    6 ...    6 +    7 ...    7 +    8 ...    8
                            +    9 ...    9 +   10 ...   10 +   11 ...   11 +   12 ...   12
  Reading integrals       ... ok
Time spent in pair loops =     0.384 sec
Deleting buffer (Ka|jb)[aa] ...done
Deleting buffer (Ka|jb)[ab] ...done
Deleting buffer (Ka|jb)[ba] ...done
Deleting buffer (Ka|jb)[bb] ...done

Spin-scaled correlation energy components}
 E2 and T2 for alpha/alpha pairs :     -0.058881004 Eh      0.000000000
 E2 and T2 for beta/beta   pairs :     -0.045546609 Eh      0.000000000
 E2 and T2 for alpha/beta  pairs :     -0.244388013 Eh      0.000000000


-----------------------------------------------
 RI-MP2 CORRELATION ENERGY:     -0.348815627 Eh
-----------------------------------------------


-------
TIMINGS
-------

Total time                :   12.241 sec
Integral trafo            :   10.837 sec ( 88.5%)
I/O of integrals          :    0.000 sec (  0.0%)
K(i,j) Operators          :    0.001 sec (  0.0%)
T(i,j) pair energies      :    0.000 sec (  0.0%)
V-calculation             :    0.006 sec (  0.1%)
V**(-1/2)                 :    0.056 sec (  0.5%)
Gamma(ia|P)               :    0.000 sec (  0.0%)
Gamma-Trafo               :    0.000 sec (  0.0%)
D(virtual)                :    0.000 sec (  0.0%)
D(internal)               :    0.000 sec (  0.0%)
W(virtual)                :    0.000 sec (  0.0%)
W(internal)               :    0.000 sec (  0.0%)
L(virtual)                :    0.000 sec (  0.0%)
L(internal)               :    0.000 sec (  0.0%)
G(D)                      :    0.000 sec (  0.0%)
G(Z)                      :    0.000 sec (  0.0%)
Z-Vector Solution         :    0.000 sec (  0.0%)
Z-Vector Solution         :    0.000 sec (  0.0%)
3-Index Derivative 
+ Separable RIJ part      :    0.000 sec (  0.0%)
2-Index Derivative 
+ Separable RIJ part      :    0.000 sec (  0.0%)
Separable Gradient (X)    :    0.000 sec (  0.0%)


---------------------------------------
MP2 TOTAL ENERGY:    -1507.669081877 Eh
---------------------------------------


-------------------------------------------------------------------------------
                          DFT DISPERSION CORRECTION                            
                                                                               
                              DFTD3 V3.1  Rev 1                                
                          USING Becke-Johnson damping                          
-------------------------------------------------------------------------------
The DSD-BLYP/2013 functional is recognized
Active option DFTDOPT                   ...         4   

molecular C6(AA) [au] = 574.742232 


            DFT-D V3
 parameters
 s6 scaling factor         :     0.5700 
 a1 scaling factor         :     0.0000 
 s8 scaling factor         :     0.0000 
 a2 scaling factor         :     5.4000 
 ad hoc parameters k1-k3   :    16.0000     1.3333    -4.0000 

 Edisp/kcal,au: -0.000000000000  -0.000000000000 
 E6   /kcal   :  -0.000000000 
 E8   /kcal   :  -0.000000000 
 % E8         :          -nan 

-------------------------   ----------------
Dispersion correction            0.000000000
-------------------------   ----------------


-------------------------   --------------------
FINAL SINGLE POINT ENERGY     -1507.669081876636
-------------------------   --------------------


                            ***************************************
                            *     ORCA property calculations      *
                            ***************************************


  WARNING: The energy has been calculated at the MP2 level but the densities
           used in the property calculations are still SCF densities
           MP2 response densities have not been calculated 
           use %mp2 Density relaxed end
           or  %mp2 Density unrelaxed end

                                    ---------------------
                                    Active property flags
                                    ---------------------
   (+) Dipole Moment


------------------------------------------------------------------------------
                       ORCA ELECTRIC PROPERTIES CALCULATION
------------------------------------------------------------------------------

Dipole Moment Calculation                       ... on
Quadrupole Moment Calculation                   ... off
Polarizability Calculation                      ... off
GBWName                                         ... Ni+.gbw
Electron density file                           ... Ni+.scfp
The origin for moment calculation is the CENTER OF MASS  = ( 0.000000,  0.000000  0.000000)

-------------
DIPOLE MOMENT
-------------
                                X             Y             Z
Electronic contribution:      0.00000       0.00000       0.00000
Nuclear contribution   :      0.00000       0.00000       0.00000
                        -----------------------------------------
Total Dipole Moment    :      0.00000       0.00000       0.00000
                        -----------------------------------------
Magnitude (a.u.)       :      0.00000
Magnitude (Debye)      :      0.00000



--------------------
Rotational spectrum 
--------------------
 
Rotational constants in cm-1:     0.000000     0.000000     0.000000 
Rotational constants in MHz :     0.000000     0.000000     0.000000 

 Dipole components along the rotational axes: 
x,y,z [a.u.] :     0.000000     0.000000     0.000000 
x,y,z [Debye]:     0.000000     0.000000     0.000000 

 

Timings for individual modules:

Sum of individual times         ...       65.843 sec (=   1.097 min)
GTO integral calculation        ...        1.321 sec (=   0.022 min)   2.0 %
SCF iterations                  ...       51.378 sec (=   0.856 min)  78.0 %
MP2 module                      ...       13.144 sec (=   0.219 min)  20.0 %
                             ****ORCA TERMINATED NORMALLY****
TOTAL RUN TIME: 0 days 0 hours 1 minutes 20 seconds 353 msec
