
                                 *****************
                                 * O   R   C   A *
                                 *****************

           --- An Ab Initio, DFT and Semiempirical electronic structure package ---

                  #######################################################
                  #                        -***-                        #
                  #          Department of theory and spectroscopy      #
                  #               Directorship: Frank Neese             #
                  #        Max Planck Institute fuer Kohlenforschung    #
                  #                Kaiser Wilhelm Platz 1               #
                  #                 D-45470 Muelheim/Ruhr               #
                  #                      Germany                        #
                  #                                                     #
                  #                  All rights reserved                #
                  #                        -***-                        #
                  #######################################################


                         Program Version 4.2.0 -  RELEASE  -


 With contributions from (in alphabetic order):
   Daniel Aravena         : Magnetic Suceptibility
   Michael Atanasov       : Ab Initio Ligand Field Theory (pilot matlab implementation)
   Alexander A. Auer      : GIAO ZORA, VPT2
   Ute Becker             : Parallelization
   Giovanni Bistoni       : ED, misc. LED, open-shell LED, HFLED
   Martin Brehm           : Molecular dynamics
   Dmytro Bykov           : SCF Hessian
   Vijay G. Chilkuri      : MRCI spin determinant printing, contributions to CSF-ICE
   Dipayan Datta          : RHF DLPNO-CCSD density
   Achintya Kumar Dutta   : EOM-CC, STEOM-CC
   Dmitry Ganyushin       : Spin-Orbit,Spin-Spin,Magnetic field MRCI
   Miquel Garcia          : C-PCM Hessian, Gaussian charge scheme
   Yang Guo               : DLPNO-NEVPT2, CIM, IAO-localization
   Andreas Hansen         : Spin unrestricted coupled pair/coupled cluster methods
   Benjamin Helmich-Paris : CASSCF linear response (MC-RPA)
   Lee Huntington         : MR-EOM, pCC
   Robert Izsak           : Overlap fitted RIJCOSX, COSX-SCS-MP3, EOM
   Christian Kollmar      : KDIIS, OOCD, Brueckner-CCSD(T), CCSD density
   Simone Kossmann        : Meta GGA functionals, TD-DFT gradient, OOMP2, MP2 Hessian
   Martin Krupicka        : AUTO-CI
   Lucas Lang             : DCDCAS
   Dagmar Lenk            : GEPOL surface, SMD
   Dimitrios Liakos       : Extrapolation schemes; Compound Job, initial MDCI parallelization
   Dimitrios Manganas     : Further ROCIS development; embedding schemes
   Dimitrios Pantazis     : SARC Basis sets
   Taras Petrenko         : DFT Hessian,TD-DFT gradient, ASA, ECA, R-Raman, ABS, FL, XAS/XES, NRVS
   Peter Pinski           : DLPNO-MP2, DLPNO-MP2 Gradient
   Christoph Reimann      : Effective Core Potentials
   Marius Retegan         : Local ZFS, SOC
   Christoph Riplinger    : Optimizer, TS searches, QM/MM, DLPNO-CCSD(T), (RO)-DLPNO pert. Triples
   Tobias Risthaus        : Range-separated hybrids, TD-DFT gradient, RPA, STAB
   Michael Roemelt        : Original ROCIS implementation
   Masaaki Saitow         : Open-shell DLPNO-CCSD energy and density
   Barbara Sandhoefer     : DKH picture change effects
   Avijit Sen             : IP-ROCIS
   Kantharuban Sivalingam : CASSCF convergence, NEVPT2, FIC-MRCI
   Bernardo de Souza      : ESD, SOC TD-DFT
   Georgi Stoychev        : AutoAux, RI-MP2 NMR
   Willem Van den Heuvel  : Paramagnetic NMR
   Boris Wezisla          : Elementary symmetry handling
   Frank Wennmohs         : Technical directorship


 We gratefully acknowledge several colleagues who have allowed us to
 interface, adapt or use parts of their codes:
   Stefan Grimme, W. Hujo, H. Kruse,             : VdW corrections, initial TS optimization,
                  C. Bannwarth                     DFT functionals, gCP, sTDA/sTD-DF
   Ed Valeev, F. Pavosevic, A. Kumar             : LibInt (2-el integral package), F12 methods
   Garnet Chan, S. Sharma, J. Yang, R. Olivares  : DMRG
   Ulf Ekstrom                                   : XCFun DFT Library
   Mihaly Kallay                                 : mrcc  (arbitrary order and MRCC methods)
   Andreas Klamt, Michael Diedenhofen            : otool_cosmo (COSMO solvation model)
   Jiri Pittner, Ondrej Demel                    : Mk-CCSD
   Frank Weinhold                                : gennbo (NPA and NBO analysis)
   Christopher J. Cramer and Donald G. Truhlar   : smd solvation model
   Lars Goerigk                                  : TD-DFT with DH, B97 family of functionals
   V. Asgeirsson, H. Jonsson                     : NEB implementation
   FAccTs GmbH                                   : IRC, NEB, NEB-TS, Multilevel, MM, QM/MM, CI optimization
   S Lehtola, MJT Oliveira, MAL Marques          : LibXC Library


 Your calculation uses the libint2 library for the computation of 2-el integrals
 For citations please refer to: http://libint.valeyev.net

 Your ORCA version has been built with support for libXC version: 4.2.3
 For citations please refer to: https://tddft.org/programs/libxc/

 This ORCA versions uses:
   CBLAS   interface :  Fast vector & matrix operations
   LAPACKE interface :  Fast linear algebra routines
   SCALAPACK package :  Parallel linear algebra routines


Your calculation utilizes the atom-pairwise dispersion correction
with the Becke-Johnson damping scheme (D3BJ)
Cite in your paper:
S.Grimme, S.Ehrlich, L.Goerigk, J Comput Chem, (2011), 32, 1456–1465 
S.Grimme, J.Antony, S.Ehrlich and H.Krieg, J.Chem.Phys., 132, (2010), 154104 
   

----- Orbital basis set information -----
Your calculation utilizes the basis: def2-TZVPPD
   F. Weigend and R. Ahlrichs, Phys. Chem. Chem. Phys. 7, 3297 (2005).
   D. Rappoport and F. Furche, J. Chem. Phys. 133 134105 (2010).

----- AuxC basis set information -----
Your calculation utilizes the auxiliary basis: def2-TZVPPD/C
   A. Hellweg, C. Hattig, S. Hofener and W. Klopper, Theor. Chem. Acc. 117, 587 (2007).

----- AuxJK basis set information -----
Your calculation utilizes the auxiliary basis: def2/JK
   H-Ba, Hf-Rn: F. Weigend, J. Comput. Chem. 29, 167 (2008).

================================================================================
                                        WARNINGS
                       Please study these warnings very carefully!
================================================================================


WARNING: your system is open-shell and RHF/RKS was chosen
  ===> : WILL SWITCH to UHF/UKS


WARNING: No MP2 level density has been requested!
         To caclulate MP2 level properties use
         %mp2 Density relaxed end
         or
         %mp2 Density unrelaxed end
         Otherwise for double-hybrid DFT only the energy is correct!

WARNING: There are different parametrizations of Gershom Martin's DSD-DFs
         for use with and without D3(BJ)!
         You are using the D3(BJ) parametrized version,
         consistent with the 2013 article (S. Kozuch and J. M. L. Martin, JCC 2013, 34, 2327)

WARNING: The frozen-core approximation is turned on by default for 
         the MP2 part of double-hybrid DFT.

INFO   : the flag for use of LIBINT has been found!

================================================================================
                                       INPUT FILE
================================================================================
NAME = o2.in
|  1> #
|  2> # o2 ri-DSD-BLYP/2013-D3BJ/Def2-TZVPPD
|  3> #
|  4> ! rijk ri-dsd-blyp/2013 d3bj def2-tzvppd def2/jk def2-tzvppd/c grid4 nofinalgrid
|  5> 
|  6> *xyz 0 3
|  7> O          0.00000        0.00000        0.00000
|  8> O          0.00000        0.00000        1.20780
|  9> *
| 10> 
| 11> %maxcore 5000
| 12> 
| 13> %pal
| 14> nprocs = 28
| 15> end
| 16> 
| 17> 
| 18>                          ****END OF INPUT****
================================================================================

                       ****************************
                       * Single Point Calculation *
                       ****************************

---------------------------------
CARTESIAN COORDINATES (ANGSTROEM)
---------------------------------
  O      0.000000    0.000000    0.000000
  O      0.000000    0.000000    1.207800

----------------------------
CARTESIAN COORDINATES (A.U.)
----------------------------
  NO LB      ZA    FRAG     MASS         X           Y           Z
   0 O     8.0000    0    15.999    0.000000    0.000000    0.000000
   1 O     8.0000    0    15.999    0.000000    0.000000    2.282411

--------------------------------
INTERNAL COORDINATES (ANGSTROEM)
--------------------------------
 O      0   0   0     0.000000000000     0.00000000     0.00000000
 O      1   0   0     1.207800000000     0.00000000     0.00000000

---------------------------
INTERNAL COORDINATES (A.U.)
---------------------------
 O      0   0   0     0.000000000000     0.00000000     0.00000000
 O      1   0   0     2.282411224550     0.00000000     0.00000000

---------------------
BASIS SET INFORMATION
---------------------
There are 1 groups of distinct atoms

 Group   1 Type O   : 12s7p3d1f contracted to 6s4p3d1f pattern {621111/4111/111/1}

Atom   0O    basis set group =>   1
Atom   1O    basis set group =>   1
---------------------------------
AUXILIARY/C BASIS SET INFORMATION
---------------------------------
There are 1 groups of distinct atoms

 Group   1 Type O   : 9s7p6d4f1g contracted to 9s7p5d4f1g pattern {111111111/1111111/21111/1111/1}

Atom   0O    basis set group =>   1
Atom   1O    basis set group =>   1
----------------------------------
AUXILIARY/JK BASIS SET INFORMATION
----------------------------------
There are 1 groups of distinct atoms

 Group   1 Type O   : 14s10p6d2f1g contracted to 10s8p4d2f1g pattern {5111111111/31111111/3111/11/1}

Atom   0O    basis set group =>   1
Atom   1O    basis set group =>   1


           ************************************************************
           *        Program running with 28 parallel MPI-processes    *
           *              working on a common directory               *
           ************************************************************
------------------------------------------------------------------------------
                           ORCA GTO INTEGRAL CALCULATION
                           -- RI-GTO INTEGRALS CHOSEN --
------------------------------------------------------------------------------

                         BASIS SET STATISTICS AND STARTUP INFO

Gaussian basis set:
 # of primitive gaussian shells          ...   46
 # of primitive gaussian functions       ...  110
 # of contracted shells                  ...   28
 # of contracted basis functions         ...   80
 Highest angular momentum                ...    3
 Maximum contraction depth               ...    6
Auxiliary gaussian basis set:
 # of primitive gaussian shells          ...   66
 # of primitive gaussian functions       ...  194
 # of contracted shells                  ...   50
 # of contracted aux-basis functions     ...  154
 Highest angular momentum                ...    4
 Maximum contraction depth               ...    5
Ratio of auxiliary to basis functions    ...  1.93
Integral package used                  ... LIBINT
 One Electron integrals                  ... done
 Ordering auxiliary basis shells         ... done
 Integral threshhold             Thresh  ...  1.000e-10
 Primitive cut-off               TCut    ...  1.000e-11
 Pre-screening matrix                    ... done
 Shell pair data                         ... 
 Ordering of the shell pairs             ... done (   0.000 sec) 405 of 406 pairs
 Determination of significant pairs      ... done (   0.000 sec)
 Creation of shell pair data             ... done (   0.000 sec)
 Storage of shell pair data              ... done (   0.047 sec)
 Shell pair data done in (   0.047 sec)
 Computing two index integrals           ... done
 Cholesky decomposition of the V-matrix  ... done


Timings:
 Total evaluation time                   ...   0.305 sec (  0.005 min)
 One electron matrix time                ...   0.053 sec (  0.001 min) = 17.4%
 Schwartz matrix evaluation time         ...   0.105 sec (  0.002 min) = 34.6%
 Two index repulsion integral time       ...   0.014 sec (  0.000 min) =  4.6%
 Cholesky decomposition of V             ...   0.027 sec (  0.000 min) =  8.8%
 Three index repulsion integral time     ...   0.000 sec (  0.000 min) =  0.0%



           ************************************************************
           *        Program running with 28 parallel MPI-processes    *
           *              working on a common directory               *
           ************************************************************
-------------------------------------------------------------------------------
                                 ORCA SCF
-------------------------------------------------------------------------------

------------
SCF SETTINGS
------------
Hamiltonian:
 Density Functional     Method          .... DFT(GTOs)
 Exchange Functional    Exchange        .... B88
   X-Alpha parameter    XAlpha          ....  0.666667
   Becke's b parameter  XBeta           ....  0.004200
 Correlation Functional Correlation     .... LYP
 LDA part of GGA corr.  LDAOpt          .... VWN-5
 Gradients option       PostSCFGGA      .... off
 Hybrid DFT is turned on
   Fraction HF Exchange ScalHFX         ....  0.710000
   Scaling of DF-GGA-X  ScalDFX         ....  0.290000
   Scaling of DF-GGA-C  ScalDFC         ....  0.540000
   Scaling of DF-LDA-C  ScalLDAC        ....  0.540000
   Perturbative correction              ....  1.000000
   Density functional embedding theory  .... OFF
 RI-approximation to the Coulomb term is turned on
   Number of auxiliary basis functions  .... 154
   RI-JK (J+K treated both via RI)      .... on


General Settings:
 Integral files         IntName         .... o2
 Hartree-Fock type      HFTyp           .... UHF
 Total Charge           Charge          ....    0
 Multiplicity           Mult            ....    3
 Number of Electrons    NEL             ....   16
 Basis Dimension        Dim             ....   80
 Nuclear Repulsion      ENuc            ....     28.0405210558 Eh

Convergence Acceleration:
 DIIS                   CNVDIIS         .... on
   Start iteration      DIISMaxIt       ....    12
   Startup error        DIISStart       ....  0.200000
   # of expansion vecs  DIISMaxEq       ....     5
   Bias factor          DIISBfac        ....   1.050
   Max. coefficient     DIISMaxC        ....  10.000
 Newton-Raphson         CNVNR           .... off
 SOSCF                  CNVSOSCF        .... off
 Level Shifting         CNVShift        .... on
   Level shift para.    LevelShift      ....    0.2500
   Turn off err/grad.   ShiftErr        ....    0.0010
 Zerner damping         CNVZerner       .... off
 Static damping         CNVDamp         .... on
   Fraction old density DampFac         ....    0.7000
   Max. Damping (<1)    DampMax         ....    0.9800
   Min. Damping (>=0)   DampMin         ....    0.0000
   Turn off err/grad.   DampErr         ....    0.1000
 Fernandez-Rico         CNVRico         .... off

SCF Procedure:
 Maximum # iterations   MaxIter         ....   125
 SCF integral mode      SCFMode         .... Direct
   Integral package                     .... LIBINT
 Reset frequency        DirectResetFreq ....    20
 Integral Threshold     Thresh          ....  1.000e-10 Eh
 Primitive CutOff       TCut            ....  1.000e-11 Eh

Convergence Tolerance:
 Convergence Check Mode ConvCheckMode   .... Total+1el-Energy
 Convergence forced     ConvForced      .... 0
 Energy Change          TolE            ....  1.000e-06 Eh
 1-El. energy change                    ....  1.000e-03 Eh
 DIIS Error             TolErr          ....  1.000e-06


Diagonalization of the overlap matrix:
Smallest eigenvalue                        ... 2.492e-04
Time for diagonalization                   ...    0.002 sec
Threshold for overlap eigenvalues          ... 1.000e-08
Number of eigenvalues below threshold      ... 0
Time for construction of square roots      ...    0.014 sec
Total time needed                          ...    0.016 sec

-------------------
DFT GRID GENERATION
-------------------

General Integration Accuracy     IntAcc      ...  4.670
Radial Grid Type                 RadialGrid  ... Gauss-Chebyshev
Angular Grid (max. acc.)         AngularGrid ... Lebedev-302
Angular grid pruning method      GridPruning ... 3 (G Style)
Weight generation scheme         WeightScheme... Becke
Basis function cutoff            BFCut       ...    1.0000e-10
Integration weight cutoff        WCut        ...    1.0000e-14
Grids for H and He will be reduced by one unit

# of grid points (after initial pruning)     ...  12424 (   0.0 sec)
# of grid points (after weights+screening)   ...  12396 (   0.0 sec)
nearest neighbour list constructed           ...    0.0 sec
Grid point re-assignment to atoms done       ...    0.0 sec
Grid point division into batches done        ...    0.1 sec
Reduced shell lists constructed in    0.1 sec

Total number of grid points                  ...    12396
Total number of batches                      ...      194
Average number of points per batch           ...       63
Average number of grid points per atom       ...     6198
Average number of shells per batch           ...     8.00 (28.57%)
Average number of basis functions per batch  ...    21.25 (26.56%)
Average number of large shells per batch     ...     4.62 (57.81%)
Average number of large basis fcns per batch ...    13.12 (61.76%)
Average number of aux-shells per batch       ...     8.00 (16.00%)
Average number of aux functions per batch    ...    21.25 (13.80%)
Maximum spatial batch extension              ...  19.94, 19.94, 11.06 au
Average spatial batch extension              ...   0.55,  0.50,  0.34 au

Time for grid setup =    0.485 sec

------------------------------
INITIAL GUESS: MODEL POTENTIAL
------------------------------
Loading Hartree-Fock densities                     ... done
Calculating cut-offs                               ... done
Setting up the integral package                    ... done
Initializing the effective Hamiltonian             ... done
Starting the Coulomb interaction                   ... done (   0.0 sec)
Reading the grid                                   ... done
Mapping shells                                     ... done
Starting the XC term evaluation                    ... done (   0.0 sec)
  promolecular density results
     # of electrons  =     15.999999817
     EX              =    -16.309599595
     EC              =     -0.066146096
     EX+EC           =    -16.375745692
Transforming the Hamiltonian                       ... done (   0.0 sec)
Diagonalizing the Hamiltonian                      ... done (   0.0 sec)
Back transforming the eigenvectors                 ... done (   0.0 sec)
Now organizing SCF variables                       ... done
                      ------------------
                      INITIAL GUESS DONE (   0.8 sec)
                      ------------------
--------------
SCF ITERATIONS
--------------
ITER       Energy         Delta-E        Max-DP      RMS-DP      [F,P]     Damp
  0   -149.9913891956   0.000000000000 0.00827623  0.00035134  0.0868212 0.7000
  1   -150.0028055989  -0.011416403257 0.00781860  0.00033559  0.0673691 0.7000
                               ***Turning on DIIS***
  2   -150.0122431631  -0.009437564254 0.01804758  0.00088675  0.0474315 0.0000
  3   -150.0237124707  -0.011469307618 0.00532881  0.00017356  0.0174125 0.0000
  4   -150.0244767706  -0.000764299850 0.00143561  0.00007793  0.0035247 0.0000
  5   -150.0245908910  -0.000114120388 0.00081693  0.00004996  0.0007190 0.0000
  6   -150.0246165215  -0.000025630542 0.00024105  0.00001329  0.0002504 0.0000
  7   -150.0246185069  -0.000001985343 0.00005584  0.00000260  0.0000487 0.0000
                 **** Energy Check signals convergence ****

               *****************************************************
               *                     SUCCESS                       *
               *           SCF CONVERGED AFTER   8 CYCLES          *
               *****************************************************


----------------
TOTAL SCF ENERGY
----------------

Total Energy       :         -150.02461860 Eh           -4082.37742 eV

Components:
Nuclear Repulsion  :           28.04052106 Eh             763.02137 eV
Electronic Energy  :         -178.06513965 Eh           -4845.39879 eV
One Electron Energy:         -261.71418233 Eh           -7121.60496 eV
Two Electron Energy:           83.64904268 Eh            2276.20617 eV

Virial components:
Potential Energy   :         -299.66679347 Eh           -8154.34801 eV
Kinetic Energy     :          149.64217488 Eh            4071.97059 eV
Virial Ratio       :            2.00255572


DFT components:
N(Alpha)           :        9.000001299692 electrons
N(Beta)            :        7.000001686429 electrons
N(Total)           :       16.000002986121 electrons
E(X)               :       -4.771618582856 Eh       
E(C)               :       -0.307921719722 Eh       
E(XC)              :       -5.079540302578 Eh       
DFET-embed. en.    :        0.000000000000 Eh       

---------------
SCF CONVERGENCE
---------------

  Last Energy change         ...   -8.8277e-08  Tolerance :   1.0000e-06
  Last MAX-Density change    ...    1.6838e-05  Tolerance :   1.0000e-05
  Last RMS-Density change    ...    8.5645e-07  Tolerance :   1.0000e-06
  Last DIIS Error            ...    1.9341e-05  Tolerance :   1.0000e-06

             **** THE GBW FILE WAS UPDATED (o2.gbw) ****
             **** DENSITY FILE WAS UPDATED (o2.scfp) ****
             **** ENERGY FILE WAS UPDATED (o2.en.tmp) ****
----------------------
UHF SPIN CONTAMINATION
----------------------

Warning: in a DFT calculation there is little theoretical justification to 
         calculate <S**2> as in Hartree-Fock theory. We will do it anyways
         but you should keep in mind that the values have only limited relevance

Expectation value of <S**2>     :     2.029911
Ideal value S*(S+1) for S=1.0   :     2.000000
Deviation                       :     0.029911

             **** THE GBW FILE WAS UPDATED (o2.gbw) ****
             **** DENSITY FILE WAS UPDATED (o2.scfp) ****
----------------
ORBITAL ENERGIES
----------------
                 SPIN UP ORBITALS
  NO   OCC          E(Eh)            E(eV) 
   0   1.0000     -20.234975      -550.6217 
   1   1.0000     -20.234487      -550.6084 
   2   1.0000      -1.572865       -42.7998 
   3   1.0000      -1.078561       -29.3491 
   4   1.0000      -0.748591       -20.3702 
   5   1.0000      -0.748591       -20.3702 
   6   1.0000      -0.695729       -18.9317 
   7   1.0000      -0.473708       -12.8902 
   8   1.0000      -0.473708       -12.8902 
   9   0.0000       0.069858         1.9009 
  10   0.0000       0.094303         2.5661 
  11   0.0000       0.104593         2.8461 
  12   0.0000       0.104593         2.8461 
  13   0.0000       0.147863         4.0236 
  14   0.0000       0.147863         4.0236 
  15   0.0000       0.150564         4.0971 
  16   0.0000       0.253005         6.8846 
  17   0.0000       0.378954        10.3119 
  18   0.0000       0.378955        10.3119 
  19   0.0000       0.386578        10.5193 
  20   0.0000       0.468280        12.7426 
  21   0.0000       0.517335        14.0774 
  22   0.0000       0.517335        14.0774 
  23   0.0000       0.528288        14.3754 
  24   0.0000       0.532734        14.4964 
  25   0.0000       0.532734        14.4964 
  26   0.0000       0.547934        14.9100 
  27   0.0000       0.547935        14.9101 
  28   0.0000       0.616748        16.7826 
  29   0.0000       0.616748        16.7826 
  30   0.0000       0.703770        19.1506 
  31   0.0000       0.875283        23.8177 
  32   0.0000       0.977656        26.6034 
  33   0.0000       0.977656        26.6034 
  34   0.0000       0.991619        26.9833 
  35   0.0000       1.327106        36.1124 
  36   0.0000       1.610496        43.8238 
  37   0.0000       1.610496        43.8238 
  38   0.0000       1.616816        43.9958 
  39   0.0000       1.616816        43.9958 
  40   0.0000       1.939942        52.7885 
  41   0.0000       1.939942        52.7885 
  42   0.0000       2.090920        56.8968 
  43   0.0000       2.305246        62.7289 
  44   0.0000       2.305246        62.7289 
  45   0.0000       2.575652        70.0870 
  46   0.0000       2.729827        74.2824 
  47   0.0000       2.729827        74.2824 
  48   0.0000       3.010316        81.9149 
  49   0.0000       3.237393        88.0939 
  50   0.0000       3.237393        88.0939 
  51   0.0000       3.382460        92.0414 
  52   0.0000       3.427842        93.2763 
  53   0.0000       4.505331       122.5963 
  54   0.0000       4.826160       131.3265 
  55   0.0000       4.826160       131.3265 
  56   0.0000       4.950559       134.7116 
  57   0.0000       4.950559       134.7116 
  58   0.0000       5.152617       140.2098 
  59   0.0000       5.152617       140.2098 
  60   0.0000       5.269139       143.3806 
  61   0.0000       5.396873       146.8564 
  62   0.0000       5.396873       146.8564 
  63   0.0000       5.965170       162.3205 
  64   0.0000       5.965171       162.3205 
  65   0.0000       6.470178       176.0625 
  66   0.0000       6.470183       176.0626 
  67   0.0000       6.587683       179.2600 
  68   0.0000       6.587683       179.2600 
  69   0.0000       6.639304       180.6646 
  70   0.0000       6.639309       180.6648 
  71   0.0000       6.774952       184.3558 
  72   0.0000       6.793622       184.8639 
  73   0.0000       6.793622       184.8639 
  74   0.0000       7.501441       204.1246 
  75   0.0000       7.501441       204.1246 
  76   0.0000       7.760313       211.1688 
  77   0.0000       8.964632       243.9400 
  78   0.0000      44.297607      1205.3992 
  79   0.0000      44.941307      1222.9151 

                 SPIN DOWN ORBITALS
  NO   OCC          E(Eh)            E(eV) 
   0   1.0000     -20.189814      -549.3928 
   1   1.0000     -20.188910      -549.3682 
   2   1.0000      -1.472737       -40.0752 
   3   1.0000      -0.914830       -24.8938 
   4   1.0000      -0.642665       -17.4878 
   5   1.0000      -0.544930       -14.8283 
   6   1.0000      -0.544930       -14.8283 
   7   0.0000       0.010916         0.2970 
   8   0.0000       0.010916         0.2970 
   9   0.0000       0.072218         1.9651 
  10   0.0000       0.097554         2.6546 
  11   0.0000       0.110416         3.0046 
  12   0.0000       0.110416         3.0046 
  13   0.0000       0.149729         4.0743 
  14   0.0000       0.160135         4.3575 
  15   0.0000       0.160135         4.3575 
  16   0.0000       0.269035         7.3208 
  17   0.0000       0.380962        10.3665 
  18   0.0000       0.380962        10.3665 
  19   0.0000       0.419034        11.4025 
  20   0.0000       0.467751        12.7282 
  21   0.0000       0.537882        14.6365 
  22   0.0000       0.537882        14.6365 
  23   0.0000       0.543795        14.7974 
  24   0.0000       0.543795        14.7974 
  25   0.0000       0.552814        15.0428 
  26   0.0000       0.555654        15.1201 
  27   0.0000       0.555655        15.1201 
  28   0.0000       0.656678        17.8691 
  29   0.0000       0.656678        17.8691 
  30   0.0000       0.720833        19.6149 
  31   0.0000       0.889362        24.2008 
  32   0.0000       0.990392        26.9499 
  33   0.0000       1.012472        27.5508 
  34   0.0000       1.012472        27.5508 
  35   0.0000       1.347071        36.6557 
  36   0.0000       1.660337        45.1801 
  37   0.0000       1.660337        45.1801 
  38   0.0000       1.661216        45.2040 
  39   0.0000       1.661217        45.2040 
  40   0.0000       2.020302        54.9752 
  41   0.0000       2.020302        54.9752 
  42   0.0000       2.122365        57.7525 
  43   0.0000       2.355002        64.0829 
  44   0.0000       2.355002        64.0829 
  45   0.0000       2.595816        70.6357 
  46   0.0000       2.823637        76.8351 
  47   0.0000       2.823637        76.8351 
  48   0.0000       3.051936        83.0474 
  49   0.0000       3.317622        90.2771 
  50   0.0000       3.317622        90.2771 
  51   0.0000       3.412216        92.8511 
  52   0.0000       3.469367        94.4063 
  53   0.0000       4.534729       123.3962 
  54   0.0000       4.864741       132.3763 
  55   0.0000       4.864742       132.3763 
  56   0.0000       4.979733       135.5054 
  57   0.0000       4.979733       135.5054 
  58   0.0000       5.216290       141.9425 
  59   0.0000       5.216290       141.9425 
  60   0.0000       5.311642       144.5371 
  61   0.0000       5.465555       148.7253 
  62   0.0000       5.465555       148.7253 
  63   0.0000       6.015984       163.7032 
  64   0.0000       6.015984       163.7032 
  65   0.0000       6.586335       179.2233 
  66   0.0000       6.586340       179.2234 
  67   0.0000       6.652777       181.0313 
  68   0.0000       6.652777       181.0313 
  69   0.0000       6.749104       183.6525 
  70   0.0000       6.749110       183.6526 
  71   0.0000       6.817672       185.5183 
  72   0.0000       6.853437       186.4915 
  73   0.0000       6.853437       186.4915 
  74   0.0000       7.531336       204.9381 
  75   0.0000       7.531336       204.9381 
  76   0.0000       7.788822       211.9446 
  77   0.0000       8.991126       244.6610 
  78   0.0000      44.326136      1206.1755 
  79   0.0000      44.968917      1223.6664 

                    ********************************
                    * MULLIKEN POPULATION ANALYSIS *
                    ********************************

--------------------------------------------
MULLIKEN ATOMIC CHARGES AND SPIN POPULATIONS
--------------------------------------------
   0 O :   -0.000000    1.000000
   1 O :    0.000000    1.000000
Sum of atomic charges         :    0.0000000
Sum of atomic spin populations:    2.0000000

-----------------------------------------------------
MULLIKEN REDUCED ORBITAL CHARGES AND SPIN POPULATIONS
-----------------------------------------------------
CHARGE
  0 O s       :     3.924202  s :     3.924202
      pz      :     1.060200  p :     4.024109
      px      :     1.481954
      py      :     1.481954
      dz2     :     0.013468  d :     0.046596
      dxz     :     0.016564
      dyz     :     0.016564
      dx2y2   :     0.000000
      dxy     :     0.000000
      f0      :     0.002130  f :     0.005094
      f+1     :     0.001482
      f-1     :     0.001482
      f+2     :     0.000000
      f-2     :     0.000000
      f+3     :     0.000000
      f-3     :     0.000000
  1 O s       :     3.924202  s :     3.924202
      pz      :     1.060200  p :     4.024109
      px      :     1.481954
      py      :     1.481954
      dz2     :     0.013468  d :     0.046596
      dxz     :     0.016564
      dyz     :     0.016564
      dx2y2   :     0.000000
      dxy     :     0.000000
      f0      :     0.002130  f :     0.005094
      f+1     :     0.001482
      f-1     :     0.001482
      f+2     :     0.000000
      f-2     :     0.000000
      f+3     :     0.000000
      f-3     :     0.000000

SPIN
  0 O s       :     0.018326  s :     0.018326
      pz      :    -0.017801  p :     1.004565
      px      :     0.511183
      py      :     0.511183
      dz2     :    -0.000187  d :    -0.022326
      dxz     :    -0.011070
      dyz     :    -0.011070
      dx2y2   :     0.000000
      dxy     :     0.000000
      f0      :    -0.000338  f :    -0.000564
      f+1     :    -0.000113
      f-1     :    -0.000113
      f+2     :     0.000000
      f-2     :    -0.000000
      f+3     :     0.000000
      f-3     :     0.000000
  1 O s       :     0.018325  s :     0.018325
      pz      :    -0.017802  p :     1.004565
      px      :     0.511183
      py      :     0.511183
      dz2     :    -0.000187  d :    -0.022326
      dxz     :    -0.011070
      dyz     :    -0.011070
      dx2y2   :    -0.000000
      dxy     :     0.000000
      f0      :    -0.000338  f :    -0.000564
      f+1     :    -0.000113
      f-1     :    -0.000113
      f+2     :     0.000000
      f-2     :     0.000000
      f+3     :     0.000000
      f-3     :     0.000000


                     *******************************
                     * LOEWDIN POPULATION ANALYSIS *
                     *******************************

-------------------------------------------
LOEWDIN ATOMIC CHARGES AND SPIN POPULATIONS
-------------------------------------------
   0 O :   -0.000000    1.000000
   1 O :    0.000000    1.000000

----------------------------------------------------
LOEWDIN REDUCED ORBITAL CHARGES AND SPIN POPULATIONS
----------------------------------------------------
CHARGE
  0 O s       :     3.543142  s :     3.543142
      pz      :     1.292468  p :     4.092538
      px      :     1.400035
      py      :     1.400035
      dz2     :     0.156958  d :     0.345304
      dxz     :     0.094173
      dyz     :     0.094173
      dx2y2   :     0.000000
      dxy     :     0.000000
      f0      :     0.007432  f :     0.019016
      f+1     :     0.005792
      f-1     :     0.005792
      f+2     :     0.000000
      f-2     :     0.000000
      f+3     :     0.000000
      f-3     :     0.000000
  1 O s       :     3.543142  s :     3.543142
      pz      :     1.292468  p :     4.092538
      px      :     1.400035
      py      :     1.400035
      dz2     :     0.156958  d :     0.345304
      dxz     :     0.094173
      dyz     :     0.094173
      dx2y2   :     0.000000
      dxy     :     0.000000
      f0      :     0.007432  f :     0.019016
      f+1     :     0.005792
      f-1     :     0.005792
      f+2     :     0.000000
      f-2     :     0.000000
      f+3     :     0.000000
      f-3     :     0.000000

SPIN
  0 O s       :     0.017346  s :     0.017346
      pz      :    -0.021256  p :     0.889998
      px      :     0.455627
      py      :     0.455627
      dz2     :     0.003940  d :     0.087139
      dxz     :     0.041599
      dyz     :     0.041599
      dx2y2   :     0.000000
      dxy     :     0.000000
      f0      :    -0.000030  f :     0.005517
      f+1     :     0.002774
      f-1     :     0.002774
      f+2     :     0.000000
      f-2     :    -0.000000
      f+3     :     0.000000
      f-3     :     0.000000
  1 O s       :     0.017346  s :     0.017346
      pz      :    -0.021256  p :     0.889998
      px      :     0.455627
      py      :     0.455627
      dz2     :     0.003940  d :     0.087139
      dxz     :     0.041599
      dyz     :     0.041599
      dx2y2   :     0.000000
      dxy     :     0.000000
      f0      :    -0.000030  f :     0.005517
      f+1     :     0.002774
      f-1     :     0.002774
      f+2     :     0.000000
      f-2     :     0.000000
      f+3     :     0.000000
      f-3     :     0.000000


                      *****************************
                      * MAYER POPULATION ANALYSIS *
                      *****************************

  NA   - Mulliken gross atomic population
  ZA   - Total nuclear charge
  QA   - Mulliken gross atomic charge
  VA   - Mayer's total valence
  BVA  - Mayer's bonded valence
  FA   - Mayer's free valence

  ATOM       NA         ZA         QA         VA         BVA        FA
  0 O      8.0000     8.0000    -0.0000     2.2904     1.6887     0.6017
  1 O      8.0000     8.0000     0.0000     2.2904     1.6887     0.6017

  Mayer bond orders larger than 0.100000
B(  0-O ,  1-O ) :   1.6887 

-------
TIMINGS
-------

Total SCF time: 0 days 0 hours 0 min 53 sec 

Total time                  ....      53.813 sec
Sum of individual times     ....      53.183 sec  ( 98.8%)

Fock matrix formation       ....      51.243 sec  ( 95.2%)
  XC integration            ....      48.330 sec  ( 94.3% of F)
    Basis function eval.    ....       0.009 sec  (  0.0% of XC)
    Density eval.           ....       0.012 sec  (  0.0% of XC)
    XC-Functional eval.     ....       0.009 sec  (  0.0% of XC)
    XC-Potential eval.      ....       0.019 sec  (  0.0% of XC)
Diagonalization             ....       0.671 sec  (  1.2%)
Density matrix formation    ....       0.004 sec  (  0.0%)
Population analysis         ....       0.436 sec  (  0.8%)
Initial guess               ....       0.288 sec  (  0.5%)
Orbital Transformation      ....       0.000 sec  (  0.0%)
Orbital Orthonormalization  ....       0.000 sec  (  0.0%)
DIIS solution               ....       0.056 sec  (  0.1%)
Grid generation             ....       0.485 sec  (  0.9%)


           ************************************************************
           *        Program running with 28 parallel MPI-processes    *
           *              working on a common directory               *
           ************************************************************

------------------------------------------------------------------------------
                                ORCA  MP2 
------------------------------------------------------------------------------

Freezing NCore=4 chemical core electrons

-------------
RI-MP2 ENERGY
-------------
Dimension of the basis                    ...   80
Memory devoted to MP2                     ... 5000 MB   
Data format for buffers                   ... DOUBLE
Compression type for matrix containers    ... UNCOMPRESSED
Scaling for aa/bb pairs                   ...   4.000e-01
Scaling for ab pairs                      ...   4.700e-01
Overall scaling of the MP2 energy         ...   1.000e+00
Calculating two index integrals           ... done (    0.001 sec)
Cholesky decomposition of V**-1           ... done (    0.040 sec)

-----------------
RI-TRANSFORMATION (AUX index driven)
-----------------

Dimension of the orbital-basis         ... 80
Dimension of the aux-basis             ... 184
Transformation of internal/external MOs...    2-   8 to    9-  79
Number Format for Storage              ... Double (8 Byte)
Integral mode                          ... Direct

First Phase: integral generation and transformation of MO indices
  Aux angular momentum 0               ... done (    0.000 sec)
  Aux angular momentum 1               ... done (    0.002 sec)
  Aux angular momentum 2               ... done (    0.001 sec)
  Aux angular momentum 3               ... done (    0.001 sec)
  Aux angular momentum 4               ... done (    0.001 sec)
Closing buffer VIA ( 0.00 GB; CompressionRatio= 1.00)
  Phase 1 completed in     2.897 sec
Second Phase: sorting and transformation of aux index

IA-Transformation
Memory available                       ... 5000 MB 
Max. # MO pairs treated in a batch     ... 1    
# of internal orbitals                 ... 7
# batches for internal orbitals        ... 1
Closing buffer IAV ( 0.00 GB; CompressionRatio= 1.00)
(ia|v) transformation done in     0.098 sec

  Phase 2 completed in     3.377 sec
RI-Integral transformation completed in     6.959 sec

-----------------
RI-TRANSFORMATION (AUX index driven)
-----------------

Dimension of the orbital-basis         ... 80
Dimension of the aux-basis             ... 184
Transformation of internal/external MOs...    2-   6 to    7-  79
Number Format for Storage              ... Double (8 Byte)
Integral mode                          ... Direct

First Phase: integral generation and transformation of MO indices
  Aux angular momentum 0               ... done (    0.000 sec)
  Aux angular momentum 1               ... done (    0.002 sec)
  Aux angular momentum 2               ... done (    0.001 sec)
  Aux angular momentum 3               ... done (    0.001 sec)
  Aux angular momentum 4               ... done (    0.001 sec)
Closing buffer VIA ( 0.00 GB; CompressionRatio= 1.00)
  Phase 1 completed in     2.951 sec
Second Phase: sorting and transformation of aux index

IA-Transformation
Memory available                       ... 5000 MB 
Max. # MO pairs treated in a batch     ... 1    
# of internal orbitals                 ... 5
# batches for internal orbitals        ... 1
Closing buffer IAV ( 0.00 GB; CompressionRatio= 1.00)
(ia|v) transformation done in     0.074 sec

  Phase 2 completed in     3.331 sec
RI-Integral transformation completed in     6.964 sec
Opening buffers                              ... done

Starting loop over batches of integrals:

Operator 0  - window                       ... (  2-  8)x(  9- 79)
Operator 0  - Memory available             ...  5000 MB
Operator 0  - Memory needed per MO         ...   0.1 MB
Operator 0  - Number of orbitals per batch ... 1
Operator 0  - Number of batches            ... 1

OPERATOR  0   PASS   0:  MOs     2 ...    2 +    3 ...    3 +    4 ...    4 +    5 ...    5
                            +    6 ...    6 +    7 ...    7 +    8 ...    8
  Reading integrals       ... ok

Operator 1  - window                       ... (  2-  6)x(  7- 79)
Operator 1  - Memory available             ...  5000 MB
Operator 1  - Memory needed per MO         ...   0.1 MB
Operator 1  - Number of orbitals per batch ... 1
Operator 1  - Number of batches            ... 1

OPERATOR  1   PASS   0:  MOs     2 ...    2 +    3 ...    3 +    4 ...    4 +    5 ...    5
                            +    6 ...    6
  Reading integrals       ... ok
Time spent in pair loops =     0.003 sec
Deleting buffer (Ka|jb)[aa] ...done
Deleting buffer (Ka|jb)[ab] ...done
Deleting buffer (Ka|jb)[ba] ...done
Deleting buffer (Ka|jb)[bb] ...done

Spin-scaled correlation energy components}
 E2 and T2 for alpha/alpha pairs :     -0.026005233 Eh      0.000000000
 E2 and T2 for beta/beta   pairs :     -0.031937979 Eh      0.000000000
 E2 and T2 for alpha/beta  pairs :     -0.162956345 Eh      0.000000000


-----------------------------------------------
 RI-MP2 CORRELATION ENERGY:     -0.220899556 Eh
-----------------------------------------------


-------
TIMINGS
-------

Total time                :   16.982 sec
Integral trafo            :   13.945 sec ( 82.1%)
I/O of integrals          :    0.000 sec (  0.0%)
K(i,j) Operators          :    0.001 sec (  0.0%)
T(i,j) pair energies      :    0.000 sec (  0.0%)
V-calculation             :    0.001 sec (  0.0%)
V**(-1/2)                 :    0.040 sec (  0.2%)
Gamma(ia|P)               :    0.000 sec (  0.0%)
Gamma-Trafo               :    0.000 sec (  0.0%)
D(virtual)                :    0.000 sec (  0.0%)
D(internal)               :    0.000 sec (  0.0%)
W(virtual)                :    0.000 sec (  0.0%)
W(internal)               :    0.000 sec (  0.0%)
L(virtual)                :    0.000 sec (  0.0%)
L(internal)               :    0.000 sec (  0.0%)
G(D)                      :    0.000 sec (  0.0%)
G(Z)                      :    0.000 sec (  0.0%)
Z-Vector Solution         :    0.000 sec (  0.0%)
Z-Vector Solution         :    0.000 sec (  0.0%)
3-Index Derivative 
+ Separable RIJ part      :    0.000 sec (  0.0%)
2-Index Derivative 
+ Separable RIJ part      :    0.000 sec (  0.0%)
Separable Gradient (X)    :    0.000 sec (  0.0%)


---------------------------------------
MP2 TOTAL ENERGY:     -150.245518152 Eh
---------------------------------------


-------------------------------------------------------------------------------
                          DFT DISPERSION CORRECTION                            
                                                                               
                              DFTD3 V3.1  Rev 1                                
                          USING Becke-Johnson damping                          
-------------------------------------------------------------------------------
The DSD-BLYP/2013 functional is recognized
Active option DFTDOPT                   ...         4   

molecular C6(AA) [au] = 51.245119 


            DFT-D V3
 parameters
 s6 scaling factor         :     0.5700 
 a1 scaling factor         :     0.0000 
 s8 scaling factor         :     0.0000 
 a2 scaling factor         :     5.4000 
 ad hoc parameters k1-k3   :    16.0000     1.3333    -4.0000 

 Edisp/kcal,au: -0.183762113334  -0.000292843537 
 E6   /kcal   :  -0.183762113 
 E8   /kcal   :  -0.000000000 
 % E8         :   0.000000000 

-------------------------   ----------------
Dispersion correction           -0.000292844
-------------------------   ----------------


-------------------------   --------------------
FINAL SINGLE POINT ENERGY      -150.245810995050
-------------------------   --------------------


                            ***************************************
                            *     ORCA property calculations      *
                            ***************************************


  WARNING: The energy has been calculated at the MP2 level but the densities
           used in the property calculations are still SCF densities
           MP2 response densities have not been calculated 
           use %mp2 Density relaxed end
           or  %mp2 Density unrelaxed end

                                    ---------------------
                                    Active property flags
                                    ---------------------
   (+) Dipole Moment


------------------------------------------------------------------------------
                       ORCA ELECTRIC PROPERTIES CALCULATION
------------------------------------------------------------------------------

Dipole Moment Calculation                       ... on
Quadrupole Moment Calculation                   ... off
Polarizability Calculation                      ... off
GBWName                                         ... o2.gbw
Electron density file                           ... o2.scfp
The origin for moment calculation is the CENTER OF MASS  = ( 0.000000,  0.000000  1.141206)

-------------
DIPOLE MOMENT
-------------
                                X             Y             Z
Electronic contribution:     -0.00000       0.00000      -0.00000
Nuclear contribution   :      0.00000       0.00000       0.00000
                        -----------------------------------------
Total Dipole Moment    :     -0.00000       0.00000      -0.00000
                        -----------------------------------------
Magnitude (a.u.)       :      0.00000
Magnitude (Debye)      :      0.00000



--------------------
Rotational spectrum 
--------------------
 
Rotational constants in cm-1:     0.000000     1.444588     1.444588 
Rotational constants in MHz :     0.000000 43307.659213 43307.659213 

 Dipole components along the rotational axes: 
x,y,z [a.u.] :    -0.000000     0.000000    -0.000000 
x,y,z [Debye]:    -0.000000     0.000000    -0.000000 

 

Timings for individual modules:

Sum of individual times         ...       74.938 sec (=   1.249 min)
GTO integral calculation        ...        2.451 sec (=   0.041 min)   3.3 %
SCF iterations                  ...       54.494 sec (=   0.908 min)  72.7 %
MP2 module                      ...       17.993 sec (=   0.300 min)  24.0 %
                             ****ORCA TERMINATED NORMALLY****
TOTAL RUN TIME: 0 days 0 hours 2 minutes 6 seconds 851 msec
