
                                 *****************
                                 * O   R   C   A *
                                 *****************

           --- An Ab Initio, DFT and Semiempirical electronic structure package ---

                  #######################################################
                  #                        -***-                        #
                  #          Department of theory and spectroscopy      #
                  #               Directorship: Frank Neese             #
                  #        Max Planck Institute fuer Kohlenforschung    #
                  #                Kaiser Wilhelm Platz 1               #
                  #                 D-45470 Muelheim/Ruhr               #
                  #                      Germany                        #
                  #                                                     #
                  #                  All rights reserved                #
                  #                        -***-                        #
                  #######################################################


                         Program Version 4.2.0 -  RELEASE  -


 With contributions from (in alphabetic order):
   Daniel Aravena         : Magnetic Suceptibility
   Michael Atanasov       : Ab Initio Ligand Field Theory (pilot matlab implementation)
   Alexander A. Auer      : GIAO ZORA, VPT2
   Ute Becker             : Parallelization
   Giovanni Bistoni       : ED, misc. LED, open-shell LED, HFLED
   Martin Brehm           : Molecular dynamics
   Dmytro Bykov           : SCF Hessian
   Vijay G. Chilkuri      : MRCI spin determinant printing, contributions to CSF-ICE
   Dipayan Datta          : RHF DLPNO-CCSD density
   Achintya Kumar Dutta   : EOM-CC, STEOM-CC
   Dmitry Ganyushin       : Spin-Orbit,Spin-Spin,Magnetic field MRCI
   Miquel Garcia          : C-PCM Hessian, Gaussian charge scheme
   Yang Guo               : DLPNO-NEVPT2, CIM, IAO-localization
   Andreas Hansen         : Spin unrestricted coupled pair/coupled cluster methods
   Benjamin Helmich-Paris : CASSCF linear response (MC-RPA)
   Lee Huntington         : MR-EOM, pCC
   Robert Izsak           : Overlap fitted RIJCOSX, COSX-SCS-MP3, EOM
   Christian Kollmar      : KDIIS, OOCD, Brueckner-CCSD(T), CCSD density
   Simone Kossmann        : Meta GGA functionals, TD-DFT gradient, OOMP2, MP2 Hessian
   Martin Krupicka        : AUTO-CI
   Lucas Lang             : DCDCAS
   Dagmar Lenk            : GEPOL surface, SMD
   Dimitrios Liakos       : Extrapolation schemes; Compound Job, initial MDCI parallelization
   Dimitrios Manganas     : Further ROCIS development; embedding schemes
   Dimitrios Pantazis     : SARC Basis sets
   Taras Petrenko         : DFT Hessian,TD-DFT gradient, ASA, ECA, R-Raman, ABS, FL, XAS/XES, NRVS
   Peter Pinski           : DLPNO-MP2, DLPNO-MP2 Gradient
   Christoph Reimann      : Effective Core Potentials
   Marius Retegan         : Local ZFS, SOC
   Christoph Riplinger    : Optimizer, TS searches, QM/MM, DLPNO-CCSD(T), (RO)-DLPNO pert. Triples
   Tobias Risthaus        : Range-separated hybrids, TD-DFT gradient, RPA, STAB
   Michael Roemelt        : Original ROCIS implementation
   Masaaki Saitow         : Open-shell DLPNO-CCSD energy and density
   Barbara Sandhoefer     : DKH picture change effects
   Avijit Sen             : IP-ROCIS
   Kantharuban Sivalingam : CASSCF convergence, NEVPT2, FIC-MRCI
   Bernardo de Souza      : ESD, SOC TD-DFT
   Georgi Stoychev        : AutoAux, RI-MP2 NMR
   Willem Van den Heuvel  : Paramagnetic NMR
   Boris Wezisla          : Elementary symmetry handling
   Frank Wennmohs         : Technical directorship


 We gratefully acknowledge several colleagues who have allowed us to
 interface, adapt or use parts of their codes:
   Stefan Grimme, W. Hujo, H. Kruse,             : VdW corrections, initial TS optimization,
                  C. Bannwarth                     DFT functionals, gCP, sTDA/sTD-DF
   Ed Valeev, F. Pavosevic, A. Kumar             : LibInt (2-el integral package), F12 methods
   Garnet Chan, S. Sharma, J. Yang, R. Olivares  : DMRG
   Ulf Ekstrom                                   : XCFun DFT Library
   Mihaly Kallay                                 : mrcc  (arbitrary order and MRCC methods)
   Andreas Klamt, Michael Diedenhofen            : otool_cosmo (COSMO solvation model)
   Jiri Pittner, Ondrej Demel                    : Mk-CCSD
   Frank Weinhold                                : gennbo (NPA and NBO analysis)
   Christopher J. Cramer and Donald G. Truhlar   : smd solvation model
   Lars Goerigk                                  : TD-DFT with DH, B97 family of functionals
   V. Asgeirsson, H. Jonsson                     : NEB implementation
   FAccTs GmbH                                   : IRC, NEB, NEB-TS, Multilevel, MM, QM/MM, CI optimization
   S Lehtola, MJT Oliveira, MAL Marques          : LibXC Library


 Your calculation uses the libint2 library for the computation of 2-el integrals
 For citations please refer to: http://libint.valeyev.net

 Your ORCA version has been built with support for libXC version: 4.2.3
 For citations please refer to: https://tddft.org/programs/libxc/

 This ORCA versions uses:
   CBLAS   interface :  Fast vector & matrix operations
   LAPACKE interface :  Fast linear algebra routines
   SCALAPACK package :  Parallel linear algebra routines


Your calculation utilizes the atom-pairwise dispersion correction
with the Becke-Johnson damping scheme (D3BJ)
Cite in your paper:
S.Grimme, S.Ehrlich, L.Goerigk, J Comput Chem, (2011), 32, 1456–1465 
S.Grimme, J.Antony, S.Ehrlich and H.Krieg, J.Chem.Phys., 132, (2010), 154104 
   

----- Orbital basis set information -----
Your calculation utilizes the basis: def2-TZVPPD
   F. Weigend and R. Ahlrichs, Phys. Chem. Chem. Phys. 7, 3297 (2005).
   D. Rappoport and F. Furche, J. Chem. Phys. 133 134105 (2010).

----- AuxC basis set information -----
Your calculation utilizes the auxiliary basis: def2-TZVPPD/C
   A. Hellweg, C. Hattig, S. Hofener and W. Klopper, Theor. Chem. Acc. 117, 587 (2007).

----- AuxJK basis set information -----
Your calculation utilizes the auxiliary basis: def2/JK
   H-Ba, Hf-Rn: F. Weigend, J. Comput. Chem. 29, 167 (2008).

================================================================================
                                        WARNINGS
                       Please study these warnings very carefully!
================================================================================


WARNING: your system is open-shell and RHF/RKS was chosen
  ===> : WILL SWITCH to UHF/UKS


WARNING: No MP2 level density has been requested!
         To caclulate MP2 level properties use
         %mp2 Density relaxed end
         or
         %mp2 Density unrelaxed end
         Otherwise for double-hybrid DFT only the energy is correct!

WARNING: There are different parametrizations of Gershom Martin's DSD-DFs
         for use with and without D3(BJ)!
         You are using the D3(BJ) parametrized version,
         consistent with the 2013 article (S. Kozuch and J. M. L. Martin, JCC 2013, 34, 2327)

WARNING: The frozen-core approximation is turned on by default for 
         the MP2 part of double-hybrid DFT.

INFO   : the flag for use of LIBINT has been found!

================================================================================
                                       INPUT FILE
================================================================================
NAME = s2.in
|  1> #
|  2> # s2 ri-DSD-BLYP/2013-D3BJ/Def2-TZVPPD
|  3> #
|  4> ! rijk ri-dsd-blyp/2013 d3bj def2-tzvppd def2/jk def2-tzvppd/c grid4 nofinalgrid
|  5> 
|  6> *xyz 0 3
|  7> S          0.00000        0.00000        0.96175
|  8> S          0.00000        0.00000       -0.96175
|  9> *
| 10> 
| 11> %maxcore 5000
| 12> 
| 13> %pal
| 14> nprocs = 28
| 15> end
| 16> 
| 17> 
| 18>                          ****END OF INPUT****
================================================================================

                       ****************************
                       * Single Point Calculation *
                       ****************************

---------------------------------
CARTESIAN COORDINATES (ANGSTROEM)
---------------------------------
  S      0.000000    0.000000    0.961750
  S      0.000000    0.000000   -0.961750

----------------------------
CARTESIAN COORDINATES (A.U.)
----------------------------
  NO LB      ZA    FRAG     MASS         X           Y           Z
   0 S    16.0000    0    32.060    0.000000    0.000000    1.817444
   1 S    16.0000    0    32.060    0.000000    0.000000   -1.817444

--------------------------------
INTERNAL COORDINATES (ANGSTROEM)
--------------------------------
 S      0   0   0     0.000000000000     0.00000000     0.00000000
 S      1   0   0     1.923500000000     0.00000000     0.00000000

---------------------------
INTERNAL COORDINATES (A.U.)
---------------------------
 S      0   0   0     0.000000000000     0.00000000     0.00000000
 S      1   0   0     3.634888218598     0.00000000     0.00000000

---------------------
BASIS SET INFORMATION
---------------------
There are 1 groups of distinct atoms

 Group   1 Type S   : 15s10p4d1f contracted to 6s6p4d1f pattern {732111/511111/1111/1}

Atom   0S    basis set group =>   1
Atom   1S    basis set group =>   1
---------------------------------
AUXILIARY/C BASIS SET INFORMATION
---------------------------------
There are 1 groups of distinct atoms

 Group   1 Type S   : 12s9p8d6f2g contracted to 12s9p8d6f2g pattern {111111111111/111111111/11111111/111111/11}

Atom   0S    basis set group =>   1
Atom   1S    basis set group =>   1
----------------------------------
AUXILIARY/JK BASIS SET INFORMATION
----------------------------------
There are 1 groups of distinct atoms

 Group   1 Type S   : 16s12p10d4f1g contracted to 13s11p9d4f1g pattern {4111111111111/21111111111/211111111/1111/1}

Atom   0S    basis set group =>   1
Atom   1S    basis set group =>   1


           ************************************************************
           *        Program running with 28 parallel MPI-processes    *
           *              working on a common directory               *
           ************************************************************
------------------------------------------------------------------------------
                           ORCA GTO INTEGRAL CALCULATION
                           -- RI-GTO INTEGRALS CHOSEN --
------------------------------------------------------------------------------

                         BASIS SET STATISTICS AND STARTUP INFO

Gaussian basis set:
 # of primitive gaussian shells          ...   60
 # of primitive gaussian functions       ...  144
 # of contracted shells                  ...   34
 # of contracted basis functions         ...  102
 Highest angular momentum                ...    3
 Maximum contraction depth               ...    7
Auxiliary gaussian basis set:
 # of primitive gaussian shells          ...   86
 # of primitive gaussian functions       ...  278
 # of contracted shells                  ...   76
 # of contracted aux-basis functions     ...  256
 Highest angular momentum                ...    4
 Maximum contraction depth               ...    4
Ratio of auxiliary to basis functions    ...  2.51
Integral package used                  ... LIBINT
 One Electron integrals                  ... done
 Ordering auxiliary basis shells         ... done
 Integral threshhold             Thresh  ...  1.000e-10
 Primitive cut-off               TCut    ...  1.000e-11
 Pre-screening matrix                    ... done
 Shell pair data                         ... 
 Ordering of the shell pairs             ... done (   0.000 sec) 582 of 595 pairs
 Determination of significant pairs      ... done (   0.000 sec)
 Creation of shell pair data             ... done (   0.000 sec)
 Storage of shell pair data              ... done (   0.018 sec)
 Shell pair data done in (   0.018 sec)
 Computing two index integrals           ... done
 Cholesky decomposition of the V-matrix  ... done


Timings:
 Total evaluation time                   ...   0.224 sec (  0.004 min)
 One electron matrix time                ...   0.037 sec (  0.001 min) = 16.6%
 Schwartz matrix evaluation time         ...   0.101 sec (  0.002 min) = 44.9%
 Two index repulsion integral time       ...   0.029 sec (  0.000 min) = 12.9%
 Cholesky decomposition of V             ...   0.018 sec (  0.000 min) =  8.1%
 Three index repulsion integral time     ...   0.000 sec (  0.000 min) =  0.0%



           ************************************************************
           *        Program running with 28 parallel MPI-processes    *
           *              working on a common directory               *
           ************************************************************
-------------------------------------------------------------------------------
                                 ORCA SCF
-------------------------------------------------------------------------------

------------
SCF SETTINGS
------------
Hamiltonian:
 Density Functional     Method          .... DFT(GTOs)
 Exchange Functional    Exchange        .... B88
   X-Alpha parameter    XAlpha          ....  0.666667
   Becke's b parameter  XBeta           ....  0.004200
 Correlation Functional Correlation     .... LYP
 LDA part of GGA corr.  LDAOpt          .... VWN-5
 Gradients option       PostSCFGGA      .... off
 Hybrid DFT is turned on
   Fraction HF Exchange ScalHFX         ....  0.710000
   Scaling of DF-GGA-X  ScalDFX         ....  0.290000
   Scaling of DF-GGA-C  ScalDFC         ....  0.540000
   Scaling of DF-LDA-C  ScalLDAC        ....  0.540000
   Perturbative correction              ....  1.000000
   Density functional embedding theory  .... OFF
 RI-approximation to the Coulomb term is turned on
   Number of auxiliary basis functions  .... 256
   RI-JK (J+K treated both via RI)      .... on


General Settings:
 Integral files         IntName         .... s2
 Hartree-Fock type      HFTyp           .... UHF
 Total Charge           Charge          ....    0
 Multiplicity           Mult            ....    3
 Number of Electrons    NEL             ....   32
 Basis Dimension        Dim             ....  102
 Nuclear Repulsion      ENuc            ....     70.4285756822 Eh

Convergence Acceleration:
 DIIS                   CNVDIIS         .... on
   Start iteration      DIISMaxIt       ....    12
   Startup error        DIISStart       ....  0.200000
   # of expansion vecs  DIISMaxEq       ....     5
   Bias factor          DIISBfac        ....   1.050
   Max. coefficient     DIISMaxC        ....  10.000
 Newton-Raphson         CNVNR           .... off
 SOSCF                  CNVSOSCF        .... off
 Level Shifting         CNVShift        .... on
   Level shift para.    LevelShift      ....    0.2500
   Turn off err/grad.   ShiftErr        ....    0.0010
 Zerner damping         CNVZerner       .... off
 Static damping         CNVDamp         .... on
   Fraction old density DampFac         ....    0.7000
   Max. Damping (<1)    DampMax         ....    0.9800
   Min. Damping (>=0)   DampMin         ....    0.0000
   Turn off err/grad.   DampErr         ....    0.1000
 Fernandez-Rico         CNVRico         .... off

SCF Procedure:
 Maximum # iterations   MaxIter         ....   125
 SCF integral mode      SCFMode         .... Direct
   Integral package                     .... LIBINT
 Reset frequency        DirectResetFreq ....    20
 Integral Threshold     Thresh          ....  1.000e-10 Eh
 Primitive CutOff       TCut            ....  1.000e-11 Eh

Convergence Tolerance:
 Convergence Check Mode ConvCheckMode   .... Total+1el-Energy
 Convergence forced     ConvForced      .... 0
 Energy Change          TolE            ....  1.000e-06 Eh
 1-El. energy change                    ....  1.000e-03 Eh
 DIIS Error             TolErr          ....  1.000e-06


Diagonalization of the overlap matrix:
Smallest eigenvalue                        ... 7.821e-04
Time for diagonalization                   ...    0.002 sec
Threshold for overlap eigenvalues          ... 1.000e-08
Number of eigenvalues below threshold      ... 0
Time for construction of square roots      ...    0.067 sec
Total time needed                          ...    0.069 sec

-------------------
DFT GRID GENERATION
-------------------

General Integration Accuracy     IntAcc      ...  4.670
Radial Grid Type                 RadialGrid  ... Gauss-Chebyshev
Angular Grid (max. acc.)         AngularGrid ... Lebedev-302
Angular grid pruning method      GridPruning ... 3 (G Style)
Weight generation scheme         WeightScheme... Becke
Basis function cutoff            BFCut       ...    1.0000e-10
Integration weight cutoff        WCut        ...    1.0000e-14
Grids for H and He will be reduced by one unit

# of grid points (after initial pruning)     ...  13692 (   0.0 sec)
# of grid points (after weights+screening)   ...  13666 (   0.0 sec)
nearest neighbour list constructed           ...    0.0 sec
Grid point re-assignment to atoms done       ...    0.0 sec
Grid point division into batches done        ...    0.1 sec
Reduced shell lists constructed in    0.1 sec

Total number of grid points                  ...    13666
Total number of batches                      ...      214
Average number of points per batch           ...       63
Average number of grid points per atom       ...     6833
Average number of shells per batch           ...     8.11 (23.86%)
Average number of basis functions per batch  ...    21.67 (21.24%)
Average number of large shells per batch     ...     6.33 (78.08%)
Average number of large basis fcns per batch ...    19.00 (87.69%)
Average number of aux-shells per batch       ...     8.11 (10.67%)
Average number of aux functions per batch    ...    21.67 ( 8.46%)
Maximum spatial batch extension              ...  19.50, 19.55, 13.50 au
Average spatial batch extension              ...   0.59,  0.57,  0.41 au

Time for grid setup =    0.691 sec

------------------------------
INITIAL GUESS: MODEL POTENTIAL
------------------------------
Loading Hartree-Fock densities                     ... done
Calculating cut-offs                               ... done
Setting up the integral package                    ... done
Initializing the effective Hamiltonian             ... done
Starting the Coulomb interaction                   ... done (   0.0 sec)
Reading the grid                                   ... done
Mapping shells                                     ... done
Starting the XC term evaluation                    ... done (   0.0 sec)
  promolecular density results
     # of electrons  =     32.000015260
     EX              =    -49.997228687
     EC              =     -0.168042578
     EX+EC           =    -50.165271265
Transforming the Hamiltonian                       ... done (   0.0 sec)
Diagonalizing the Hamiltonian                      ... done (   0.0 sec)
Back transforming the eigenvectors                 ... done (   0.0 sec)
Now organizing SCF variables                       ... done
                      ------------------
                      INITIAL GUESS DONE (   0.8 sec)
                      ------------------
--------------
SCF ITERATIONS
--------------
ITER       Energy         Delta-E        Max-DP      RMS-DP      [F,P]     Damp
  0   -795.7628279817   0.000000000000 0.01326989  0.00029257  0.0765297 0.7000
  1   -795.7791093099  -0.016281328195 0.01435411  0.00029819  0.0577306 0.7000
                               ***Turning on DIIS***
  2   -795.7811297233  -0.002020413360 0.03733300  0.00077947  0.0402639 0.0000
  3   -795.7867515986  -0.005621875338 0.00929328  0.00019369  0.0105023 0.0000
  4   -795.7874601352  -0.000708536541 0.00142189  0.00004990  0.0031079 0.0000
  5   -795.7875535004  -0.000093365243 0.00172096  0.00004585  0.0004789 0.0000
  6   -795.7875954993  -0.000041998851 0.00099250  0.00002200  0.0001762 0.0000
  7   -795.7876032795  -0.000007780242 0.00028128  0.00000640  0.0000369 0.0000
                 **** Energy Check signals convergence ****

               *****************************************************
               *                     SUCCESS                       *
               *           SCF CONVERGED AFTER   8 CYCLES          *
               *****************************************************


----------------
TOTAL SCF ENERGY
----------------

Total Energy       :         -795.78760389 Eh          -21654.48159 eV

Components:
Nuclear Repulsion  :           70.42857568 Eh            1916.45898 eV
Electronic Energy  :         -866.21617957 Eh          -23570.94057 eV
One Electron Energy:        -1239.43662657 Eh          -33726.78525 eV
Two Electron Energy:          373.22044700 Eh           10155.84468 eV

Virial components:
Potential Energy   :        -1590.80582087 Eh          -43288.02711 eV
Kinetic Energy     :          795.01821699 Eh           21633.54551 eV
Virial Ratio       :            2.00096776


DFT components:
N(Alpha)           :       17.000005239444 electrons
N(Beta)            :       15.000005219857 electrons
N(Total)           :       32.000010459301 electrons
E(X)               :      -14.512353537932 Eh       
E(C)               :       -0.704491618913 Eh       
E(XC)              :      -15.216845156845 Eh       
DFET-embed. en.    :        0.000000000000 Eh       

---------------
SCF CONVERGENCE
---------------

  Last Energy change         ...   -6.1028e-07  Tolerance :   1.0000e-06
  Last MAX-Density change    ...    4.3374e-05  Tolerance :   1.0000e-05
  Last RMS-Density change    ...    1.0426e-06  Tolerance :   1.0000e-06
  Last DIIS Error            ...    6.0507e-06  Tolerance :   1.0000e-06

             **** THE GBW FILE WAS UPDATED (s2.gbw) ****
             **** DENSITY FILE WAS UPDATED (s2.scfp) ****
             **** ENERGY FILE WAS UPDATED (s2.en.tmp) ****
----------------------
UHF SPIN CONTAMINATION
----------------------

Warning: in a DFT calculation there is little theoretical justification to 
         calculate <S**2> as in Hartree-Fock theory. We will do it anyways
         but you should keep in mind that the values have only limited relevance

Expectation value of <S**2>     :     2.035416
Ideal value S*(S+1) for S=1.0   :     2.000000
Deviation                       :     0.035416

             **** THE GBW FILE WAS UPDATED (s2.gbw) ****
             **** DENSITY FILE WAS UPDATED (s2.scfp) ****
----------------
ORBITAL ENERGIES
----------------
                 SPIN UP ORBITALS
  NO   OCC          E(Eh)            E(eV) 
   0   1.0000     -90.910430     -2473.7986 
   1   1.0000     -90.910424     -2473.7984 
   2   1.0000      -8.651595      -235.4219 
   3   1.0000      -8.651339      -235.4149 
   4   1.0000      -6.438553      -175.2019 
   5   1.0000      -6.438553      -175.2019 
   6   1.0000      -6.438508      -175.2007 
   7   1.0000      -6.438508      -175.2007 
   8   1.0000      -6.431442      -175.0084 
   9   1.0000      -6.430656      -174.9870 
  10   1.0000      -1.010473       -27.4964 
  11   1.0000      -0.791021       -21.5248 
  12   1.0000      -0.487512       -13.2659 
  13   1.0000      -0.479115       -13.0374 
  14   1.0000      -0.479115       -13.0374 
  15   1.0000      -0.338837        -9.2202 
  16   1.0000      -0.338837        -9.2202 
  17   0.0000       0.027005         0.7348 
  18   0.0000       0.063907         1.7390 
  19   0.0000       0.063907         1.7390 
  20   0.0000       0.065148         1.7728 
  21   0.0000       0.083805         2.2805 
  22   0.0000       0.086661         2.3582 
  23   0.0000       0.086661         2.3582 
  24   0.0000       0.092058         2.5050 
  25   0.0000       0.156239         4.2515 
  26   0.0000       0.156239         4.2515 
  27   0.0000       0.201210         5.4752 
  28   0.0000       0.212018         5.7693 
  29   0.0000       0.212018         5.7693 
  30   0.0000       0.249578         6.7914 
  31   0.0000       0.250998         6.8300 
  32   0.0000       0.251000         6.8301 
  33   0.0000       0.296560         8.0698 
  34   0.0000       0.296560         8.0698 
  35   0.0000       0.302654         8.2356 
  36   0.0000       0.422656        11.5011 
  37   0.0000       0.422656        11.5011 
  38   0.0000       0.468376        12.7452 
  39   0.0000       0.493274        13.4227 
  40   0.0000       0.493274        13.4227 
  41   0.0000       0.517775        14.0894 
  42   0.0000       0.517776        14.0894 
  43   0.0000       0.592399        16.1200 
  44   0.0000       0.592399        16.1200 
  45   0.0000       0.602153        16.3854 
  46   0.0000       0.602155        16.3855 
  47   0.0000       0.610395        16.6097 
  48   0.0000       0.649261        17.6673 
  49   0.0000       0.758135        20.6299 
  50   0.0000       0.758135        20.6299 
  51   0.0000       0.818996        22.2860 
  52   0.0000       0.880136        23.9497 
  53   0.0000       1.240650        33.7598 
  54   0.0000       1.593757        43.3683 
  55   0.0000       1.593758        43.3683 
  56   0.0000       1.610577        43.8260 
  57   0.0000       1.642477        44.6941 
  58   0.0000       1.642477        44.6941 
  59   0.0000       1.713107        46.6160 
  60   0.0000       1.713108        46.6160 
  61   0.0000       1.736114        47.2421 
  62   0.0000       1.736114        47.2421 
  63   0.0000       1.739049        47.3219 
  64   0.0000       1.739050        47.3220 
  65   0.0000       1.750028        47.6207 
  66   0.0000       1.750028        47.6207 
  67   0.0000       1.786711        48.6189 
  68   0.0000       1.827761        49.7359 
  69   0.0000       1.827761        49.7359 
  70   0.0000       1.848871        50.3103 
  71   0.0000       1.848871        50.3103 
  72   0.0000       1.998650        54.3860 
  73   0.0000       1.998650        54.3860 
  74   0.0000       2.009337        54.6768 
  75   0.0000       2.081589        56.6429 
  76   0.0000       2.081591        56.6430 
  77   0.0000       2.099355        57.1264 
  78   0.0000       2.099355        57.1264 
  79   0.0000       2.171058        59.0775 
  80   0.0000       2.662771        72.4577 
  81   0.0000       2.683525        73.0224 
  82   0.0000       2.683525        73.0224 
  83   0.0000       3.219826        87.6159 
  84   0.0000       7.031448       191.3354 
  85   0.0000       7.031456       191.3356 
  86   0.0000       7.061501       192.1532 
  87   0.0000       7.061509       192.1534 
  88   0.0000       7.066370       192.2857 
  89   0.0000       7.066370       192.2857 
  90   0.0000       7.083115       192.7414 
  91   0.0000       7.085600       192.8090 
  92   0.0000       7.085600       192.8090 
  93   0.0000       7.299260       198.6230 
  94   0.0000       9.240320       251.4419 
  95   0.0000       9.240320       251.4419 
  96   0.0000       9.371151       255.0020 
  97   0.0000       9.371151       255.0020 
  98   0.0000       9.534998       259.4605 
  99   0.0000       9.656618       262.7699 
 100   0.0000      18.709311       509.1062 
 101   0.0000      19.413129       528.2581 

                 SPIN DOWN ORBITALS
  NO   OCC          E(Eh)            E(eV) 
   0   1.0000     -90.900097     -2473.5174 
   1   1.0000     -90.900093     -2473.5173 
   2   1.0000      -8.641992      -235.1606 
   3   1.0000      -8.641654      -235.1514 
   4   1.0000      -6.426781      -174.8816 
   5   1.0000      -6.425962      -174.8593 
   6   1.0000      -6.415730      -174.5809 
   7   1.0000      -6.415730      -174.5809 
   8   1.0000      -6.415659      -174.5790 
   9   1.0000      -6.415659      -174.5790 
  10   1.0000      -0.959491       -26.1091 
  11   1.0000      -0.682845       -18.5812 
  12   1.0000      -0.455324       -12.3900 
  13   1.0000      -0.382511       -10.4086 
  14   1.0000      -0.382511       -10.4086 
  15   0.0000      -0.055404        -1.5076 
  16   0.0000      -0.055404        -1.5076 
  17   0.0000       0.032679         0.8892 
  18   0.0000       0.065836         1.7915 
  19   0.0000       0.065836         1.7915 
  20   0.0000       0.066667         1.8141 
  21   0.0000       0.083240         2.2651 
  22   0.0000       0.092653         2.5212 
  23   0.0000       0.092653         2.5212 
  24   0.0000       0.107235         2.9180 
  25   0.0000       0.167491         4.5577 
  26   0.0000       0.167492         4.5577 
  27   0.0000       0.207558         5.6479 
  28   0.0000       0.230706         6.2778 
  29   0.0000       0.230706         6.2778 
  30   0.0000       0.257823         7.0157 
  31   0.0000       0.268514         7.3066 
  32   0.0000       0.268514         7.3066 
  33   0.0000       0.309959         8.4344 
  34   0.0000       0.309959         8.4344 
  35   0.0000       0.310301         8.4437 
  36   0.0000       0.432214        11.7611 
  37   0.0000       0.432214        11.7611 
  38   0.0000       0.473293        12.8790 
  39   0.0000       0.531655        14.4671 
  40   0.0000       0.531655        14.4671 
  41   0.0000       0.560417        15.2497 
  42   0.0000       0.560417        15.2497 
  43   0.0000       0.615014        16.7354 
  44   0.0000       0.615014        16.7354 
  45   0.0000       0.617828        16.8120 
  46   0.0000       0.661484        17.9999 
  47   0.0000       0.666445        18.1349 
  48   0.0000       0.666446        18.1349 
  49   0.0000       0.792404        21.5624 
  50   0.0000       0.792404        21.5624 
  51   0.0000       0.843607        22.9557 
  52   0.0000       0.902856        24.5680 
  53   0.0000       1.256535        34.1921 
  54   0.0000       1.623629        44.1812 
  55   0.0000       1.624008        44.1915 
  56   0.0000       1.624009        44.1915 
  57   0.0000       1.659690        45.1625 
  58   0.0000       1.659690        45.1625 
  59   0.0000       1.741580        47.3908 
  60   0.0000       1.741580        47.3908 
  61   0.0000       1.767726        48.1023 
  62   0.0000       1.767726        48.1023 
  63   0.0000       1.769291        48.1449 
  64   0.0000       1.769292        48.1449 
  65   0.0000       1.782428        48.5023 
  66   0.0000       1.782428        48.5023 
  67   0.0000       1.796326        48.8805 
  68   0.0000       1.866207        50.7821 
  69   0.0000       1.866207        50.7821 
  70   0.0000       1.878232        51.1093 
  71   0.0000       1.878232        51.1093 
  72   0.0000       2.015353        54.8405 
  73   0.0000       2.035271        55.3826 
  74   0.0000       2.035271        55.3826 
  75   0.0000       2.112974        57.4969 
  76   0.0000       2.112977        57.4970 
  77   0.0000       2.133002        58.0419 
  78   0.0000       2.133002        58.0419 
  79   0.0000       2.185957        59.4829 
  80   0.0000       2.672536        72.7234 
  81   0.0000       2.702564        73.5405 
  82   0.0000       2.702564        73.5405 
  83   0.0000       3.226246        87.7906 
  84   0.0000       7.042812       191.6447 
  85   0.0000       7.042821       191.6449 
  86   0.0000       7.071438       192.4236 
  87   0.0000       7.071438       192.4236 
  88   0.0000       7.073217       192.4720 
  89   0.0000       7.073226       192.4723 
  90   0.0000       7.086919       192.8449 
  91   0.0000       7.091294       192.9639 
  92   0.0000       7.091294       192.9639 
  93   0.0000       7.304726       198.7717 
  94   0.0000       9.263712       252.0784 
  95   0.0000       9.263712       252.0784 
  96   0.0000       9.394641       255.6412 
  97   0.0000       9.394641       255.6412 
  98   0.0000       9.540593       259.6127 
  99   0.0000       9.662136       262.9201 
 100   0.0000      18.723065       509.4805 
 101   0.0000      19.426910       528.6331 

                    ********************************
                    * MULLIKEN POPULATION ANALYSIS *
                    ********************************

--------------------------------------------
MULLIKEN ATOMIC CHARGES AND SPIN POPULATIONS
--------------------------------------------
   0 S :   -0.000000    1.000003
   1 S :    0.000000    0.999997
Sum of atomic charges         :    0.0000000
Sum of atomic spin populations:    2.0000000

-----------------------------------------------------
MULLIKEN REDUCED ORBITAL CHARGES AND SPIN POPULATIONS
-----------------------------------------------------
CHARGE
  0 S s       :     5.921220  s :     5.921220
      pz      :     3.037571  p :     9.944004
      px      :     3.453216
      py      :     3.453216
      dz2     :     0.037294  d :     0.123181
      dxz     :     0.042944
      dyz     :     0.042944
      dx2y2   :     0.000000
      dxy     :     0.000000
      f0      :     0.003915  f :     0.011595
      f+1     :     0.003840
      f-1     :     0.003840
      f+2     :     0.000000
      f-2     :     0.000000
      f+3     :     0.000000
      f-3     :     0.000000
  1 S s       :     5.921220  s :     5.921220
      pz      :     3.037571  p :     9.944004
      px      :     3.453216
      py      :     3.453216
      dz2     :     0.037294  d :     0.123181
      dxz     :     0.042944
      dyz     :     0.042944
      dx2y2   :     0.000000
      dxy     :     0.000000
      f0      :     0.003915  f :     0.011595
      f+1     :     0.003840
      f-1     :     0.003840
      f+2     :     0.000000
      f-2     :     0.000000
      f+3     :     0.000000
      f-3     :     0.000000

SPIN
  0 S s       :     0.013944  s :     0.013944
      pz      :    -0.015228  p :     1.011926
      px      :     0.513577
      py      :     0.513577
      dz2     :     0.002010  d :    -0.023746
      dxz     :    -0.012878
      dyz     :    -0.012878
      dx2y2   :     0.000000
      dxy     :    -0.000000
      f0      :    -0.000723  f :    -0.002121
      f+1     :    -0.000699
      f-1     :    -0.000699
      f+2     :    -0.000000
      f-2     :    -0.000000
      f+3     :    -0.000000
      f-3     :    -0.000000
  1 S s       :     0.013940  s :     0.013940
      pz      :    -0.015229  p :     1.011925
      px      :     0.513577
      py      :     0.513577
      dz2     :     0.002010  d :    -0.023746
      dxz     :    -0.012878
      dyz     :    -0.012878
      dx2y2   :    -0.000000
      dxy     :     0.000000
      f0      :    -0.000723  f :    -0.002121
      f+1     :    -0.000699
      f-1     :    -0.000699
      f+2     :    -0.000000
      f-2     :    -0.000000
      f+3     :    -0.000000
      f-3     :    -0.000000


                     *******************************
                     * LOEWDIN POPULATION ANALYSIS *
                     *******************************

-------------------------------------------
LOEWDIN ATOMIC CHARGES AND SPIN POPULATIONS
-------------------------------------------
   0 S :   -0.000000    1.000000
   1 S :    0.000000    1.000000

----------------------------------------------------
LOEWDIN REDUCED ORBITAL CHARGES AND SPIN POPULATIONS
----------------------------------------------------
CHARGE
  0 S s       :     5.554653  s :     5.554653
      pz      :     3.231142  p :     9.947261
      px      :     3.358059
      py      :     3.358059
      dz2     :     0.201329  d :     0.466604
      dxz     :     0.132637
      dyz     :     0.132637
      dx2y2   :     0.000000
      dxy     :     0.000000
      f0      :     0.012875  f :     0.031482
      f+1     :     0.009303
      f-1     :     0.009303
      f+2     :     0.000000
      f-2     :     0.000000
      f+3     :     0.000000
      f-3     :     0.000000
  1 S s       :     5.554653  s :     5.554653
      pz      :     3.231142  p :     9.947261
      px      :     3.358059
      py      :     3.358059
      dz2     :     0.201329  d :     0.466604
      dxz     :     0.132637
      dyz     :     0.132637
      dx2y2   :     0.000000
      dxy     :     0.000000
      f0      :     0.012875  f :     0.031482
      f+1     :     0.009303
      f-1     :     0.009303
      f+2     :     0.000000
      f-2     :     0.000000
      f+3     :     0.000000
      f-3     :     0.000000

SPIN
  0 S s       :     0.010148  s :     0.010148
      pz      :    -0.017632  p :     0.884994
      px      :     0.451313
      py      :     0.451313
      dz2     :     0.008109  d :     0.100521
      dxz     :     0.046206
      dyz     :     0.046206
      dx2y2   :     0.000000
      dxy     :    -0.000000
      f0      :    -0.000624  f :     0.004337
      f+1     :     0.002480
      f-1     :     0.002480
      f+2     :    -0.000000
      f-2     :    -0.000000
      f+3     :    -0.000000
      f-3     :    -0.000000
  1 S s       :     0.010147  s :     0.010147
      pz      :    -0.017632  p :     0.884994
      px      :     0.451313
      py      :     0.451313
      dz2     :     0.008109  d :     0.100521
      dxz     :     0.046206
      dyz     :     0.046206
      dx2y2   :    -0.000000
      dxy     :     0.000000
      f0      :    -0.000624  f :     0.004337
      f+1     :     0.002480
      f-1     :     0.002480
      f+2     :    -0.000000
      f-2     :    -0.000000
      f+3     :    -0.000000
      f-3     :    -0.000000


                      *****************************
                      * MAYER POPULATION ANALYSIS *
                      *****************************

  NA   - Mulliken gross atomic population
  ZA   - Total nuclear charge
  QA   - Mulliken gross atomic charge
  VA   - Mayer's total valence
  BVA  - Mayer's bonded valence
  FA   - Mayer's free valence

  ATOM       NA         ZA         QA         VA         BVA        FA
  0 S     16.0000    16.0000    -0.0000     2.5773     1.9315     0.6458
  1 S     16.0000    16.0000     0.0000     2.5773     1.9315     0.6458

  Mayer bond orders larger than 0.100000
B(  0-S ,  1-S ) :   1.9315 

-------
TIMINGS
-------

Total SCF time: 0 days 0 hours 0 min 44 sec 

Total time                  ....      44.157 sec
Sum of individual times     ....      43.629 sec  ( 98.8%)

Fock matrix formation       ....      41.658 sec  ( 94.3%)
  XC integration            ....      39.313 sec  ( 94.4% of F)
    Basis function eval.    ....       0.010 sec  (  0.0% of XC)
    Density eval.           ....       0.011 sec  (  0.0% of XC)
    XC-Functional eval.     ....       0.009 sec  (  0.0% of XC)
    XC-Potential eval.      ....       0.023 sec  (  0.1% of XC)
Diagonalization             ....       0.622 sec  (  1.4%)
Density matrix formation    ....       0.006 sec  (  0.0%)
Population analysis         ....       0.450 sec  (  1.0%)
Initial guess               ....       0.142 sec  (  0.3%)
Orbital Transformation      ....       0.000 sec  (  0.0%)
Orbital Orthonormalization  ....       0.000 sec  (  0.0%)
DIIS solution               ....       0.060 sec  (  0.1%)
Grid generation             ....       0.691 sec  (  1.6%)


           ************************************************************
           *        Program running with 28 parallel MPI-processes    *
           *              working on a common directory               *
           ************************************************************

------------------------------------------------------------------------------
                                ORCA  MP2 
------------------------------------------------------------------------------

Freezing NCore=20 chemical core electrons

-------------
RI-MP2 ENERGY
-------------
Dimension of the basis                    ...  102
Memory devoted to MP2                     ... 5000 MB   
Data format for buffers                   ... DOUBLE
Compression type for matrix containers    ... UNCOMPRESSED
Scaling for aa/bb pairs                   ...   4.000e-01
Scaling for ab pairs                      ...   4.700e-01
Overall scaling of the MP2 energy         ...   1.000e+00
Calculating two index integrals           ... done (    0.001 sec)
Cholesky decomposition of V**-1           ... done (    0.025 sec)

-----------------
RI-TRANSFORMATION (AUX index driven)
-----------------

Dimension of the orbital-basis         ... 102
Dimension of the aux-basis             ... 278
Transformation of internal/external MOs...   10-  16 to   17- 101
Number Format for Storage              ... Double (8 Byte)
Integral mode                          ... Direct

First Phase: integral generation and transformation of MO indices
  Aux angular momentum 0               ... done (    0.001 sec)
  Aux angular momentum 1               ... done (    0.002 sec)
  Aux angular momentum 2               ... done (    0.001 sec)
  Aux angular momentum 3               ... done (    0.001 sec)
  Aux angular momentum 4               ... done (    0.001 sec)
Closing buffer VIA ( 0.00 GB; CompressionRatio= 1.00)
  Phase 1 completed in     2.522 sec
Second Phase: sorting and transformation of aux index

IA-Transformation
Memory available                       ... 4999 MB 
Max. # MO pairs treated in a batch     ... 1    
# of internal orbitals                 ... 7
# batches for internal orbitals        ... 1
Closing buffer IAV ( 0.00 GB; CompressionRatio= 1.00)
(ia|v) transformation done in     0.111 sec

  Phase 2 completed in     2.406 sec
RI-Integral transformation completed in     5.345 sec

-----------------
RI-TRANSFORMATION (AUX index driven)
-----------------

Dimension of the orbital-basis         ... 102
Dimension of the aux-basis             ... 278
Transformation of internal/external MOs...   10-  14 to   15- 101
Number Format for Storage              ... Double (8 Byte)
Integral mode                          ... Direct

First Phase: integral generation and transformation of MO indices
  Aux angular momentum 0               ... done (    0.000 sec)
  Aux angular momentum 1               ... done (    0.002 sec)
  Aux angular momentum 2               ... done (    0.001 sec)
  Aux angular momentum 3               ... done (    0.001 sec)
  Aux angular momentum 4               ... done (    0.001 sec)
Closing buffer VIA ( 0.00 GB; CompressionRatio= 1.00)
  Phase 1 completed in     2.387 sec
Second Phase: sorting and transformation of aux index

IA-Transformation
Memory available                       ... 4999 MB 
Max. # MO pairs treated in a batch     ... 1    
# of internal orbitals                 ... 5
# batches for internal orbitals        ... 1
Closing buffer IAV ( 0.00 GB; CompressionRatio= 1.00)
(ia|v) transformation done in     0.563 sec

  Phase 2 completed in     2.261 sec
RI-Integral transformation completed in     4.977 sec
Opening buffers                              ... done

Starting loop over batches of integrals:

Operator 0  - window                       ... ( 10- 16)x( 17-101)
Operator 0  - Memory available             ...  5000 MB
Operator 0  - Memory needed per MO         ...   0.2 MB
Operator 0  - Number of orbitals per batch ... 1
Operator 0  - Number of batches            ... 1

OPERATOR  0   PASS   0:  MOs    10 ...   10 +   11 ...   11 +   12 ...   12 +   13 ...   13
                            +   14 ...   14 +   15 ...   15 +   16 ...   16
  Reading integrals       ... ok

Operator 1  - window                       ... ( 10- 14)x( 15-101)
Operator 1  - Memory available             ...  5000 MB
Operator 1  - Memory needed per MO         ...   0.2 MB
Operator 1  - Number of orbitals per batch ... 1
Operator 1  - Number of batches            ... 1

OPERATOR  1   PASS   0:  MOs    10 ...   10 +   11 ...   11 +   12 ...   12 +   13 ...   13
                            +   14 ...   14
  Reading integrals       ... ok
Time spent in pair loops =     0.005 sec
Deleting buffer (Ka|jb)[aa] ...done
Deleting buffer (Ka|jb)[ab] ...done
Deleting buffer (Ka|jb)[ba] ...done
Deleting buffer (Ka|jb)[bb] ...done

Spin-scaled correlation energy components}
 E2 and T2 for alpha/alpha pairs :     -0.020720668 Eh      0.000000000
 E2 and T2 for beta/beta   pairs :     -0.018765235 Eh      0.000000000
 E2 and T2 for alpha/beta  pairs :     -0.124637191 Eh      0.000000000


-----------------------------------------------
 RI-MP2 CORRELATION ENERGY:     -0.164123094 Eh
-----------------------------------------------


-------
TIMINGS
-------

Total time                :   12.897 sec
Integral trafo            :   10.349 sec ( 80.2%)
I/O of integrals          :    0.000 sec (  0.0%)
K(i,j) Operators          :    0.002 sec (  0.0%)
T(i,j) pair energies      :    0.000 sec (  0.0%)
V-calculation             :    0.001 sec (  0.0%)
V**(-1/2)                 :    0.025 sec (  0.2%)
Gamma(ia|P)               :    0.000 sec (  0.0%)
Gamma-Trafo               :    0.000 sec (  0.0%)
D(virtual)                :    0.000 sec (  0.0%)
D(internal)               :    0.000 sec (  0.0%)
W(virtual)                :    0.000 sec (  0.0%)
W(internal)               :    0.000 sec (  0.0%)
L(virtual)                :    0.000 sec (  0.0%)
L(internal)               :    0.000 sec (  0.0%)
G(D)                      :    0.000 sec (  0.0%)
G(Z)                      :    0.000 sec (  0.0%)
Z-Vector Solution         :    0.000 sec (  0.0%)
Z-Vector Solution         :    0.000 sec (  0.0%)
3-Index Derivative 
+ Separable RIJ part      :    0.000 sec (  0.0%)
2-Index Derivative 
+ Separable RIJ part      :    0.000 sec (  0.0%)
Separable Gradient (X)    :    0.000 sec (  0.0%)


---------------------------------------
MP2 TOTAL ENERGY:     -795.951726984 Eh
---------------------------------------


-------------------------------------------------------------------------------
                          DFT DISPERSION CORRECTION                            
                                                                               
                              DFTD3 V3.1  Rev 1                                
                          USING Becke-Johnson damping                          
-------------------------------------------------------------------------------
The DSD-BLYP/2013 functional is recognized
Active option DFTDOPT                   ...         4   

molecular C6(AA) [au] = 523.804030 


            DFT-D V3
 parameters
 s6 scaling factor         :     0.5700 
 a1 scaling factor         :     0.0000 
 s8 scaling factor         :     0.0000 
 a2 scaling factor         :     5.4000 
 ad hoc parameters k1-k3   :    16.0000     1.3333    -4.0000 

 Edisp/kcal,au: -1.728274532076  -0.002754180485 
 E6   /kcal   :  -1.728274532 
 E8   /kcal   :  -0.000000000 
 % E8         :   0.000000000 

-------------------------   ----------------
Dispersion correction           -0.002754180
-------------------------   ----------------


-------------------------   --------------------
FINAL SINGLE POINT ENERGY      -795.954481164676
-------------------------   --------------------


                            ***************************************
                            *     ORCA property calculations      *
                            ***************************************


  WARNING: The energy has been calculated at the MP2 level but the densities
           used in the property calculations are still SCF densities
           MP2 response densities have not been calculated 
           use %mp2 Density relaxed end
           or  %mp2 Density unrelaxed end

                                    ---------------------
                                    Active property flags
                                    ---------------------
   (+) Dipole Moment


------------------------------------------------------------------------------
                       ORCA ELECTRIC PROPERTIES CALCULATION
------------------------------------------------------------------------------

Dipole Moment Calculation                       ... on
Quadrupole Moment Calculation                   ... off
Polarizability Calculation                      ... off
GBWName                                         ... s2.gbw
Electron density file                           ... s2.scfp
The origin for moment calculation is the CENTER OF MASS  = ( 0.000000,  0.000000  0.000000)

-------------
DIPOLE MOMENT
-------------
                                X             Y             Z
Electronic contribution:      0.00000       0.00000       0.00000
Nuclear contribution   :      0.00000       0.00000       0.00000
                        -----------------------------------------
Total Dipole Moment    :      0.00000       0.00000       0.00000
                        -----------------------------------------
Magnitude (a.u.)       :      0.00000
Magnitude (Debye)      :      0.00000



--------------------
Rotational spectrum 
--------------------
 
Rotational constants in cm-1:     0.000000     0.284236     0.284236 
Rotational constants in MHz :     0.000000  8521.179234  8521.179234 

 Dipole components along the rotational axes: 
x,y,z [a.u.] :     0.000000     0.000000     0.000000 
x,y,z [Debye]:     0.000000     0.000000     0.000000 

 

Timings for individual modules:

Sum of individual times         ...       59.346 sec (=   0.989 min)
GTO integral calculation        ...        0.882 sec (=   0.015 min)   1.5 %
SCF iterations                  ...       44.720 sec (=   0.745 min)  75.4 %
MP2 module                      ...       13.744 sec (=   0.229 min)  23.2 %
                             ****ORCA TERMINATED NORMALLY****
TOTAL RUN TIME: 0 days 0 hours 1 minutes 20 seconds 78 msec
