
                                 *****************
                                 * O   R   C   A *
                                 *****************

           --- An Ab Initio, DFT and Semiempirical electronic structure package ---

                  #######################################################
                  #                        -***-                        #
                  #          Department of theory and spectroscopy      #
                  #               Directorship: Frank Neese             #
                  #        Max Planck Institute fuer Kohlenforschung    #
                  #                Kaiser Wilhelm Platz 1               #
                  #                 D-45470 Muelheim/Ruhr               #
                  #                      Germany                        #
                  #                                                     #
                  #                  All rights reserved                #
                  #                        -***-                        #
                  #######################################################


                         Program Version 4.2.0 -  RELEASE  -


 With contributions from (in alphabetic order):
   Daniel Aravena         : Magnetic Suceptibility
   Michael Atanasov       : Ab Initio Ligand Field Theory (pilot matlab implementation)
   Alexander A. Auer      : GIAO ZORA, VPT2
   Ute Becker             : Parallelization
   Giovanni Bistoni       : ED, misc. LED, open-shell LED, HFLED
   Martin Brehm           : Molecular dynamics
   Dmytro Bykov           : SCF Hessian
   Vijay G. Chilkuri      : MRCI spin determinant printing, contributions to CSF-ICE
   Dipayan Datta          : RHF DLPNO-CCSD density
   Achintya Kumar Dutta   : EOM-CC, STEOM-CC
   Dmitry Ganyushin       : Spin-Orbit,Spin-Spin,Magnetic field MRCI
   Miquel Garcia          : C-PCM Hessian, Gaussian charge scheme
   Yang Guo               : DLPNO-NEVPT2, CIM, IAO-localization
   Andreas Hansen         : Spin unrestricted coupled pair/coupled cluster methods
   Benjamin Helmich-Paris : CASSCF linear response (MC-RPA)
   Lee Huntington         : MR-EOM, pCC
   Robert Izsak           : Overlap fitted RIJCOSX, COSX-SCS-MP3, EOM
   Christian Kollmar      : KDIIS, OOCD, Brueckner-CCSD(T), CCSD density
   Simone Kossmann        : Meta GGA functionals, TD-DFT gradient, OOMP2, MP2 Hessian
   Martin Krupicka        : AUTO-CI
   Lucas Lang             : DCDCAS
   Dagmar Lenk            : GEPOL surface, SMD
   Dimitrios Liakos       : Extrapolation schemes; Compound Job, initial MDCI parallelization
   Dimitrios Manganas     : Further ROCIS development; embedding schemes
   Dimitrios Pantazis     : SARC Basis sets
   Taras Petrenko         : DFT Hessian,TD-DFT gradient, ASA, ECA, R-Raman, ABS, FL, XAS/XES, NRVS
   Peter Pinski           : DLPNO-MP2, DLPNO-MP2 Gradient
   Christoph Reimann      : Effective Core Potentials
   Marius Retegan         : Local ZFS, SOC
   Christoph Riplinger    : Optimizer, TS searches, QM/MM, DLPNO-CCSD(T), (RO)-DLPNO pert. Triples
   Tobias Risthaus        : Range-separated hybrids, TD-DFT gradient, RPA, STAB
   Michael Roemelt        : Original ROCIS implementation
   Masaaki Saitow         : Open-shell DLPNO-CCSD energy and density
   Barbara Sandhoefer     : DKH picture change effects
   Avijit Sen             : IP-ROCIS
   Kantharuban Sivalingam : CASSCF convergence, NEVPT2, FIC-MRCI
   Bernardo de Souza      : ESD, SOC TD-DFT
   Georgi Stoychev        : AutoAux, RI-MP2 NMR
   Willem Van den Heuvel  : Paramagnetic NMR
   Boris Wezisla          : Elementary symmetry handling
   Frank Wennmohs         : Technical directorship


 We gratefully acknowledge several colleagues who have allowed us to
 interface, adapt or use parts of their codes:
   Stefan Grimme, W. Hujo, H. Kruse,             : VdW corrections, initial TS optimization,
                  C. Bannwarth                     DFT functionals, gCP, sTDA/sTD-DF
   Ed Valeev, F. Pavosevic, A. Kumar             : LibInt (2-el integral package), F12 methods
   Garnet Chan, S. Sharma, J. Yang, R. Olivares  : DMRG
   Ulf Ekstrom                                   : XCFun DFT Library
   Mihaly Kallay                                 : mrcc  (arbitrary order and MRCC methods)
   Andreas Klamt, Michael Diedenhofen            : otool_cosmo (COSMO solvation model)
   Jiri Pittner, Ondrej Demel                    : Mk-CCSD
   Frank Weinhold                                : gennbo (NPA and NBO analysis)
   Christopher J. Cramer and Donald G. Truhlar   : smd solvation model
   Lars Goerigk                                  : TD-DFT with DH, B97 family of functionals
   V. Asgeirsson, H. Jonsson                     : NEB implementation
   FAccTs GmbH                                   : IRC, NEB, NEB-TS, Multilevel, MM, QM/MM, CI optimization
   S Lehtola, MJT Oliveira, MAL Marques          : LibXC Library


 Your calculation uses the libint2 library for the computation of 2-el integrals
 For citations please refer to: http://libint.valeyev.net

 Your ORCA version has been built with support for libXC version: 4.2.3
 For citations please refer to: https://tddft.org/programs/libxc/

 This ORCA versions uses:
   CBLAS   interface :  Fast vector & matrix operations
   LAPACKE interface :  Fast linear algebra routines
   SCALAPACK package :  Parallel linear algebra routines


Your calculation utilizes the atom-pairwise dispersion correction
with the Becke-Johnson damping scheme (D3BJ)
Cite in your paper:
S.Grimme, S.Ehrlich, L.Goerigk, J Comput Chem, (2011), 32, 1456–1465 
S.Grimme, J.Antony, S.Ehrlich and H.Krieg, J.Chem.Phys., 132, (2010), 154104 
   

----- Orbital basis set information -----
Your calculation utilizes the basis: def2-TZVPPD
   F. Weigend and R. Ahlrichs, Phys. Chem. Chem. Phys. 7, 3297 (2005).
   D. Rappoport and F. Furche, J. Chem. Phys. 133 134105 (2010).

----- AuxC basis set information -----
Your calculation utilizes the auxiliary basis: def2-TZVPPD/C
   A. Hellweg, C. Hattig, S. Hofener and W. Klopper, Theor. Chem. Acc. 117, 587 (2007).

----- AuxJK basis set information -----
Your calculation utilizes the auxiliary basis: def2/JK
   H-Ba, Hf-Rn: F. Weigend, J. Comput. Chem. 29, 167 (2008).

================================================================================
                                        WARNINGS
                       Please study these warnings very carefully!
================================================================================


WARNING: your system is open-shell and RHF/RKS was chosen
  ===> : WILL SWITCH to UHF/UKS


WARNING: No MP2 level density has been requested!
         To caclulate MP2 level properties use
         %mp2 Density relaxed end
         or
         %mp2 Density unrelaxed end
         Otherwise for double-hybrid DFT only the energy is correct!

WARNING: There are different parametrizations of Gershom Martin's DSD-DFs
         for use with and without D3(BJ)!
         You are using the D3(BJ) parametrized version,
         consistent with the 2013 article (S. Kozuch and J. M. L. Martin, JCC 2013, 34, 2327)

WARNING: The frozen-core approximation is turned on by default for 
         the MP2 part of double-hybrid DFT.

INFO   : the flag for use of LIBINT has been found!

================================================================================
                                       INPUT FILE
================================================================================
NAME = VS.in
|  1> #
|  2> # VS ri-DSD-BLYP/2013-D3BJ/Def2-TZVPPD
|  3> #
|  4> ! rijk ri-dsd-blyp/2013 d3bj def2-tzvppd def2/jk def2-tzvppd/c grid4 nofinalgrid
|  5> 
|  6> *xyz 0 4
|  7> V          0.00000        0.00000        0.00000
|  8> S          0.00000        0.00000        2.04800
|  9> *
| 10> 
| 11> %maxcore 5000
| 12> 
| 13> %pal
| 14> nprocs = 28
| 15> end
| 16> 
| 17> 
| 18>                          ****END OF INPUT****
================================================================================

                       ****************************
                       * Single Point Calculation *
                       ****************************

---------------------------------
CARTESIAN COORDINATES (ANGSTROEM)
---------------------------------
  V      0.000000    0.000000    0.000000
  S      0.000000    0.000000    2.048000

----------------------------
CARTESIAN COORDINATES (A.U.)
----------------------------
  NO LB      ZA    FRAG     MASS         X           Y           Z
   0 V    23.0000    0    50.940    0.000000    0.000000    0.000000
   1 S    16.0000    0    32.060    0.000000    0.000000    3.870159

--------------------------------
INTERNAL COORDINATES (ANGSTROEM)
--------------------------------
 V      0   0   0     0.000000000000     0.00000000     0.00000000
 S      1   0   0     2.048000000000     0.00000000     0.00000000

---------------------------
INTERNAL COORDINATES (A.U.)
---------------------------
 V      0   0   0     0.000000000000     0.00000000     0.00000000
 S      1   0   0     3.870159122271     0.00000000     0.00000000

---------------------
BASIS SET INFORMATION
---------------------
There are 2 groups of distinct atoms

 Group   1 Type V   : 17s13p7d2f1g contracted to 6s6p4d2f1g pattern {842111/631111/4111/11/1}
 Group   2 Type S   : 15s10p4d1f contracted to 6s6p4d1f pattern {732111/511111/1111/1}

Atom   0V    basis set group =>   1
Atom   1S    basis set group =>   2
---------------------------------
AUXILIARY/C BASIS SET INFORMATION
---------------------------------
There are 2 groups of distinct atoms

 Group   1 Type V   : 10s10p9d7f5g3h1i contracted to 10s10p9d7f5g3h1i pattern {1111111111/1111111111/111111111/1111111/11111/111/1}
 Group   2 Type S   : 12s9p8d6f2g contracted to 12s9p8d6f2g pattern {111111111111/111111111/11111111/111111/11}

Atom   0V    basis set group =>   1
Atom   1S    basis set group =>   2
----------------------------------
AUXILIARY/JK BASIS SET INFORMATION
----------------------------------
There are 2 groups of distinct atoms

 Group   1 Type V   : 19s14p12d10f7g3h1i contracted to 16s13p11d9f5g3h1i pattern {4111111111111111/2111111111111/21111111111/211111111/31111/111/1}
 Group   2 Type S   : 16s12p10d4f1g contracted to 13s11p9d4f1g pattern {4111111111111/21111111111/211111111/1111/1}

Atom   0V    basis set group =>   1
Atom   1S    basis set group =>   2


           ************************************************************
           *        Program running with 28 parallel MPI-processes    *
           *              working on a common directory               *
           ************************************************************
------------------------------------------------------------------------------
                           ORCA GTO INTEGRAL CALCULATION
                           -- RI-GTO INTEGRALS CHOSEN --
------------------------------------------------------------------------------

                         BASIS SET STATISTICS AND STARTUP INFO

Gaussian basis set:
 # of primitive gaussian shells          ...   70
 # of primitive gaussian functions       ...  186
 # of contracted shells                  ...   36
 # of contracted basis functions         ...  118
 Highest angular momentum                ...    4
 Maximum contraction depth               ...    8
Auxiliary gaussian basis set:
 # of primitive gaussian shells          ...  109
 # of primitive gaussian functions       ...  439
 # of contracted shells                  ...   96
 # of contracted aux-basis functions     ...  392
 Highest angular momentum                ...    6
 Maximum contraction depth               ...    4
Ratio of auxiliary to basis functions    ...  3.32
Integral package used                  ... LIBINT
 One Electron integrals                  ... done
 Ordering auxiliary basis shells         ... done
 Integral threshhold             Thresh  ...  1.000e-10
 Primitive cut-off               TCut    ...  1.000e-11
 Pre-screening matrix                    ... done
 Shell pair data                         ... 
 Ordering of the shell pairs             ... done (   0.000 sec) 653 of 666 pairs
 Determination of significant pairs      ... done (   0.000 sec)
 Creation of shell pair data             ... done (   0.000 sec)
 Storage of shell pair data              ... done (   0.022 sec)
 Shell pair data done in (   0.022 sec)
 Computing two index integrals           ... done
 Cholesky decomposition of the V-matrix  ... done


Timings:
 Total evaluation time                   ...   0.278 sec (  0.005 min)
 One electron matrix time                ...   0.022 sec (  0.000 min) =  8.1%
 Schwartz matrix evaluation time         ...   0.125 sec (  0.002 min) = 44.9%
 Two index repulsion integral time       ...   0.055 sec (  0.001 min) = 19.9%
 Cholesky decomposition of V             ...   0.026 sec (  0.000 min) =  9.4%
 Three index repulsion integral time     ...   0.000 sec (  0.000 min) =  0.0%



           ************************************************************
           *        Program running with 28 parallel MPI-processes    *
           *              working on a common directory               *
           ************************************************************
-------------------------------------------------------------------------------
                                 ORCA SCF
-------------------------------------------------------------------------------

------------
SCF SETTINGS
------------
Hamiltonian:
 Density Functional     Method          .... DFT(GTOs)
 Exchange Functional    Exchange        .... B88
   X-Alpha parameter    XAlpha          ....  0.666667
   Becke's b parameter  XBeta           ....  0.004200
 Correlation Functional Correlation     .... LYP
 LDA part of GGA corr.  LDAOpt          .... VWN-5
 Gradients option       PostSCFGGA      .... off
 Hybrid DFT is turned on
   Fraction HF Exchange ScalHFX         ....  0.710000
   Scaling of DF-GGA-X  ScalDFX         ....  0.290000
   Scaling of DF-GGA-C  ScalDFC         ....  0.540000
   Scaling of DF-LDA-C  ScalLDAC        ....  0.540000
   Perturbative correction              ....  1.000000
   Density functional embedding theory  .... OFF
 RI-approximation to the Coulomb term is turned on
   Number of auxiliary basis functions  .... 392
   RI-JK (J+K treated both via RI)      .... on


General Settings:
 Integral files         IntName         .... VS
 Hartree-Fock type      HFTyp           .... UHF
 Total Charge           Charge          ....    0
 Multiplicity           Mult            ....    4
 Number of Electrons    NEL             ....   39
 Basis Dimension        Dim             ....  118
 Nuclear Repulsion      ENuc            ....     95.0865296164 Eh

Convergence Acceleration:
 DIIS                   CNVDIIS         .... on
   Start iteration      DIISMaxIt       ....    12
   Startup error        DIISStart       ....  0.200000
   # of expansion vecs  DIISMaxEq       ....     5
   Bias factor          DIISBfac        ....   1.050
   Max. coefficient     DIISMaxC        ....  10.000
 Newton-Raphson         CNVNR           .... off
 SOSCF                  CNVSOSCF        .... off
 Level Shifting         CNVShift        .... on
   Level shift para.    LevelShift      ....    0.2500
   Turn off err/grad.   ShiftErr        ....    0.0010
 Zerner damping         CNVZerner       .... off
 Static damping         CNVDamp         .... on
   Fraction old density DampFac         ....    0.7000
   Max. Damping (<1)    DampMax         ....    0.9800
   Min. Damping (>=0)   DampMin         ....    0.0000
   Turn off err/grad.   DampErr         ....    0.1000
 Fernandez-Rico         CNVRico         .... off

SCF Procedure:
 Maximum # iterations   MaxIter         ....   125
 SCF integral mode      SCFMode         .... Direct
   Integral package                     .... LIBINT
 Reset frequency        DirectResetFreq ....    20
 Integral Threshold     Thresh          ....  1.000e-10 Eh
 Primitive CutOff       TCut            ....  1.000e-11 Eh

Convergence Tolerance:
 Convergence Check Mode ConvCheckMode   .... Total+1el-Energy
 Convergence forced     ConvForced      .... 0
 Energy Change          TolE            ....  1.000e-06 Eh
 1-El. energy change                    ....  1.000e-03 Eh
 DIIS Error             TolErr          ....  1.000e-06


Diagonalization of the overlap matrix:
Smallest eigenvalue                        ... 6.697e-04
Time for diagonalization                   ...    0.002 sec
Threshold for overlap eigenvalues          ... 1.000e-08
Number of eigenvalues below threshold      ... 0
Time for construction of square roots      ...    0.079 sec
Total time needed                          ...    0.082 sec

-------------------
DFT GRID GENERATION
-------------------

General Integration Accuracy     IntAcc      ...  4.670
Radial Grid Type                 RadialGrid  ... Gauss-Chebyshev
Angular Grid (max. acc.)         AngularGrid ... Lebedev-302
Angular grid pruning method      GridPruning ... 3 (G Style)
Weight generation scheme         WeightScheme... Becke
Basis function cutoff            BFCut       ...    1.0000e-10
Integration weight cutoff        WCut        ...    1.0000e-14
Grids for H and He will be reduced by one unit

# of grid points (after initial pruning)     ...  16510 (   0.0 sec)
# of grid points (after weights+screening)   ...  16481 (   0.0 sec)
nearest neighbour list constructed           ...    0.0 sec
Grid point re-assignment to atoms done       ...    0.0 sec
Grid point division into batches done        ...    0.1 sec
Reduced shell lists constructed in    0.1 sec

Total number of grid points                  ...    16481
Total number of batches                      ...      259
Average number of points per batch           ...       63
Average number of grid points per atom       ...     8240
Average number of shells per batch           ...     7.00 (19.44%)
Average number of basis functions per batch  ...    20.09 (17.03%)
Average number of large shells per batch     ...     5.27 (75.32%)
Average number of large basis fcns per batch ...    14.91 (74.21%)
Average number of aux-shells per batch       ...     7.00 ( 7.29%)
Average number of aux functions per batch    ...    20.09 ( 5.13%)
Maximum spatial batch extension              ...  24.49, 24.19, 17.58 au
Average spatial batch extension              ...   0.77,  0.76,  0.57 au

Time for grid setup =    1.021 sec

------------------------------
INITIAL GUESS: MODEL POTENTIAL
------------------------------
Loading Hartree-Fock densities                     ... done
Calculating cut-offs                               ... done
Setting up the integral package                    ... done
Initializing the effective Hamiltonian             ... done
Starting the Coulomb interaction                   ... done (   0.0 sec)
Reading the grid                                   ... done
Mapping shells                                     ... done
Starting the XC term evaluation                    ... done (   0.0 sec)
  promolecular density results
     # of electrons  =     39.000006689
     EX              =    -69.183269043
     EC              =     -0.225007400
     EX+EC           =    -69.408276443
Transforming the Hamiltonian                       ... done (   0.0 sec)
Diagonalizing the Hamiltonian                      ... done (   0.0 sec)
Back transforming the eigenvectors                 ... done (   0.0 sec)
Now organizing SCF variables                       ... done
                      ------------------
                      INITIAL GUESS DONE (   1.2 sec)
                      ------------------
--------------
SCF ITERATIONS
--------------
ITER       Energy         Delta-E        Max-DP      RMS-DP      [F,P]     Damp
  0  -1341.2377787580   0.000000000000 0.04281633  0.00068013  0.1402364 0.7000
  1  -1341.2364366640   0.001342094030 0.03855910  0.00067977  0.1213303 0.7000
                               ***Turning on DIIS***
  2  -1341.2470193224  -0.010582658470 0.07111629  0.00154844  0.0707044 0.0000
  3  -1341.3135199134  -0.066500590958 0.03965397  0.00068910  0.0699808 0.0000
  4  -1341.3355113015  -0.021991388135 0.01278792  0.00030828  0.0187498 0.0000
  5  -1341.3389089686  -0.003397667035 0.00806078  0.00018771  0.0184694 0.0000
  6  -1341.3406624525  -0.001753483919 0.00846827  0.00016562  0.0067156 0.0000
  7  -1341.3416596569  -0.000997204400 0.00624839  0.00014684  0.0045446 0.0000
  8  -1341.3422857963  -0.000626139404 0.00510425  0.00012463  0.0027594 0.0000
  9  -1341.3426298666  -0.000344070352 0.00368368  0.00008345  0.0014950 0.0000
 10  -1341.3427701535  -0.000140286810 0.00377652  0.00009020  0.0009351 0.0000
 11  -1341.3428501396  -0.000079986195 0.00131721  0.00002820  0.0004314 0.0000
 12  -1341.3428601926  -0.000010052950 0.00092202  0.00001341  0.0002664 0.0000
 13  -1341.3428629628  -0.000002770225 0.00104152  0.00001731  0.0002314 0.0000
 14  -1341.3428659913  -0.000003028513 0.00114247  0.00001465  0.0001196 0.0000
 15  -1341.3428676388  -0.000001647488 0.00137690  0.00001613  0.0000653 0.0000
 16  -1341.3428686767  -0.000001037881 0.00102036  0.00001131  0.0000410 0.0000
 17  -1341.3428689753  -0.000000298605 0.00026882  0.00000299  0.0000166 0.0000
                 **** Energy Check signals convergence ****

               *****************************************************
               *                     SUCCESS                       *
               *           SCF CONVERGED AFTER  18 CYCLES          *
               *****************************************************


----------------
TOTAL SCF ENERGY
----------------

Total Energy       :        -1341.34286901 Eh          -36499.79508 eV

Components:
Nuclear Repulsion  :           95.08652962 Eh            2587.43601 eV
Electronic Energy  :        -1436.42939863 Eh          -39087.23109 eV
One Electron Energy:        -2036.41560463 Eh          -55413.68578 eV
Two Electron Energy:          599.98620600 Eh           16326.45469 eV

Virial components:
Potential Energy   :        -2681.68264264 Eh          -72972.29455 eV
Kinetic Energy     :         1340.33977363 Eh           36472.49947 eV
Virial Ratio       :            2.00074839


DFT components:
N(Alpha)           :       20.999999777870 electrons
N(Beta)            :       17.999999563524 electrons
N(Total)           :       38.999999341395 electrons
E(X)               :      -20.138195219932 Eh       
E(C)               :       -0.891502193809 Eh       
E(XC)              :      -21.029697413741 Eh       
DFET-embed. en.    :        0.000000000000 Eh       

---------------
SCF CONVERGENCE
---------------

  Last Energy change         ...   -3.4095e-08  Tolerance :   1.0000e-06
  Last MAX-Density change    ...    4.4556e-05  Tolerance :   1.0000e-05
  Last RMS-Density change    ...    9.8593e-07  Tolerance :   1.0000e-06
  Last DIIS Error            ...    6.4408e-06  Tolerance :   1.0000e-06

             **** THE GBW FILE WAS UPDATED (VS.gbw) ****
             **** DENSITY FILE WAS UPDATED (VS.scfp) ****
             **** ENERGY FILE WAS UPDATED (VS.en.tmp) ****
----------------------
UHF SPIN CONTAMINATION
----------------------

Warning: in a DFT calculation there is little theoretical justification to 
         calculate <S**2> as in Hartree-Fock theory. We will do it anyways
         but you should keep in mind that the values have only limited relevance

Expectation value of <S**2>     :     3.916852
Ideal value S*(S+1) for S=1.5   :     3.750000
Deviation                       :     0.166852

             **** THE GBW FILE WAS UPDATED (VS.gbw) ****
             **** DENSITY FILE WAS UPDATED (VS.scfp) ****
----------------
ORBITAL ENERGIES
----------------
                 SPIN UP ORBITALS
  NO   OCC          E(Eh)            E(eV) 
   0   1.0000    -199.837642     -5437.8587 
   1   1.0000     -90.763525     -2469.8011 
   2   1.0000     -23.295895      -633.9135 
   3   1.0000     -19.572683      -532.5998 
   4   1.0000     -19.570539      -532.5414 
   5   1.0000     -19.570539      -532.5414 
   6   1.0000      -8.511034      -231.5970 
   7   1.0000      -6.290684      -171.1782 
   8   1.0000      -6.290684      -171.1782 
   9   1.0000      -6.289639      -171.1498 
  10   1.0000      -3.049636       -82.9848 
  11   1.0000      -1.981446       -53.9179 
  12   1.0000      -1.981446       -53.9179 
  13   1.0000      -1.962677       -53.4072 
  14   1.0000      -0.732760       -19.9394 
  15   1.0000      -0.411232       -11.1902 
  16   1.0000      -0.379494       -10.3266 
  17   1.0000      -0.379494       -10.3266 
  18   1.0000      -0.287759        -7.8303 
  19   1.0000      -0.287759        -7.8303 
  20   1.0000      -0.265466        -7.2237 
  21   0.0000      -0.054939        -1.4950 
  22   0.0000      -0.006910        -0.1880 
  23   0.0000      -0.006910        -0.1880 
  24   0.0000       0.047535         1.2935 
  25   0.0000       0.055567         1.5121 
  26   0.0000       0.055567         1.5121 
  27   0.0000       0.073195         1.9917 
  28   0.0000       0.096412         2.6235 
  29   0.0000       0.096412         2.6235 
  30   0.0000       0.116809         3.1785 
  31   0.0000       0.122732         3.3397 
  32   0.0000       0.122732         3.3397 
  33   0.0000       0.158214         4.3052 
  34   0.0000       0.158214         4.3052 
  35   0.0000       0.178749         4.8640 
  36   0.0000       0.216990         5.9046 
  37   0.0000       0.216990         5.9046 
  38   0.0000       0.225449         6.1348 
  39   0.0000       0.267961         7.2916 
  40   0.0000       0.267961         7.2916 
  41   0.0000       0.312222         8.4960 
  42   0.0000       0.322950         8.7879 
  43   0.0000       0.322950         8.7879 
  44   0.0000       0.343460         9.3460 
  45   0.0000       0.454548        12.3689 
  46   0.0000       0.454548        12.3689 
  47   0.0000       0.536834        14.6080 
  48   0.0000       0.614908        16.7325 
  49   0.0000       0.614908        16.7325 
  50   0.0000       0.642568        17.4852 
  51   0.0000       0.644191        17.5293 
  52   0.0000       0.644191        17.5293 
  53   0.0000       0.686695        18.6859 
  54   0.0000       0.686695        18.6859 
  55   0.0000       0.731624        19.9085 
  56   0.0000       0.731625        19.9085 
  57   0.0000       0.778838        21.1933 
  58   0.0000       0.835959        22.7476 
  59   0.0000       0.835959        22.7476 
  60   0.0000       0.874411        23.7939 
  61   0.0000       1.186956        32.2987 
  62   0.0000       1.201678        32.6993 
  63   0.0000       1.201678        32.6993 
  64   0.0000       1.231053        33.4987 
  65   0.0000       1.231054        33.4987 
  66   0.0000       1.420070        38.6421 
  67   0.0000       1.420070        38.6421 
  68   0.0000       1.675752        45.5995 
  69   0.0000       1.853385        50.4332 
  70   0.0000       1.853395        50.4334 
  71   0.0000       1.870177        50.8901 
  72   0.0000       1.870177        50.8901 
  73   0.0000       1.877529        51.0902 
  74   0.0000       1.877529        51.0902 
  75   0.0000       1.889026        51.4030 
  76   0.0000       1.918006        52.1916 
  77   0.0000       1.918006        52.1916 
  78   0.0000       1.964256        53.4501 
  79   0.0000       2.006009        54.5863 
  80   0.0000       2.006857        54.6093 
  81   0.0000       2.006857        54.6094 
  82   0.0000       2.178393        59.2771 
  83   0.0000       2.178393        59.2771 
  84   0.0000       2.269158        61.7469 
  85   0.0000       2.371349        64.5277 
  86   0.0000       2.371349        64.5277 
  87   0.0000       2.534207        68.9593 
  88   0.0000       2.617049        71.2135 
  89   0.0000       2.617053        71.2136 
  90   0.0000       2.752328        74.8946 
  91   0.0000       2.752328        74.8946 
  92   0.0000       3.460649        94.1690 
  93   0.0000       4.297808       116.9493 
  94   0.0000       4.297829       116.9499 
  95   0.0000       4.305676       117.1634 
  96   0.0000       4.305676       117.1634 
  97   0.0000       4.332189       117.8849 
  98   0.0000       4.332190       117.8849 
  99   0.0000       4.456262       121.2611 
 100   0.0000       4.463371       121.4545 
 101   0.0000       4.463371       121.4545 
 102   0.0000       4.802251       130.6759 
 103   0.0000       4.802251       130.6759 
 104   0.0000       4.873191       132.6063 
 105   0.0000       4.873193       132.6063 
 106   0.0000       5.026129       136.7679 
 107   0.0000       5.026129       136.7679 
 108   0.0000       5.161608       140.4545 
 109   0.0000       7.182918       195.4571 
 110   0.0000       7.182954       195.4581 
 111   0.0000       7.227116       196.6598 
 112   0.0000       7.227116       196.6598 
 113   0.0000       7.341851       199.7819 
 114   0.0000       9.473366       257.7834 
 115   0.0000       9.473366       257.7834 
 116   0.0000       9.717349       264.4225 
 117   0.0000      19.178939       521.8855 

                 SPIN DOWN ORBITALS
  NO   OCC          E(Eh)            E(eV) 
   0   1.0000    -199.836307     -5437.8224 
   1   1.0000     -90.768754     -2469.9434 
   2   1.0000     -23.246862      -632.5793 
   3   1.0000     -19.541403      -531.7486 
   4   1.0000     -19.517055      -531.0861 
   5   1.0000     -19.517055      -531.0861 
   6   1.0000      -8.515847      -231.7280 
   7   1.0000      -6.301350      -171.4685 
   8   1.0000      -6.297629      -171.3672 
   9   1.0000      -6.297629      -171.3672 
  10   1.0000      -2.882476       -78.4361 
  11   1.0000      -1.824123       -49.6369 
  12   1.0000      -1.756253       -47.7901 
  13   1.0000      -1.756253       -47.7901 
  14   1.0000      -0.766833       -20.8666 
  15   1.0000      -0.335874        -9.1396 
  16   1.0000      -0.298843        -8.1319 
  17   1.0000      -0.298843        -8.1319 
  18   0.0000      -0.052494        -1.4284 
  19   0.0000       0.014312         0.3895 
  20   0.0000       0.014312         0.3895 
  21   0.0000       0.031676         0.8620 
  22   0.0000       0.070291         1.9127 
  23   0.0000       0.080019         2.1774 
  24   0.0000       0.090296         2.4571 
  25   0.0000       0.090296         2.4571 
  26   0.0000       0.099235         2.7003 
  27   0.0000       0.099235         2.7003 
  28   0.0000       0.103374         2.8129 
  29   0.0000       0.103374         2.8129 
  30   0.0000       0.148614         4.0440 
  31   0.0000       0.148614         4.0440 
  32   0.0000       0.150149         4.0858 
  33   0.0000       0.221860         6.0371 
  34   0.0000       0.224366         6.1053 
  35   0.0000       0.228216         6.2101 
  36   0.0000       0.228216         6.2101 
  37   0.0000       0.230611         6.2752 
  38   0.0000       0.230612         6.2753 
  39   0.0000       0.265996         7.2381 
  40   0.0000       0.265996         7.2381 
  41   0.0000       0.319948         8.7062 
  42   0.0000       0.323147         8.7933 
  43   0.0000       0.323147         8.7933 
  44   0.0000       0.352548         9.5933 
  45   0.0000       0.483476        13.1560 
  46   0.0000       0.483476        13.1560 
  47   0.0000       0.557188        15.1619 
  48   0.0000       0.608167        16.5491 
  49   0.0000       0.608167        16.5491 
  50   0.0000       0.656820        17.8730 
  51   0.0000       0.656820        17.8730 
  52   0.0000       0.657335        17.8870 
  53   0.0000       0.686590        18.6831 
  54   0.0000       0.686590        18.6831 
  55   0.0000       0.778975        21.1970 
  56   0.0000       0.803325        21.8596 
  57   0.0000       0.803327        21.8596 
  58   0.0000       0.855396        23.2765 
  59   0.0000       0.855396        23.2765 
  60   0.0000       0.911565        24.8049 
  61   0.0000       1.186751        32.2931 
  62   0.0000       1.263758        34.3886 
  63   0.0000       1.263758        34.3886 
  64   0.0000       1.284232        34.9457 
  65   0.0000       1.284232        34.9457 
  66   0.0000       1.444415        39.3045 
  67   0.0000       1.444415        39.3045 
  68   0.0000       1.687366        45.9156 
  69   0.0000       1.844786        50.1992 
  70   0.0000       1.844796        50.1994 
  71   0.0000       1.865571        50.7648 
  72   0.0000       1.865571        50.7648 
  73   0.0000       1.906838        51.8877 
  74   0.0000       1.906838        51.8877 
  75   0.0000       1.913769        52.0763 
  76   0.0000       1.937528        52.7228 
  77   0.0000       1.937528        52.7228 
  78   0.0000       1.987300        54.0772 
  79   0.0000       1.998793        54.3899 
  80   0.0000       1.998793        54.3899 
  81   0.0000       2.045774        55.6683 
  82   0.0000       2.168067        58.9961 
  83   0.0000       2.168067        58.9961 
  84   0.0000       2.264576        61.6223 
  85   0.0000       2.374498        64.6134 
  86   0.0000       2.374498        64.6134 
  87   0.0000       2.618564        71.2548 
  88   0.0000       2.733431        74.3804 
  89   0.0000       2.733432        74.3805 
  90   0.0000       2.786992        75.8379 
  91   0.0000       2.786992        75.8379 
  92   0.0000       3.491929        95.0202 
  93   0.0000       4.353699       118.4702 
  94   0.0000       4.353699       118.4702 
  95   0.0000       4.375690       119.0686 
  96   0.0000       4.375691       119.0686 
  97   0.0000       4.385041       119.3230 
  98   0.0000       4.385071       119.3238 
  99   0.0000       4.517535       122.9284 
 100   0.0000       4.518585       122.9570 
 101   0.0000       4.518585       122.9570 
 102   0.0000       4.954703       134.8243 
 103   0.0000       4.954704       134.8244 
 104   0.0000       4.976661       135.4218 
 105   0.0000       4.976661       135.4218 
 106   0.0000       5.119712       139.3144 
 107   0.0000       5.119712       139.3144 
 108   0.0000       5.269571       143.3923 
 109   0.0000       7.180027       195.3785 
 110   0.0000       7.180062       195.3794 
 111   0.0000       7.222889       196.5448 
 112   0.0000       7.222889       196.5448 
 113   0.0000       7.338243       199.6838 
 114   0.0000       9.466511       257.5969 
 115   0.0000       9.466511       257.5969 
 116   0.0000       9.706431       264.1254 
 117   0.0000      19.172370       521.7067 

                    ********************************
                    * MULLIKEN POPULATION ANALYSIS *
                    ********************************

--------------------------------------------
MULLIKEN ATOMIC CHARGES AND SPIN POPULATIONS
--------------------------------------------
   0 V :    0.566527    3.543340
   1 S :   -0.566527   -0.543340
Sum of atomic charges         :   -0.0000000
Sum of atomic spin populations:    3.0000000

-----------------------------------------------------
MULLIKEN REDUCED ORBITAL CHARGES AND SPIN POPULATIONS
-----------------------------------------------------
CHARGE
  0 V s       :     6.673537  s :     6.673537
      pz      :     4.044734  p :    12.194325
      px      :     4.074796
      py      :     4.074796
      dz2     :     0.999426  d :     3.551074
      dxz     :     0.276584
      dyz     :     0.276584
      dx2y2   :     0.999240
      dxy     :     0.999240
      f0      :     0.003433  f :     0.013938
      f+1     :     0.005094
      f-1     :     0.005094
      f+2     :     0.000159
      f-2     :     0.000159
      f+3     :     0.000000
      f-3     :     0.000000
      g0      :     0.000253  g :     0.000598
      g+1     :     0.000169
      g-1     :     0.000169
      g+2     :     0.000004
      g-2     :     0.000004
      g+3     :     0.000000
      g-3     :     0.000000
      g+4     :     0.000000
      g-4     :     0.000000
  1 S s       :     5.906654  s :     5.906654
      pz      :     3.358086  p :    10.608452
      px      :     3.625183
      py      :     3.625183
      dz2     :     0.011529  d :     0.046158
      dxz     :     0.016885
      dyz     :     0.016885
      dx2y2   :     0.000429
      dxy     :     0.000429
      f0      :     0.002349  f :     0.005263
      f+1     :     0.001289
      f-1     :     0.001289
      f+2     :     0.000168
      f-2     :     0.000168
      f+3     :     0.000000
      f-3     :     0.000000

SPIN
  0 V s       :     0.470353  s :     0.470353
      pz      :     0.010049  p :     0.068969
      px      :     0.029460
      py      :     0.029460
      dz2     :     0.789848  d :     3.005511
      dxz     :     0.108591
      dyz     :     0.108591
      dx2y2   :     0.999240
      dxy     :     0.999240
      f0      :    -0.000733  f :    -0.001513
      f+1     :    -0.000549
      f-1     :    -0.000549
      f+2     :     0.000159
      f-2     :     0.000159
      f+3     :    -0.000000
      f-3     :    -0.000000
      g0      :     0.000044  g :     0.000020
      g+1     :    -0.000016
      g-1     :    -0.000016
      g+2     :     0.000004
      g-2     :     0.000004
      g+3     :    -0.000000
      g-3     :    -0.000000
      g+4     :     0.000000
      g-4     :     0.000000
  1 S s       :    -0.026923  s :    -0.026923
      pz      :    -0.246166  p :    -0.534723
      px      :    -0.144278
      py      :    -0.144278
      dz2     :     0.002440  d :     0.016388
      dxz     :     0.006545
      dyz     :     0.006545
      dx2y2   :     0.000429
      dxy     :     0.000429
      f0      :     0.001088  f :     0.001918
      f+1     :     0.000247
      f-1     :     0.000247
      f+2     :     0.000168
      f-2     :     0.000168
      f+3     :    -0.000000
      f-3     :    -0.000000


                     *******************************
                     * LOEWDIN POPULATION ANALYSIS *
                     *******************************

-------------------------------------------
LOEWDIN ATOMIC CHARGES AND SPIN POPULATIONS
-------------------------------------------
   0 V :    0.147215    3.285481
   1 S :   -0.147215   -0.285481

----------------------------------------------------
LOEWDIN REDUCED ORBITAL CHARGES AND SPIN POPULATIONS
----------------------------------------------------
CHARGE
  0 V s       :     6.427399  s :     6.427399
      pz      :     4.233835  p :    12.467028
      px      :     4.116597
      py      :     4.116597
      dz2     :     1.167380  d :     3.900132
      dxz     :     0.370221
      dyz     :     0.370221
      dx2y2   :     0.996155
      dxy     :     0.996155
      f0      :     0.023487  f :     0.056451
      f+1     :     0.016269
      f-1     :     0.016269
      f+2     :     0.000213
      f-2     :     0.000213
      f+3     :     0.000000
      f-3     :     0.000000
      g0      :     0.000872  g :     0.001775
      g+1     :     0.000446
      g-1     :     0.000446
      g+2     :     0.000006
      g-2     :     0.000006
      g+3     :     0.000000
      g-3     :     0.000000
      g+4     :     0.000000
      g-4     :     0.000000
  1 S s       :     5.537300  s :     5.537300
      pz      :     3.511154  p :    10.467515
      px      :     3.478180
      py      :     3.478180
      dz2     :     0.087382  d :     0.127960
      dxz     :     0.017127
      dyz     :     0.017127
      dx2y2   :     0.003162
      dxy     :     0.003162
      f0      :     0.011191  f :     0.014440
      f+1     :     0.001159
      f-1     :     0.001159
      f+2     :     0.000465
      f-2     :     0.000465
      f+3     :     0.000000
      f-3     :     0.000000

SPIN
  0 V s       :     0.307071  s :     0.307071
      pz      :     0.000540  p :     0.039542
      px      :     0.019501
      py      :     0.019501
      dz2     :     0.765560  d :     2.947314
      dxz     :     0.094723
      dyz     :     0.094723
      dx2y2   :     0.996155
      dxy     :     0.996155
      f0      :    -0.003843  f :    -0.008191
      f+1     :    -0.002387
      f-1     :    -0.002387
      f+2     :     0.000213
      f-2     :     0.000213
      f+3     :    -0.000000
      f-3     :    -0.000000
      g0      :    -0.000133  g :    -0.000256
      g+1     :    -0.000067
      g-1     :    -0.000067
      g+2     :     0.000006
      g-2     :     0.000006
      g+3     :    -0.000000
      g-3     :    -0.000000
      g+4     :     0.000000
      g-4     :     0.000000
  1 S s       :     0.023808  s :     0.023808
      pz      :    -0.112575  p :    -0.351486
      px      :    -0.119455
      py      :    -0.119455
      dz2     :     0.016299  d :     0.037164
      dxz     :     0.007271
      dyz     :     0.007271
      dx2y2   :     0.003162
      dxy     :     0.003162
      f0      :     0.003274  f :     0.005033
      f+1     :     0.000415
      f-1     :     0.000415
      f+2     :     0.000465
      f-2     :     0.000465
      f+3     :    -0.000000
      f-3     :    -0.000000


                      *****************************
                      * MAYER POPULATION ANALYSIS *
                      *****************************

  NA   - Mulliken gross atomic population
  ZA   - Total nuclear charge
  QA   - Mulliken gross atomic charge
  VA   - Mayer's total valence
  BVA  - Mayer's bonded valence
  FA   - Mayer's free valence

  ATOM       NA         ZA         QA         VA         BVA        FA
  0 V     22.4335    23.0000     0.5665     5.1214     2.0639     3.0575
  1 S     16.5665    16.0000    -0.5665     2.1796     2.0639     0.1157

  Mayer bond orders larger than 0.100000
B(  0-V ,  1-S ) :   2.0639 

-------
TIMINGS
-------

Total SCF time: 0 days 0 hours 1 min 56 sec 

Total time                  ....     116.927 sec
Sum of individual times     ....     116.101 sec  ( 99.3%)

Fock matrix formation       ....     112.000 sec  ( 95.8%)
  XC integration            ....     103.934 sec  ( 92.8% of F)
    Basis function eval.    ....       0.034 sec  (  0.0% of XC)
    Density eval.           ....       0.036 sec  (  0.0% of XC)
    XC-Functional eval.     ....       0.028 sec  (  0.0% of XC)
    XC-Potential eval.      ....       0.069 sec  (  0.1% of XC)
Diagonalization             ....       2.151 sec  (  1.8%)
Density matrix formation    ....       0.024 sec  (  0.0%)
Population analysis         ....       0.548 sec  (  0.5%)
Initial guess               ....       0.150 sec  (  0.1%)
Orbital Transformation      ....       0.000 sec  (  0.0%)
Orbital Orthonormalization  ....       0.000 sec  (  0.0%)
DIIS solution               ....       0.208 sec  (  0.2%)
Grid generation             ....       1.021 sec  (  0.9%)


           ************************************************************
           *        Program running with 28 parallel MPI-processes    *
           *              working on a common directory               *
           ************************************************************

------------------------------------------------------------------------------
                                ORCA  MP2 
------------------------------------------------------------------------------

Freezing NCore=20 chemical core electrons

-------------
RI-MP2 ENERGY
-------------
Dimension of the basis                    ...  118
Memory devoted to MP2                     ... 5000 MB   
Data format for buffers                   ... DOUBLE
Compression type for matrix containers    ... UNCOMPRESSED
Scaling for aa/bb pairs                   ...   4.000e-01
Scaling for ab pairs                      ...   4.700e-01
Overall scaling of the MP2 energy         ...   1.000e+00
Calculating two index integrals           ... done (    0.004 sec)
Cholesky decomposition of V**-1           ... done (    0.020 sec)

-----------------
RI-TRANSFORMATION (AUX index driven)
-----------------

Dimension of the orbital-basis         ... 118
Dimension of the aux-basis             ... 364
Transformation of internal/external MOs...   10-  20 to   21- 117
Number Format for Storage              ... Double (8 Byte)
Integral mode                          ... Direct

First Phase: integral generation and transformation of MO indices
  Aux angular momentum 0               ... done (    0.001 sec)
  Aux angular momentum 1               ... done (    0.001 sec)
  Aux angular momentum 2               ... done (    0.001 sec)
  Aux angular momentum 3               ... done (    0.002 sec)
  Aux angular momentum 4               ... done (    0.002 sec)
  Aux angular momentum 5               ... done (    0.006 sec)
  Aux angular momentum 6               ... done (    0.006 sec)
Closing buffer VIA ( 0.00 GB; CompressionRatio= 1.00)
  Phase 1 completed in     1.602 sec
Second Phase: sorting and transformation of aux index

IA-Transformation
Memory available                       ... 4998 MB 
Max. # MO pairs treated in a batch     ... 1    
# of internal orbitals                 ... 11
# batches for internal orbitals        ... 1
Closing buffer IAV ( 0.00 GB; CompressionRatio= 1.00)
(ia|v) transformation done in     0.267 sec

  Phase 2 completed in     1.522 sec
RI-Integral transformation completed in     3.393 sec

-----------------
RI-TRANSFORMATION (AUX index driven)
-----------------

Dimension of the orbital-basis         ... 118
Dimension of the aux-basis             ... 364
Transformation of internal/external MOs...   10-  17 to   18- 117
Number Format for Storage              ... Double (8 Byte)
Integral mode                          ... Direct

First Phase: integral generation and transformation of MO indices
  Aux angular momentum 0               ... done (    0.001 sec)
  Aux angular momentum 1               ... done (    0.001 sec)
  Aux angular momentum 2               ... done (    0.001 sec)
  Aux angular momentum 3               ... done (    0.002 sec)
  Aux angular momentum 4               ... done (    0.002 sec)
  Aux angular momentum 5               ... done (    0.003 sec)
  Aux angular momentum 6               ... done (    0.007 sec)
Closing buffer VIA ( 0.00 GB; CompressionRatio= 1.00)
  Phase 1 completed in     1.600 sec
Second Phase: sorting and transformation of aux index

IA-Transformation
Memory available                       ... 4998 MB 
Max. # MO pairs treated in a batch     ... 1    
# of internal orbitals                 ... 8
# batches for internal orbitals        ... 1
Closing buffer IAV ( 0.00 GB; CompressionRatio= 1.00)
(ia|v) transformation done in     0.161 sec

  Phase 2 completed in     1.522 sec
RI-Integral transformation completed in     3.603 sec
Opening buffers                              ... done

Starting loop over batches of integrals:

Operator 0  - window                       ... ( 10- 20)x( 21-117)
Operator 0  - Memory available             ...  5000 MB
Operator 0  - Memory needed per MO         ...   0.3 MB
Operator 0  - Number of orbitals per batch ... 1
Operator 0  - Number of batches            ... 1

OPERATOR  0   PASS   0:  MOs    10 ...   10 +   11 ...   11 +   12 ...   12 +   13 ...   13
                            +   14 ...   14 +   15 ...   15 +   16 ...   16 +   17 ...   17
                            +   18 ...   18 +   19 ...   19 +   20 ...   20
  Reading integrals       ... ok

Operator 1  - window                       ... ( 10- 17)x( 18-117)
Operator 1  - Memory available             ...  5000 MB
Operator 1  - Memory needed per MO         ...   0.3 MB
Operator 1  - Number of orbitals per batch ... 1
Operator 1  - Number of batches            ... 1

OPERATOR  1   PASS   0:  MOs    10 ...   10 +   11 ...   11 +   12 ...   12 +   13 ...   13
                            +   14 ...   14 +   15 ...   15 +   16 ...   16 +   17 ...   17
  Reading integrals       ... ok
Time spent in pair loops =     0.118 sec
Deleting buffer (Ka|jb)[aa] ...done
Deleting buffer (Ka|jb)[ab] ...done
Deleting buffer (Ka|jb)[ba] ...done
Deleting buffer (Ka|jb)[bb] ...done

Spin-scaled correlation energy components}
 E2 and T2 for alpha/alpha pairs :     -0.059847455 Eh      0.000000000
 E2 and T2 for beta/beta   pairs :     -0.027443319 Eh      0.000000000
 E2 and T2 for alpha/beta  pairs :     -0.206064654 Eh      0.000000000


-----------------------------------------------
 RI-MP2 CORRELATION ENERGY:     -0.293355429 Eh
-----------------------------------------------


-------
TIMINGS
-------

Total time                :    7.601 sec
Integral trafo            :    7.016 sec ( 92.3%)
I/O of integrals          :    0.000 sec (  0.0%)
K(i,j) Operators          :    0.005 sec (  0.1%)
T(i,j) pair energies      :    0.000 sec (  0.0%)
V-calculation             :    0.004 sec (  0.1%)
V**(-1/2)                 :    0.020 sec (  0.3%)
Gamma(ia|P)               :    0.000 sec (  0.0%)
Gamma-Trafo               :    0.000 sec (  0.0%)
D(virtual)                :    0.000 sec (  0.0%)
D(internal)               :    0.000 sec (  0.0%)
W(virtual)                :    0.000 sec (  0.0%)
W(internal)               :    0.000 sec (  0.0%)
L(virtual)                :    0.000 sec (  0.0%)
L(internal)               :    0.000 sec (  0.0%)
G(D)                      :    0.000 sec (  0.0%)
G(Z)                      :    0.000 sec (  0.0%)
Z-Vector Solution         :    0.000 sec (  0.0%)
Z-Vector Solution         :    0.000 sec (  0.0%)
3-Index Derivative 
+ Separable RIJ part      :    0.000 sec (  0.0%)
2-Index Derivative 
+ Separable RIJ part      :    0.000 sec (  0.0%)
Separable Gradient (X)    :    0.000 sec (  0.0%)


---------------------------------------
MP2 TOTAL ENERGY:    -1341.636224438 Eh
---------------------------------------


-------------------------------------------------------------------------------
                          DFT DISPERSION CORRECTION                            
                                                                               
                              DFTD3 V3.1  Rev 1                                
                          USING Becke-Johnson damping                          
-------------------------------------------------------------------------------
The DSD-BLYP/2013 functional is recognized
Active option DFTDOPT                   ...         4   

molecular C6(AA) [au] = 1115.795535 


            DFT-D V3
 parameters
 s6 scaling factor         :     0.5700 
 a1 scaling factor         :     0.0000 
 s8 scaling factor         :     0.0000 
 a2 scaling factor         :     5.4000 
 ad hoc parameters k1-k3   :    16.0000     1.3333    -4.0000 

 Edisp/kcal,au: -3.054948628586  -0.004868370007 
 E6   /kcal   :  -3.054948629 
 E8   /kcal   :  -0.000000000 
 % E8         :   0.000000000 

-------------------------   ----------------
Dispersion correction           -0.004868370
-------------------------   ----------------


-------------------------   --------------------
FINAL SINGLE POINT ENERGY     -1341.641092808149
-------------------------   --------------------


                            ***************************************
                            *     ORCA property calculations      *
                            ***************************************


  WARNING: The energy has been calculated at the MP2 level but the densities
           used in the property calculations are still SCF densities
           MP2 response densities have not been calculated 
           use %mp2 Density relaxed end
           or  %mp2 Density unrelaxed end

                                    ---------------------
                                    Active property flags
                                    ---------------------
   (+) Dipole Moment


------------------------------------------------------------------------------
                       ORCA ELECTRIC PROPERTIES CALCULATION
------------------------------------------------------------------------------

Dipole Moment Calculation                       ... on
Quadrupole Moment Calculation                   ... off
Polarizability Calculation                      ... off
GBWName                                         ... VS.gbw
Electron density file                           ... VS.scfp
The origin for moment calculation is the CENTER OF MASS  = ( 0.000000,  0.000000  1.494907)

-------------
DIPOLE MOMENT
-------------
                                X             Y             Z
Electronic contribution:      0.00000      -0.00000      -6.55027
Nuclear contribution   :      0.00000       0.00000       3.62116
                        -----------------------------------------
Total Dipole Moment    :      0.00000      -0.00000      -2.92910
                        -----------------------------------------
Magnitude (a.u.)       :      2.92910
Magnitude (Debye)      :      7.44519



--------------------
Rotational spectrum 
--------------------
 
Rotational constants in cm-1:     0.000000     0.204264     0.204264 
Rotational constants in MHz :     0.000000  6123.691915  6123.691915 

 Dipole components along the rotational axes: 
x,y,z [a.u.] :    -2.929102    -0.000000     0.000000 
x,y,z [Debye]:    -7.445186    -0.000000     0.000000 

 

Timings for individual modules:

Sum of individual times         ...      126.857 sec (=   2.114 min)
GTO integral calculation        ...        0.909 sec (=   0.015 min)   0.7 %
SCF iterations                  ...      117.562 sec (=   1.959 min)  92.7 %
MP2 module                      ...        8.386 sec (=   0.140 min)   6.6 %
                             ****ORCA TERMINATED NORMALLY****
TOTAL RUN TIME: 0 days 0 hours 2 minutes 14 seconds 696 msec
