
                                 *****************
                                 * O   R   C   A *
                                 *****************

           --- An Ab Initio, DFT and Semiempirical electronic structure package ---

                  #######################################################
                  #                        -***-                        #
                  #          Department of theory and spectroscopy      #
                  #               Directorship: Frank Neese             #
                  #        Max Planck Institute fuer Kohlenforschung    #
                  #                Kaiser Wilhelm Platz 1               #
                  #                 D-45470 Muelheim/Ruhr               #
                  #                      Germany                        #
                  #                                                     #
                  #                  All rights reserved                #
                  #                        -***-                        #
                  #######################################################


                         Program Version 4.2.0 -  RELEASE  -


 With contributions from (in alphabetic order):
   Daniel Aravena         : Magnetic Suceptibility
   Michael Atanasov       : Ab Initio Ligand Field Theory (pilot matlab implementation)
   Alexander A. Auer      : GIAO ZORA, VPT2
   Ute Becker             : Parallelization
   Giovanni Bistoni       : ED, misc. LED, open-shell LED, HFLED
   Martin Brehm           : Molecular dynamics
   Dmytro Bykov           : SCF Hessian
   Vijay G. Chilkuri      : MRCI spin determinant printing, contributions to CSF-ICE
   Dipayan Datta          : RHF DLPNO-CCSD density
   Achintya Kumar Dutta   : EOM-CC, STEOM-CC
   Dmitry Ganyushin       : Spin-Orbit,Spin-Spin,Magnetic field MRCI
   Miquel Garcia          : C-PCM Hessian, Gaussian charge scheme
   Yang Guo               : DLPNO-NEVPT2, CIM, IAO-localization
   Andreas Hansen         : Spin unrestricted coupled pair/coupled cluster methods
   Benjamin Helmich-Paris : CASSCF linear response (MC-RPA)
   Lee Huntington         : MR-EOM, pCC
   Robert Izsak           : Overlap fitted RIJCOSX, COSX-SCS-MP3, EOM
   Christian Kollmar      : KDIIS, OOCD, Brueckner-CCSD(T), CCSD density
   Simone Kossmann        : Meta GGA functionals, TD-DFT gradient, OOMP2, MP2 Hessian
   Martin Krupicka        : AUTO-CI
   Lucas Lang             : DCDCAS
   Dagmar Lenk            : GEPOL surface, SMD
   Dimitrios Liakos       : Extrapolation schemes; Compound Job, initial MDCI parallelization
   Dimitrios Manganas     : Further ROCIS development; embedding schemes
   Dimitrios Pantazis     : SARC Basis sets
   Taras Petrenko         : DFT Hessian,TD-DFT gradient, ASA, ECA, R-Raman, ABS, FL, XAS/XES, NRVS
   Peter Pinski           : DLPNO-MP2, DLPNO-MP2 Gradient
   Christoph Reimann      : Effective Core Potentials
   Marius Retegan         : Local ZFS, SOC
   Christoph Riplinger    : Optimizer, TS searches, QM/MM, DLPNO-CCSD(T), (RO)-DLPNO pert. Triples
   Tobias Risthaus        : Range-separated hybrids, TD-DFT gradient, RPA, STAB
   Michael Roemelt        : Original ROCIS implementation
   Masaaki Saitow         : Open-shell DLPNO-CCSD energy and density
   Barbara Sandhoefer     : DKH picture change effects
   Avijit Sen             : IP-ROCIS
   Kantharuban Sivalingam : CASSCF convergence, NEVPT2, FIC-MRCI
   Bernardo de Souza      : ESD, SOC TD-DFT
   Georgi Stoychev        : AutoAux, RI-MP2 NMR
   Willem Van den Heuvel  : Paramagnetic NMR
   Boris Wezisla          : Elementary symmetry handling
   Frank Wennmohs         : Technical directorship


 We gratefully acknowledge several colleagues who have allowed us to
 interface, adapt or use parts of their codes:
   Stefan Grimme, W. Hujo, H. Kruse,             : VdW corrections, initial TS optimization,
                  C. Bannwarth                     DFT functionals, gCP, sTDA/sTD-DF
   Ed Valeev, F. Pavosevic, A. Kumar             : LibInt (2-el integral package), F12 methods
   Garnet Chan, S. Sharma, J. Yang, R. Olivares  : DMRG
   Ulf Ekstrom                                   : XCFun DFT Library
   Mihaly Kallay                                 : mrcc  (arbitrary order and MRCC methods)
   Andreas Klamt, Michael Diedenhofen            : otool_cosmo (COSMO solvation model)
   Jiri Pittner, Ondrej Demel                    : Mk-CCSD
   Frank Weinhold                                : gennbo (NPA and NBO analysis)
   Christopher J. Cramer and Donald G. Truhlar   : smd solvation model
   Lars Goerigk                                  : TD-DFT with DH, B97 family of functionals
   V. Asgeirsson, H. Jonsson                     : NEB implementation
   FAccTs GmbH                                   : IRC, NEB, NEB-TS, Multilevel, MM, QM/MM, CI optimization
   S Lehtola, MJT Oliveira, MAL Marques          : LibXC Library


 Your calculation uses the libint2 library for the computation of 2-el integrals
 For citations please refer to: http://libint.valeyev.net

 Your ORCA version has been built with support for libXC version: 4.2.3
 For citations please refer to: https://tddft.org/programs/libxc/

 This ORCA versions uses:
   CBLAS   interface :  Fast vector & matrix operations
   LAPACKE interface :  Fast linear algebra routines
   SCALAPACK package :  Parallel linear algebra routines


Your calculation utilizes the atom-pairwise dispersion correction
with the Becke-Johnson damping scheme (D3BJ)
Cite in your paper:
S.Grimme, S.Ehrlich, L.Goerigk, J Comput Chem, (2011), 32, 1456–1465 
S.Grimme, J.Antony, S.Ehrlich and H.Krieg, J.Chem.Phys., 132, (2010), 154104 
   

----- Orbital basis set information -----
Your calculation utilizes the basis: def2-TZVPPD
   F. Weigend and R. Ahlrichs, Phys. Chem. Chem. Phys. 7, 3297 (2005).
   D. Rappoport and F. Furche, J. Chem. Phys. 133 134105 (2010).

----- AuxJ basis set information -----
Your calculation utilizes the auxiliary basis: def2/J
   F. Weigend, Phys. Chem. Chem. Phys. 8, 1057 (2006).

cite the ECPs for Ag [Def2-ECP] as follows:
Ce-Yb(ecp-28): M. Dolg, H. Stoll, H.Preuss, J. Chem. Phys., 1989, 90, 1730-1734.
Y-Cd(ecp-28), Hf-Hg(ecp-46): D. Andrae,U. Haeussermann, M. Dolg, H. Stoll, H. Preuss, Theor. Chim. Acta, 1990, 77, 123-141.
In-Sb(ecp-28), Tl-Bi(ecp-46): B. Metz, H. Stoll, M. Dolg, J. Chem. Phys., 2000, 113, 2563-2569.
Te-Xe(ecp-28), Po-Rn(ecp-46): K. A. Peterson, D. Figgen, E. Goll, H. Stoll, M. Dolg, J. Chem. Phys., 2003, 119, 11113-11123.
Rb(ecp-28), Cs(ecp-46): T. Leininger, A. Nicklass, W. Kuechle, H. Stoll, M. Dolg, A. Bergner, Chem. Phys. Lett., 1996, 255, 274-280.
Sr(ecp-28), Ba(ecp-46): M. Kaupp, P. V. Schleyer, H. Stoll and H. Preuss, J. Chem. Phys., 1991, 94, 1360-1366.
La(ecp-46): M. Dolg, H. Stoll, A. Savin, H. Preuss, Theor. Chim. Acta, 1989, 75, 173-194.
Lu(ecp-28): X. Cao, M. Dolg, J. Chem. Phys., 2001, 115, 7348-7355.

ECP parameters for Ag [Def2-ECP] have been obtained from:
TURBOMOLE (7.0.2)

================================================================================
                                        WARNINGS
                       Please study these warnings very carefully!
================================================================================


INFO   : the flag for use of LIBINT has been found!

================================================================================
                                       INPUT FILE
================================================================================
NAME = AgH.in
|  1> #
|  2> # AgH TPSS-D3BJ/Def2-TZVPPD
|  3> #
|  4> ! tpss d3bj def2-tzvppd def2/j grid4 nofinalgrid
|  5> 
|  6> *xyz 0 1
|  7> Ag         0.00000        0.00000        0.00000
|  8> H          0.00000        0.00000        1.61800
|  9> *
| 10> 
| 11> %maxcore 5000
| 12> 
| 13> %pal
| 14> nprocs = 28
| 15> end
| 16> 
| 17> 
| 18>                          ****END OF INPUT****
================================================================================

                       ****************************
                       * Single Point Calculation *
                       ****************************

---------------------------------
CARTESIAN COORDINATES (ANGSTROEM)
---------------------------------
  Ag     0.000000    0.000000    0.000000
  H      0.000000    0.000000    1.618000

----------------------------
CARTESIAN COORDINATES (A.U.)
----------------------------
  NO LB      ZA    FRAG     MASS         X           Y           Z
   0 Ag   19.0000*   0   107.870    0.000000    0.000000    0.000000
   1 H     1.0000    0     1.008    0.000000    0.000000    3.057577
* core charge reduced due to ECP

--------------------------------
INTERNAL COORDINATES (ANGSTROEM)
--------------------------------
 Ag     0   0   0     0.000000000000     0.00000000     0.00000000
 H      1   0   0     1.618000000000     0.00000000     0.00000000

---------------------------
INTERNAL COORDINATES (A.U.)
---------------------------
 Ag     0   0   0     0.000000000000     0.00000000     0.00000000
 H      1   0   0     3.057576884685     0.00000000     0.00000000

---------------------
BASIS SET INFORMATION
---------------------
There are 2 groups of distinct atoms

 Group   1 Type Ag  : 7s7p6d2f1g contracted to 6s4p3d2f1g pattern {211111/4111/411/11/1}
 Group   2 Type H   : 5s3p1d contracted to 3s3p1d pattern {311/111/1}

Atom   0Ag   basis set group =>   1
Atom   1H    basis set group =>   2
---------------------------------
AUXILIARY/J BASIS SET INFORMATION
---------------------------------
There are 2 groups of distinct atoms

 Group   1 Type Ag  : 11s5p5d3f3g contracted to 8s5p5d2f3g pattern {41111111/11111/11111/21/111}
 Group   2 Type H   : 5s2p1d contracted to 3s1p1d pattern {311/2/1}

Atom   0Ag   basis set group =>   1
Atom   1H    basis set group =>   2
-------------------------
ECP PARAMETER INFORMATION
-------------------------

 Group 1, Type Ag ECP Def2-ECP (replacing 28 core electrons, lmax=3)

Atom   0Ag   ECP group =>   1



           ************************************************************
           *        Program running with 28 parallel MPI-processes    *
           *              working on a common directory               *
           ************************************************************
------------------------------------------------------------------------------
                           ORCA GTO INTEGRAL CALCULATION
                           -- RI-GTO INTEGRALS CHOSEN --
------------------------------------------------------------------------------

                         BASIS SET STATISTICS AND STARTUP INFO

Gaussian basis set:
 # of primitive gaussian shells          ...   32
 # of primitive gaussian functions       ...  100
 # of contracted shells                  ...   23
 # of contracted basis functions         ...   73
 Highest angular momentum                ...    4
 Maximum contraction depth               ...    4
Auxiliary gaussian basis set:
 # of primitive gaussian shells          ...   35
 # of primitive gaussian functions       ...  115
 # of contracted shells                  ...   28
 # of contracted aux-basis functions     ...  100
 Highest angular momentum                ...    4
 Maximum contraction depth               ...    4
Ratio of auxiliary to basis functions    ...  1.37
Integral package used                  ... LIBINT
 One Electron integrals                  
   ECP integrals                         ... done
 Ordering auxiliary basis shells         ... done
 Integral threshhold             Thresh  ...  1.000e-10
 Primitive cut-off               TCut    ...  1.000e-11
 Pre-screening matrix                    ... done
 Shell pair data                         ... 
 Ordering of the shell pairs             ... done (   0.000 sec) 276 of 276 pairs
 Determination of significant pairs      ... done (   0.000 sec)
 Creation of shell pair data             ... done (   0.000 sec)
 Storage of shell pair data              ... done (   0.046 sec)
 Shell pair data done in (   0.046 sec)
 Computing two index integrals           ... done
 Cholesky decomposition of the V-matrix  ... done


Timings:
 Total evaluation time                   ...   0.876 sec (  0.015 min)
 One electron matrix time                ...   0.389 sec (  0.006 min) = 44.4%
 Schwartz matrix evaluation time         ...   0.113 sec (  0.002 min) = 12.9%
 Two index repulsion integral time       ...   0.127 sec (  0.002 min) = 14.5%
 Cholesky decomposition of V             ...   0.062 sec (  0.001 min) =  7.1%
 Three index repulsion integral time     ...   0.000 sec (  0.000 min) =  0.0%



           ************************************************************
           *        Program running with 28 parallel MPI-processes    *
           *              working on a common directory               *
           ************************************************************
-------------------------------------------------------------------------------
                                 ORCA SCF
-------------------------------------------------------------------------------

------------
SCF SETTINGS
------------
Hamiltonian:
 Density Functional     Method          .... DFT(GTOs)
 Exchange Functional    Exchange        .... TPSS
 Correlation Functional Correlation     .... TPSS
 LDA part of GGA corr.  LDAOpt          .... PW91-LDA
 Gradients option       PostSCFGGA      .... off
   Density functional embedding theory  .... OFF
   NL short-range parameter             ....  5.000000
 RI-approximation to the Coulomb term is turned on
   Number of auxiliary basis functions  .... 100


General Settings:
 Integral files         IntName         .... AgH
 Hartree-Fock type      HFTyp           .... RHF
 Total Charge           Charge          ....    0
 Multiplicity           Mult            ....    1
 Number of Electrons    NEL             ....   20
 Basis Dimension        Dim             ....   73
 Nuclear Repulsion      ENuc            ....      6.2140710493 Eh

Convergence Acceleration:
 DIIS                   CNVDIIS         .... on
   Start iteration      DIISMaxIt       ....    12
   Startup error        DIISStart       ....  0.200000
   # of expansion vecs  DIISMaxEq       ....     5
   Bias factor          DIISBfac        ....   1.050
   Max. coefficient     DIISMaxC        ....  10.000
 Newton-Raphson         CNVNR           .... off
 SOSCF                  CNVSOSCF        .... off
 Level Shifting         CNVShift        .... on
   Level shift para.    LevelShift      ....    0.2500
   Turn off err/grad.   ShiftErr        ....    0.0010
 Zerner damping         CNVZerner       .... off
 Static damping         CNVDamp         .... on
   Fraction old density DampFac         ....    0.7000
   Max. Damping (<1)    DampMax         ....    0.9800
   Min. Damping (>=0)   DampMin         ....    0.0000
   Turn off err/grad.   DampErr         ....    0.1000
 Fernandez-Rico         CNVRico         .... off

SCF Procedure:
 Maximum # iterations   MaxIter         ....   125
 SCF integral mode      SCFMode         .... Direct
   Integral package                     .... LIBINT
 Reset frequency        DirectResetFreq ....    20
 Integral Threshold     Thresh          ....  1.000e-10 Eh
 Primitive CutOff       TCut            ....  1.000e-11 Eh

Convergence Tolerance:
 Convergence Check Mode ConvCheckMode   .... Total+1el-Energy
 Convergence forced     ConvForced      .... 0
 Energy Change          TolE            ....  1.000e-06 Eh
 1-El. energy change                    ....  1.000e-03 Eh
 DIIS Error             TolErr          ....  1.000e-06


Diagonalization of the overlap matrix:
Smallest eigenvalue                        ... 3.417e-03
Time for diagonalization                   ...    0.002 sec
Threshold for overlap eigenvalues          ... 1.000e-08
Number of eigenvalues below threshold      ... 0
Time for construction of square roots      ...    0.085 sec
Total time needed                          ...    0.086 sec

-------------------
DFT GRID GENERATION
-------------------

General Integration Accuracy     IntAcc      ...  4.670
Radial Grid Type                 RadialGrid  ... Gauss-Chebyshev
Angular Grid (max. acc.)         AngularGrid ... Lebedev-302
Angular grid pruning method      GridPruning ... 3 (G Style)
Weight generation scheme         WeightScheme... Becke
Basis function cutoff            BFCut       ...    1.0000e-10
Integration weight cutoff        WCut        ...    1.0000e-14
Grids for H and He will be reduced by one unit

# of grid points (after initial pruning)     ...  14052 (   0.0 sec)
# of grid points (after weights+screening)   ...  13996 (   0.0 sec)
nearest neighbour list constructed           ...    0.0 sec
Grid point re-assignment to atoms done       ...    0.0 sec
Grid point division into batches done        ...    0.1 sec
Reduced shell lists constructed in    0.1 sec

Total number of grid points                  ...    13996
Total number of batches                      ...      220
Average number of points per batch           ...       63
Average number of grid points per atom       ...     6998
Average number of shells per batch           ...     1.78 ( 7.73%)
Average number of basis functions per batch  ...     3.56 ( 4.87%)
Average number of large shells per batch     ...     1.67 (93.75%)
Average number of large basis fcns per batch ...     3.44 (96.88%)
Maximum spatial batch extension              ...  40.43, 36.77, 24.61 au
Average spatial batch extension              ...   1.13,  0.98,  0.73 au

Time for grid setup =    2.022 sec

------------------------------
INITIAL GUESS: MODEL POTENTIAL
------------------------------
Loading Hartree-Fock densities                     ... done
  calling /mnt/storage/software/apps/orca-4.2.0/orca_4_2_0_linux_x86-64_openmpi314/orca AgH_atom47.inp > AgH_atom47.out in order to generate an atomic fitting density for atom 0 (Ag with ECP) on-the-fly... 
    atom 0 (Ag), assumed electronic state with S=2: 1s2 2s2 2p6 3s2 3p6 4s2 3d10 4p6 5s2 4d9           ... done
Calculating cut-offs                               ... done
Setting up the integral package                    ... done
Initializing the effective Hamiltonian             ... done
Starting the Coulomb interaction                   ... done (   0.0 sec)
Reading the grid                                   ... done
Mapping shells                                     ... done
Starting the XC term evaluation                    ... done (   0.0 sec)
  promolecular density results
     # of electrons  =     48.000708681
     EX              =   -143.700281502
     EC              =     -2.507356505
     EX+EC           =   -146.207638007
Transforming the Hamiltonian                       ... done (   0.0 sec)
Diagonalizing the Hamiltonian                      ... done (   0.0 sec)
Back transforming the eigenvectors                 ... done (   0.0 sec)
Now organizing SCF variables                       ... done
                      ------------------
                      INITIAL GUESS DONE (  17.3 sec)
                      ------------------
--------------
SCF ITERATIONS
--------------
ITER       Energy         Delta-E        Max-DP      RMS-DP      [F,P]     Damp
               ***  Starting incremental Fock matrix formation  ***
  0   -147.3931990837   0.000000000000 0.09896868  0.00352367  0.5108614 0.7000
  1   -147.4481118279  -0.054912744199 0.03762592  0.00181058  0.3288472 0.7000
  2   -147.4658481609  -0.017736332965 0.03405933  0.00094859  0.2165447 0.7000
                               ***Turning on DIIS***
  3   -147.4776171124  -0.011768951483 0.02922033  0.00063047  0.1492346 0.7000
  4   -147.4860624722  -0.008445359839 0.00522838  0.00024170  0.1050996 0.7000
  5   -147.4920345696  -0.005972097348 0.00944072  0.00043777  0.0733284 0.0000
  6   -147.5060037650  -0.013969195442 0.00435936  0.00015633  0.0042134 0.0000
  7   -147.5060348499  -0.000031084856 0.00149101  0.00004885  0.0012203 0.0000
  8   -147.5060402462  -0.000005396384 0.00431712  0.00009587  0.0004857 0.0000
  9   -147.5060414526  -0.000001206316 0.00137583  0.00003111  0.0007531 0.0000
 10   -147.5060425152  -0.000001062682 0.00051836  0.00001167  0.0002892 0.0000
 11   -147.5060426334  -0.000000118113 0.00022264  0.00000430  0.0001128 0.0000
                 **** Energy Check signals convergence ****

               *****************************************************
               *                     SUCCESS                       *
               *           SCF CONVERGED AFTER  12 CYCLES          *
               *****************************************************


----------------
TOTAL SCF ENERGY
----------------

Total Energy       :         -147.50604266 Eh           -4013.84348 eV

Components:
Nuclear Repulsion  :            6.21407105 Eh             169.09347 eV
Electronic Energy  :         -153.72011371 Eh           -4182.93695 eV
One Electron Energy:         -273.69094382 Eh           -7447.50921 eV
Two Electron Energy:          119.97083011 Eh            3264.57225 eV

Virial components:
Potential Energy   :         -204.11566625 Eh           -5554.26965 eV
Kinetic Energy     :           56.60962359 Eh            1540.42617 eV
Virial Ratio       :            3.60567079


DFT components:
N(Alpha)           :        9.999999016050 electrons
N(Beta)            :        9.999999016050 electrons
N(Total)           :       19.999998032099 electrons
E(X)               :      -13.540657880166 Eh       
E(C)               :       -0.845798840725 Eh       
E(XC)              :      -14.386456720892 Eh       
DFET-embed. en.    :        0.000000000000 Eh       

---------------
SCF CONVERGENCE
---------------

  Last Energy change         ...   -2.6253e-08  Tolerance :   1.0000e-06
  Last MAX-Density change    ...    1.9092e-05  Tolerance :   1.0000e-05
  Last RMS-Density change    ...    3.7088e-07  Tolerance :   1.0000e-06
  Last DIIS Error            ...    4.6039e-06  Tolerance :   1.0000e-06

             **** THE GBW FILE WAS UPDATED (AgH.gbw) ****
             **** DENSITY FILE WAS UPDATED (AgH.scfp) ****
             **** ENERGY FILE WAS UPDATED (AgH.en.tmp) ****
             **** THE GBW FILE WAS UPDATED (AgH.gbw) ****
             **** DENSITY FILE WAS UPDATED (AgH.scfp) ****
----------------
ORBITAL ENERGIES
----------------

  NO   OCC          E(Eh)            E(eV) 
   0   2.0000      -3.605417       -98.1084 
   1   2.0000      -2.233463       -60.7756 
   2   2.0000      -2.224039       -60.5192 
   3   2.0000      -2.224039       -60.5192 
   4   2.0000      -0.341907        -9.3038 
   5   2.0000      -0.286709        -7.8017 
   6   2.0000      -0.286709        -7.8017 
   7   2.0000      -0.277719        -7.5571 
   8   2.0000      -0.277719        -7.5571 
   9   2.0000      -0.214354        -5.8329 
  10   0.0000      -0.099716        -2.7134 
  11   0.0000      -0.016696        -0.4543 
  12   0.0000      -0.016696        -0.4543 
  13   0.0000       0.063710         1.7336 
  14   0.0000       0.081902         2.2287 
  15   0.0000       0.159002         4.3267 
  16   0.0000       0.159812         4.3487 
  17   0.0000       0.159812         4.3487 
  18   0.0000       0.203126         5.5273 
  19   0.0000       0.203126         5.5273 
  20   0.0000       0.364391         9.9156 
  21   0.0000       0.394359        10.7311 
  22   0.0000       0.394359        10.7311 
  23   0.0000       0.426313        11.6006 
  24   0.0000       0.498680        13.5698 
  25   0.0000       0.498680        13.5698 
  26   0.0000       0.562000        15.2928 
  27   0.0000       0.830074        22.5875 
  28   0.0000       0.830074        22.5875 
  29   0.0000       1.035426        28.1754 
  30   0.0000       1.530505        41.6472 
  31   0.0000       1.530511        41.6473 
  32   0.0000       1.541705        41.9519 
  33   0.0000       1.541705        41.9519 
  34   0.0000       1.556514        42.3549 
  35   0.0000       1.556514        42.3549 
  36   0.0000       1.608584        43.7718 
  37   0.0000       1.608584        43.7718 
  38   0.0000       1.620465        44.0951 
  39   0.0000       1.801152        49.0118 
  40   0.0000       1.971968        53.6600 
  41   0.0000       1.981550        53.9207 
  42   0.0000       1.981557        53.9209 
  43   0.0000       2.044360        55.6299 
  44   0.0000       2.044360        55.6299 
  45   0.0000       2.185784        59.4782 
  46   0.0000       2.679955        72.9253 
  47   0.0000       3.258542        88.6694 
  48   0.0000       3.258662        88.6727 
  49   0.0000       3.458107        94.0999 
  50   0.0000       3.458107        94.0999 
  51   0.0000       3.942069       107.2691 
  52   0.0000       3.942069       107.2691 
  53   0.0000       3.943643       107.3120 
  54   0.0000       4.528406       123.2242 
  55   0.0000       4.724514       128.5606 
  56   0.0000       4.724514       128.5606 
  57   0.0000       4.736518       128.8872 
  58   0.0000       4.736527       128.8874 
  59   0.0000       4.918030       133.8264 
  60   0.0000       4.918030       133.8264 
  61   0.0000       5.135245       139.7371 
  62   0.0000       5.500756       149.6832 
  63   0.0000       5.500756       149.6832 
  64   0.0000       5.501844       149.7128 
  65   0.0000       5.501853       149.7130 
  66   0.0000       5.505515       149.8127 
  67   0.0000       5.505548       149.8136 
  68   0.0000       5.630623       153.2170 
  69   0.0000       5.630623       153.2170 
  70   0.0000       6.094936       165.8516 
  71   0.0000      33.419305       909.3855 
  72   0.0000     110.730368      3013.1265 

                    ********************************
                    * MULLIKEN POPULATION ANALYSIS *
                    ********************************

-----------------------
MULLIKEN ATOMIC CHARGES
-----------------------
   0 Ag:   -0.070793
   1 H :    0.070793
Sum of atomic charges:    0.0000000

--------------------------------
MULLIKEN REDUCED ORBITAL CHARGES
--------------------------------
  0 Ags       :     3.116900  s :     3.116900
      pz      :     2.101086  p :     6.101943
      px      :     2.000429
      py      :     2.000429
      dz2     :     1.871193  d :     9.850495
      dxz     :     1.989792
      dyz     :     1.989792
      dx2y2   :     1.999859
      dxy     :     1.999859
      f0      :     0.001083  f :     0.001412
      f+1     :     0.000072
      f-1     :     0.000072
      f+2     :     0.000092
      f-2     :     0.000092
      f+3     :     0.000000
      f-3     :     0.000000
      g0      :     0.000032  g :     0.000043
      g+1     :     0.000004
      g-1     :     0.000004
      g+2     :     0.000001
      g-2     :     0.000001
      g+3     :     0.000000
      g-3     :     0.000000
      g+4     :     0.000000
      g-4     :     0.000000
  1 H s       :     0.927694  s :     0.927694
      pz      :    -0.018782  p :    -0.000540
      px      :     0.009121
      py      :     0.009121
      dz2     :     0.000793  d :     0.002052
      dxz     :     0.000582
      dyz     :     0.000582
      dx2y2   :     0.000048
      dxy     :     0.000048


                     *******************************
                     * LOEWDIN POPULATION ANALYSIS *
                     *******************************

----------------------
LOEWDIN ATOMIC CHARGES
----------------------
   0 Ag:    0.305576
   1 H :   -0.305576

-------------------------------
LOEWDIN REDUCED ORBITAL CHARGES
-------------------------------
  0 Ags       :     2.813368  s :     2.813368
      pz      :     2.068283  p :     6.066333
      px      :     1.999025
      py      :     1.999025
      dz2     :     1.876299  d :     9.811610
      dxz     :     1.967999
      dyz     :     1.967999
      dx2y2   :     1.999656
      dxy     :     1.999656
      f0      :     0.002429  f :     0.003067
      f+1     :     0.000224
      f-1     :     0.000224
      f+2     :     0.000095
      f-2     :     0.000095
      f+3     :     0.000000
      f-3     :     0.000000
      g0      :     0.000044  g :     0.000047
      g+1     :     0.000000
      g-1     :     0.000000
      g+2     :     0.000001
      g-2     :     0.000001
      g+3     :     0.000000
      g-3     :     0.000000
      g+4     :     0.000000
      g-4     :     0.000000
  1 H s       :     1.116054  s :     1.116054
      pz      :     0.114231  p :     0.171259
      px      :     0.028514
      py      :     0.028514
      dz2     :     0.009292  d :     0.018263
      dxz     :     0.004237
      dyz     :     0.004237
      dx2y2   :     0.000248
      dxy     :     0.000248


                      *****************************
                      * MAYER POPULATION ANALYSIS *
                      *****************************

  NA   - Mulliken gross atomic population
  ZA   - Total nuclear charge
  QA   - Mulliken gross atomic charge
  VA   - Mayer's total valence
  BVA  - Mayer's bonded valence
  FA   - Mayer's free valence

  ATOM       NA         ZA         QA         VA         BVA        FA
  0 Ag    19.0708    19.0000    -0.0708     1.0322     1.0322     0.0000
  1 H      0.9292     1.0000     0.0708     1.0322     1.0322     0.0000

  Mayer bond orders larger than 0.100000
B(  0-Ag,  1-H ) :   1.0322 

-------
TIMINGS
-------

Total SCF time: 0 days 0 hours 4 min 3 sec 

Total time                  ....     243.130 sec
Sum of individual times     ....     241.870 sec  ( 99.5%)

Fock matrix formation       ....     221.543 sec  ( 91.1%)
  Split-RI-J                ....       1.456 sec  (  0.7% of F)
  XC integration            ....     218.683 sec  ( 98.7% of F)
    Basis function eval.    ....       0.011 sec  (  0.0% of XC)
    Density eval.           ....       0.019 sec  (  0.0% of XC)
    XC-Functional eval.     ....       0.021 sec  (  0.0% of XC)
    XC-Potential eval.      ....       0.022 sec  (  0.0% of XC)
Diagonalization             ....       2.451 sec  (  1.0%)
Density matrix formation    ....       0.014 sec  (  0.0%)
Population analysis         ....       0.497 sec  (  0.2%)
Initial guess               ....      15.254 sec  (  6.3%)
Orbital Transformation      ....       0.000 sec  (  0.0%)
Orbital Orthonormalization  ....       0.000 sec  (  0.0%)
DIIS solution               ....       0.089 sec  (  0.0%)
Grid generation             ....       2.022 sec  (  0.8%)


-------------------------------------------------------------------------------
                          DFT DISPERSION CORRECTION                            
                                                                               
                              DFTD3 V3.1  Rev 1                                
                          USING Becke-Johnson damping                          
-------------------------------------------------------------------------------
The TPSS functional is recognized
Active option DFTDOPT                   ...         4   

molecular C6(AA) [au] = 331.684380 


            DFT-D V3
 parameters
 s6 scaling factor         :     1.0000 
 a1 scaling factor         :     0.4535 
 s8 scaling factor         :     1.9435 
 a2 scaling factor         :     4.4752 
 ad hoc parameters k1-k3   :    16.0000     1.3333    -4.0000 

 Edisp/kcal,au: -0.323810718060  -0.000516025171 
 E6   /kcal   :  -0.141984838 
 E8   /kcal   :  -0.181825880 
 % E8         :  56.151903054 

-------------------------   ----------------
Dispersion correction           -0.000516025
-------------------------   ----------------


-------------------------   --------------------
FINAL SINGLE POINT ENERGY      -147.506558684782
-------------------------   --------------------


                            ***************************************
                            *     ORCA property calculations      *
                            ***************************************

                                    ---------------------
                                    Active property flags
                                    ---------------------
   (+) Dipole Moment


------------------------------------------------------------------------------
                       ORCA ELECTRIC PROPERTIES CALCULATION
------------------------------------------------------------------------------

Dipole Moment Calculation                       ... on
Quadrupole Moment Calculation                   ... off
Polarizability Calculation                      ... off
GBWName                                         ... AgH.gbw
Electron density file                           ... AgH.scfp
The origin for moment calculation is the CENTER OF MASS  = ( 0.000000,  0.000000  0.028307)

-------------
DIPOLE MOMENT
-------------
                                X             Y             Z
Electronic contribution:      0.00000      -0.00000      -3.54586
Nuclear contribution   :      0.00000       0.00000       2.49143
                        -----------------------------------------
Total Dipole Moment    :      0.00000      -0.00000      -1.05443
                        -----------------------------------------
Magnitude (a.u.)       :      1.05443
Magnitude (Debye)      :      2.68015



--------------------
Rotational spectrum 
--------------------
 
Rotational constants in cm-1:     0.000000     6.447907     6.447907 
Rotational constants in MHz :     0.000000 193303.400141 193303.400141 

 Dipole components along the rotational axes: 
x,y,z [a.u.] :    -1.054429    -0.000000     0.000000 
x,y,z [Debye]:    -2.680146    -0.000000     0.000000 

 

Timings for individual modules:

Sum of individual times         ...      249.849 sec (=   4.164 min)
GTO integral calculation        ...        5.958 sec (=   0.099 min)   2.4 %
SCF iterations                  ...      243.891 sec (=   4.065 min)  97.6 %
                             ****ORCA TERMINATED NORMALLY****
TOTAL RUN TIME: 0 days 0 hours 5 minutes 21 seconds 342 msec
