
                                 *****************
                                 * O   R   C   A *
                                 *****************

           --- An Ab Initio, DFT and Semiempirical electronic structure package ---

                  #######################################################
                  #                        -***-                        #
                  #          Department of theory and spectroscopy      #
                  #               Directorship: Frank Neese             #
                  #        Max Planck Institute fuer Kohlenforschung    #
                  #                Kaiser Wilhelm Platz 1               #
                  #                 D-45470 Muelheim/Ruhr               #
                  #                      Germany                        #
                  #                                                     #
                  #                  All rights reserved                #
                  #                        -***-                        #
                  #######################################################


                         Program Version 4.2.0 -  RELEASE  -


 With contributions from (in alphabetic order):
   Daniel Aravena         : Magnetic Suceptibility
   Michael Atanasov       : Ab Initio Ligand Field Theory (pilot matlab implementation)
   Alexander A. Auer      : GIAO ZORA, VPT2
   Ute Becker             : Parallelization
   Giovanni Bistoni       : ED, misc. LED, open-shell LED, HFLED
   Martin Brehm           : Molecular dynamics
   Dmytro Bykov           : SCF Hessian
   Vijay G. Chilkuri      : MRCI spin determinant printing, contributions to CSF-ICE
   Dipayan Datta          : RHF DLPNO-CCSD density
   Achintya Kumar Dutta   : EOM-CC, STEOM-CC
   Dmitry Ganyushin       : Spin-Orbit,Spin-Spin,Magnetic field MRCI
   Miquel Garcia          : C-PCM Hessian, Gaussian charge scheme
   Yang Guo               : DLPNO-NEVPT2, CIM, IAO-localization
   Andreas Hansen         : Spin unrestricted coupled pair/coupled cluster methods
   Benjamin Helmich-Paris : CASSCF linear response (MC-RPA)
   Lee Huntington         : MR-EOM, pCC
   Robert Izsak           : Overlap fitted RIJCOSX, COSX-SCS-MP3, EOM
   Christian Kollmar      : KDIIS, OOCD, Brueckner-CCSD(T), CCSD density
   Simone Kossmann        : Meta GGA functionals, TD-DFT gradient, OOMP2, MP2 Hessian
   Martin Krupicka        : AUTO-CI
   Lucas Lang             : DCDCAS
   Dagmar Lenk            : GEPOL surface, SMD
   Dimitrios Liakos       : Extrapolation schemes; Compound Job, initial MDCI parallelization
   Dimitrios Manganas     : Further ROCIS development; embedding schemes
   Dimitrios Pantazis     : SARC Basis sets
   Taras Petrenko         : DFT Hessian,TD-DFT gradient, ASA, ECA, R-Raman, ABS, FL, XAS/XES, NRVS
   Peter Pinski           : DLPNO-MP2, DLPNO-MP2 Gradient
   Christoph Reimann      : Effective Core Potentials
   Marius Retegan         : Local ZFS, SOC
   Christoph Riplinger    : Optimizer, TS searches, QM/MM, DLPNO-CCSD(T), (RO)-DLPNO pert. Triples
   Tobias Risthaus        : Range-separated hybrids, TD-DFT gradient, RPA, STAB
   Michael Roemelt        : Original ROCIS implementation
   Masaaki Saitow         : Open-shell DLPNO-CCSD energy and density
   Barbara Sandhoefer     : DKH picture change effects
   Avijit Sen             : IP-ROCIS
   Kantharuban Sivalingam : CASSCF convergence, NEVPT2, FIC-MRCI
   Bernardo de Souza      : ESD, SOC TD-DFT
   Georgi Stoychev        : AutoAux, RI-MP2 NMR
   Willem Van den Heuvel  : Paramagnetic NMR
   Boris Wezisla          : Elementary symmetry handling
   Frank Wennmohs         : Technical directorship


 We gratefully acknowledge several colleagues who have allowed us to
 interface, adapt or use parts of their codes:
   Stefan Grimme, W. Hujo, H. Kruse,             : VdW corrections, initial TS optimization,
                  C. Bannwarth                     DFT functionals, gCP, sTDA/sTD-DF
   Ed Valeev, F. Pavosevic, A. Kumar             : LibInt (2-el integral package), F12 methods
   Garnet Chan, S. Sharma, J. Yang, R. Olivares  : DMRG
   Ulf Ekstrom                                   : XCFun DFT Library
   Mihaly Kallay                                 : mrcc  (arbitrary order and MRCC methods)
   Andreas Klamt, Michael Diedenhofen            : otool_cosmo (COSMO solvation model)
   Jiri Pittner, Ondrej Demel                    : Mk-CCSD
   Frank Weinhold                                : gennbo (NPA and NBO analysis)
   Christopher J. Cramer and Donald G. Truhlar   : smd solvation model
   Lars Goerigk                                  : TD-DFT with DH, B97 family of functionals
   V. Asgeirsson, H. Jonsson                     : NEB implementation
   FAccTs GmbH                                   : IRC, NEB, NEB-TS, Multilevel, MM, QM/MM, CI optimization
   S Lehtola, MJT Oliveira, MAL Marques          : LibXC Library


 Your calculation uses the libint2 library for the computation of 2-el integrals
 For citations please refer to: http://libint.valeyev.net

 Your ORCA version has been built with support for libXC version: 4.2.3
 For citations please refer to: https://tddft.org/programs/libxc/

 This ORCA versions uses:
   CBLAS   interface :  Fast vector & matrix operations
   LAPACKE interface :  Fast linear algebra routines
   SCALAPACK package :  Parallel linear algebra routines


Your calculation utilizes the atom-pairwise dispersion correction
with the Becke-Johnson damping scheme (D3BJ)
Cite in your paper:
S.Grimme, S.Ehrlich, L.Goerigk, J Comput Chem, (2011), 32, 1456–1465 
S.Grimme, J.Antony, S.Ehrlich and H.Krieg, J.Chem.Phys., 132, (2010), 154104 
   

----- Orbital basis set information -----
Your calculation utilizes the basis: def2-TZVPPD
   F. Weigend and R. Ahlrichs, Phys. Chem. Chem. Phys. 7, 3297 (2005).
   D. Rappoport and F. Furche, J. Chem. Phys. 133 134105 (2010).

----- AuxJ basis set information -----
Your calculation utilizes the auxiliary basis: def2/J
   F. Weigend, Phys. Chem. Chem. Phys. 8, 1057 (2006).

================================================================================
                                        WARNINGS
                       Please study these warnings very carefully!
================================================================================


WARNING: your system is open-shell and RHF/RKS was chosen
  ===> : WILL SWITCH to UHF/UKS


INFO   : the flag for use of LIBINT has been found!

================================================================================
                                       INPUT FILE
================================================================================
NAME = al.in
|  1> #
|  2> # al TPSS-D3BJ/Def2-TZVPPD
|  3> #
|  4> ! tpss d3bj def2-tzvppd def2/j grid4 nofinalgrid
|  5> 
|  6> *xyz 0 2
|  7> Al         0.00000        0.00000        0.00000
|  8> *
|  9> 
| 10> %maxcore 5000
| 11> 
| 12> %pal
| 13> nprocs = 28
| 14> end
| 15> 
| 16> 
| 17>                          ****END OF INPUT****
================================================================================

                       ****************************
                       * Single Point Calculation *
                       ****************************

---------------------------------
CARTESIAN COORDINATES (ANGSTROEM)
---------------------------------
  Al     0.000000    0.000000    0.000000

----------------------------
CARTESIAN COORDINATES (A.U.)
----------------------------
  NO LB      ZA    FRAG     MASS         X           Y           Z
   0 Al   13.0000    0    26.982    0.000000    0.000000    0.000000

--------------------------------
INTERNAL COORDINATES (ANGSTROEM)
--------------------------------
 Al     0   0   0     0.000000000000     0.00000000     0.00000000

---------------------------
INTERNAL COORDINATES (A.U.)
---------------------------
 Al     0   0   0     0.000000000000     0.00000000     0.00000000

---------------------
BASIS SET INFORMATION
---------------------
There are 1 groups of distinct atoms

 Group   1 Type Al  : 15s9p4d1f contracted to 6s5p4d1f pattern {732111/51111/1111/1}

Atom   0Al   basis set group =>   1
---------------------------------
AUXILIARY/J BASIS SET INFORMATION
---------------------------------
There are 1 groups of distinct atoms

 Group   1 Type Al  : 14s5p5d2f1g contracted to 8s4p3d1f1g pattern {71111111/2111/311/2/1}

Atom   0Al   basis set group =>   1


           ************************************************************
           *        Program running with 28 parallel MPI-processes    *
           *              working on a common directory               *
           ************************************************************
------------------------------------------------------------------------------
                           ORCA GTO INTEGRAL CALCULATION
                           -- RI-GTO INTEGRALS CHOSEN --
------------------------------------------------------------------------------

                         BASIS SET STATISTICS AND STARTUP INFO

Gaussian basis set:
 # of primitive gaussian shells          ...   29
 # of primitive gaussian functions       ...   69
 # of contracted shells                  ...   16
 # of contracted basis functions         ...   48
 Highest angular momentum                ...    3
 Maximum contraction depth               ...    7
Auxiliary gaussian basis set:
 # of primitive gaussian shells          ...   27
 # of primitive gaussian functions       ...   77
 # of contracted shells                  ...   17
 # of contracted aux-basis functions     ...   51
 Highest angular momentum                ...    4
 Maximum contraction depth               ...    7
Ratio of auxiliary to basis functions    ...  1.06
Integral package used                  ... LIBINT
 One Electron integrals                  ... done
 Ordering auxiliary basis shells         ... done
 Integral threshhold             Thresh  ...  1.000e-10
 Primitive cut-off               TCut    ...  1.000e-11
 Pre-screening matrix                    ... done
 Shell pair data                         ... 
 Ordering of the shell pairs             ... done (   0.000 sec) 136 of 136 pairs
 Determination of significant pairs      ... done (   0.000 sec)
 Creation of shell pair data             ... done (   0.000 sec)
 Storage of shell pair data              ... done (   0.030 sec)
 Shell pair data done in (   0.031 sec)
 Computing two index integrals           ... done
 Cholesky decomposition of the V-matrix  ... done


Timings:
 Total evaluation time                   ...   0.438 sec (  0.007 min)
 One electron matrix time                ...   0.149 sec (  0.002 min) = 33.9%
 Schwartz matrix evaluation time         ...   0.105 sec (  0.002 min) = 24.0%
 Two index repulsion integral time       ...   0.037 sec (  0.001 min) =  8.6%
 Cholesky decomposition of V             ...   0.076 sec (  0.001 min) = 17.4%
 Three index repulsion integral time     ...   0.000 sec (  0.000 min) =  0.0%



           ************************************************************
           *        Program running with 28 parallel MPI-processes    *
           *              working on a common directory               *
           ************************************************************
-------------------------------------------------------------------------------
                                 ORCA SCF
-------------------------------------------------------------------------------

------------
SCF SETTINGS
------------
Hamiltonian:
 Density Functional     Method          .... DFT(GTOs)
 Exchange Functional    Exchange        .... TPSS
 Correlation Functional Correlation     .... TPSS
 LDA part of GGA corr.  LDAOpt          .... PW91-LDA
 Gradients option       PostSCFGGA      .... off
   Density functional embedding theory  .... OFF
   NL short-range parameter             ....  5.000000
 RI-approximation to the Coulomb term is turned on
   Number of auxiliary basis functions  .... 51


General Settings:
 Integral files         IntName         .... al
 Hartree-Fock type      HFTyp           .... UHF
 Total Charge           Charge          ....    0
 Multiplicity           Mult            ....    2
 Number of Electrons    NEL             ....   13
 Basis Dimension        Dim             ....   48
 Nuclear Repulsion      ENuc            ....      0.0000000000 Eh

Convergence Acceleration:
 DIIS                   CNVDIIS         .... on
   Start iteration      DIISMaxIt       ....    12
   Startup error        DIISStart       ....  0.200000
   # of expansion vecs  DIISMaxEq       ....     5
   Bias factor          DIISBfac        ....   1.050
   Max. coefficient     DIISMaxC        ....  10.000
 Newton-Raphson         CNVNR           .... off
 SOSCF                  CNVSOSCF        .... off
 Level Shifting         CNVShift        .... on
   Level shift para.    LevelShift      ....    0.2500
   Turn off err/grad.   ShiftErr        ....    0.0010
 Zerner damping         CNVZerner       .... off
 Static damping         CNVDamp         .... on
   Fraction old density DampFac         ....    0.7000
   Max. Damping (<1)    DampMax         ....    0.9800
   Min. Damping (>=0)   DampMin         ....    0.0000
   Turn off err/grad.   DampErr         ....    0.1000
 Fernandez-Rico         CNVRico         .... off

SCF Procedure:
 Maximum # iterations   MaxIter         ....   125
 SCF integral mode      SCFMode         .... Direct
   Integral package                     .... LIBINT
 Reset frequency        DirectResetFreq ....    20
 Integral Threshold     Thresh          ....  1.000e-10 Eh
 Primitive CutOff       TCut            ....  1.000e-11 Eh

Convergence Tolerance:
 Convergence Check Mode ConvCheckMode   .... Total+1el-Energy
 Convergence forced     ConvForced      .... 0
 Energy Change          TolE            ....  1.000e-06 Eh
 1-El. energy change                    ....  1.000e-03 Eh
 DIIS Error             TolErr          ....  1.000e-06


Diagonalization of the overlap matrix:
Smallest eigenvalue                        ... 2.409e-02
Time for diagonalization                   ...    0.001 sec
Threshold for overlap eigenvalues          ... 1.000e-08
Number of eigenvalues below threshold      ... 0
Time for construction of square roots      ...    0.177 sec
Total time needed                          ...    0.178 sec

-------------------
DFT GRID GENERATION
-------------------

General Integration Accuracy     IntAcc      ...  4.670
Radial Grid Type                 RadialGrid  ... Gauss-Chebyshev
Angular Grid (max. acc.)         AngularGrid ... Lebedev-302
Angular grid pruning method      GridPruning ... 3 (G Style)
Weight generation scheme         WeightScheme... Becke
Basis function cutoff            BFCut       ...    1.0000e-10
Integration weight cutoff        WCut        ...    1.0000e-14
Grids for H and He will be reduced by one unit

# of grid points (after initial pruning)     ...   6846 (   0.0 sec)
# of grid points (after weights+screening)   ...   6846 (   0.0 sec)
Grid point division into batches done        ...    0.0 sec
Reduced shell lists constructed in    0.0 sec

Total number of grid points                  ...     6846
Total number of batches                      ...      107
Average number of points per batch           ...       63
Average number of grid points per atom       ...     6846
Average number of shells per batch           ...     3.20 (20.00%)
Average number of basis functions per batch  ...     8.00 (16.67%)
Average number of large shells per batch     ...     2.40 (75.00%)
Average number of large basis fcns per batch ...     7.20 (90.00%)
Maximum spatial batch extension              ...  23.12, 23.12, 21.41 au
Average spatial batch extension              ...   0.72,  0.72,  0.80 au

Time for grid setup =    3.458 sec

------------------------------
INITIAL GUESS: MODEL POTENTIAL
------------------------------
Loading Hartree-Fock densities                     ... done
Calculating cut-offs                               ... done
Setting up the integral package                    ... done
Initializing the effective Hamiltonian             ... done
Starting the Coulomb interaction                   ... done (   0.0 sec)
Reading the grid                                   ... done
Mapping shells                                     ... done
Starting the XC term evaluation                    ... done (   0.1 sec)
  promolecular density results
     # of electrons  =     12.999996150
     EX              =    -17.960863511
     EC              =     -0.449465569
     EX+EC           =    -18.410329080
Transforming the Hamiltonian                       ... done (   0.0 sec)
Diagonalizing the Hamiltonian                      ... done (   0.0 sec)
Back transforming the eigenvectors                 ... done (   0.0 sec)
Now organizing SCF variables                       ... done
                      ------------------
                      INITIAL GUESS DONE (   4.2 sec)
                      ------------------
--------------
SCF ITERATIONS
--------------
ITER       Energy         Delta-E        Max-DP      RMS-DP      [F,P]     Damp
               ***  Starting incremental Fock matrix formation  ***
  0   -242.3778129726   0.000000000000 0.00693293  0.00024869  0.0287682 0.7000
  1   -242.3783660934  -0.000553120827 0.00753330  0.00025658  0.0199505 0.7000
                               ***Turning on DIIS***
  2   -242.3788194674  -0.000453373977 0.02119674  0.00071739  0.0138478 0.0000
  3   -242.3800500654  -0.001230598028 0.00311546  0.00011790  0.0032669 0.0000
  4   -242.3801040552  -0.000053989815 0.00211344  0.00006184  0.0012308 0.0000
  5   -242.3801190750  -0.000015019784 0.00243008  0.00006495  0.0003531 0.0000
  6   -242.3801241992  -0.000005124220 0.00042951  0.00001066  0.0000360 0.0000
                 **** Energy Check signals convergence ****

               *****************************************************
               *                     SUCCESS                       *
               *           SCF CONVERGED AFTER   7 CYCLES          *
               *****************************************************


----------------
TOTAL SCF ENERGY
----------------

Total Energy       :         -242.38012425 Eh           -6595.49849 eV

Components:
Nuclear Repulsion  :            0.00000000 Eh               0.00000 eV
Electronic Energy  :         -242.38012425 Eh           -6595.49849 eV
One Electron Energy:         -336.70797915 Eh           -9162.28991 eV
Two Electron Energy:           94.32785490 Eh            2566.79143 eV

Virial components:
Potential Energy   :         -484.22383333 Eh          -13176.40038 eV
Kinetic Energy     :          241.84370908 Eh            6580.90189 eV
Virial Ratio       :            2.00221802


DFT components:
N(Alpha)           :        7.000000416269 electrons
N(Beta)            :        6.000000414913 electrons
N(Total)           :       13.000000831182 electrons
E(X)               :      -18.130850562853 Eh       
E(C)               :       -0.448566040848 Eh       
E(XC)              :      -18.579416603701 Eh       
DFET-embed. en.    :        0.000000000000 Eh       

---------------
SCF CONVERGENCE
---------------

  Last Energy change         ...   -4.9047e-08  Tolerance :   1.0000e-06
  Last MAX-Density change    ...    2.7143e-05  Tolerance :   1.0000e-05
  Last RMS-Density change    ...    8.5194e-07  Tolerance :   1.0000e-06
  Last DIIS Error            ...    1.1613e-05  Tolerance :   1.0000e-06

             **** THE GBW FILE WAS UPDATED (al.gbw) ****
             **** DENSITY FILE WAS UPDATED (al.scfp) ****
             **** ENERGY FILE WAS UPDATED (al.en.tmp) ****
----------------------
UHF SPIN CONTAMINATION
----------------------

Warning: in a DFT calculation there is little theoretical justification to 
         calculate <S**2> as in Hartree-Fock theory. We will do it anyways
         but you should keep in mind that the values have only limited relevance

Expectation value of <S**2>     :     0.757499
Ideal value S*(S+1) for S=0.5   :     0.750000
Deviation                       :     0.007499

             **** THE GBW FILE WAS UPDATED (al.gbw) ****
             **** DENSITY FILE WAS UPDATED (al.scfp) ****
----------------
ORBITAL ENERGIES
----------------
                 SPIN UP ORBITALS
  NO   OCC          E(Eh)            E(eV) 
   0   1.0000     -55.642039     -1514.0968 
   1   1.0000      -4.003161      -108.9315 
   2   1.0000      -2.573129       -70.0184 
   3   1.0000      -2.573129       -70.0184 
   4   1.0000      -2.570542       -69.9480 
   5   1.0000      -0.293508        -7.9868 
   6   1.0000      -0.118884        -3.2350 
   7   0.0000      -0.095030        -2.5859 
   8   0.0000      -0.095030        -2.5859 
   9   0.0000       0.007095         0.1931 
  10   0.0000       0.049128         1.3368 
  11   0.0000       0.049128         1.3368 
  12   0.0000       0.051503         1.4015 
  13   0.0000       0.057923         1.5762 
  14   0.0000       0.057925         1.5762 
  15   0.0000       0.185318         5.0428 
  16   0.0000       0.193949         5.2776 
  17   0.0000       0.193949         5.2776 
  18   0.0000       0.211591         5.7577 
  19   0.0000       0.211591         5.7577 
  20   0.0000       0.215361         5.8603 
  21   0.0000       0.223066         6.0699 
  22   0.0000       0.223068         6.0700 
  23   0.0000       0.260984         7.1017 
  24   0.0000       0.719156        19.5692 
  25   0.0000       0.719156        19.5692 
  26   0.0000       0.720977        19.6188 
  27   0.0000       0.720977        19.6188 
  28   0.0000       0.729773        19.8581 
  29   0.0000       0.730224        19.8704 
  30   0.0000       0.730224        19.8704 
  31   0.0000       0.754885        20.5415 
  32   0.0000       0.754885        20.5415 
  33   0.0000       0.757028        20.5998 
  34   0.0000       0.757028        20.5998 
  35   0.0000       0.763983        20.7890 
  36   0.0000       1.802869        49.0585 
  37   0.0000       1.802869        49.0585 
  38   0.0000       1.825129        49.6643 
  39   0.0000       3.093000        84.1648 
  40   0.0000       3.093000        84.1648 
  41   0.0000       3.103147        84.4409 
  42   0.0000       3.103147        84.4409 
  43   0.0000       3.106267        84.5258 
  44   0.0000       6.361708       173.1109 
  45   0.0000       9.032177       245.7780 
  46   0.0000       9.032177       245.7780 
  47   0.0000       9.044433       246.1115 

                 SPIN DOWN ORBITALS
  NO   OCC          E(Eh)            E(eV) 
   0   1.0000     -55.639947     -1514.0399 
   1   1.0000      -4.001137      -108.8765 
   2   1.0000      -2.572232       -69.9940 
   3   1.0000      -2.572232       -69.9940 
   4   1.0000      -2.564171       -69.7746 
   5   1.0000      -0.265864        -7.2345 
   6   0.0000      -0.088812        -2.4167 
   7   0.0000      -0.088812        -2.4167 
   8   0.0000      -0.064008        -1.7418 
   9   0.0000       0.017390         0.4732 
  10   0.0000       0.062777         1.7082 
  11   0.0000       0.062778         1.7083 
  12   0.0000       0.062891         1.7114 
  13   0.0000       0.066164         1.8004 
  14   0.0000       0.066164         1.8004 
  15   0.0000       0.196350         5.3430 
  16   0.0000       0.196350         5.3430 
  17   0.0000       0.213999         5.8232 
  18   0.0000       0.224991         6.1223 
  19   0.0000       0.224992         6.1223 
  20   0.0000       0.241290         6.5658 
  21   0.0000       0.241290         6.5658 
  22   0.0000       0.245049         6.6681 
  23   0.0000       0.270080         7.3492 
  24   0.0000       0.716488        19.4966 
  25   0.0000       0.716488        19.4966 
  26   0.0000       0.735149        20.0044 
  27   0.0000       0.735149        20.0044 
  28   0.0000       0.746725        20.3194 
  29   0.0000       0.746725        20.3194 
  30   0.0000       0.748916        20.3790 
  31   0.0000       0.753693        20.5090 
  32   0.0000       0.753694        20.5091 
  33   0.0000       0.771668        20.9982 
  34   0.0000       0.771668        20.9982 
  35   0.0000       0.777493        21.1567 
  36   0.0000       1.807056        49.1725 
  37   0.0000       1.807056        49.1725 
  38   0.0000       1.826552        49.7030 
  39   0.0000       3.093472        84.1777 
  40   0.0000       3.093472        84.1777 
  41   0.0000       3.107429        84.5575 
  42   0.0000       3.107429        84.5575 
  43   0.0000       3.112126        84.6853 
  44   0.0000       6.367876       173.2787 
  45   0.0000       9.035258       245.8619 
  46   0.0000       9.035258       245.8619 
  47   0.0000       9.043907       246.0972 

                    ********************************
                    * MULLIKEN POPULATION ANALYSIS *
                    ********************************

--------------------------------------------
MULLIKEN ATOMIC CHARGES AND SPIN POPULATIONS
--------------------------------------------
   0 Al:    0.000000    1.000000
Sum of atomic charges         :    0.0000000
Sum of atomic spin populations:    1.0000000

-----------------------------------------------------
MULLIKEN REDUCED ORBITAL CHARGES AND SPIN POPULATIONS
-----------------------------------------------------
CHARGE
  0 Als       :     5.996070  s :     5.996070
      pz      :     2.998564  p :     6.999982
      px      :     2.000102
      py      :     2.001316
      dz2     :     0.003913  d :     0.003930
      dxz     :     0.000001
      dyz     :     0.000015
      dx2y2   :     0.000000
      dxy     :     0.000000
      f0      :     0.000017  f :     0.000018
      f+1     :     0.000000
      f-1     :     0.000001
      f+2     :     0.000000
      f-2     :     0.000000
      f+3     :     0.000000
      f-3     :     0.000000

SPIN
  0 Als       :     0.001110  s :     0.001110
      pz      :     0.998565  p :     0.999984
      px      :     0.000103
      py      :     0.001316
      dz2     :    -0.001105  d :    -0.001110
      dxz     :    -0.000000
      dyz     :    -0.000004
      dx2y2   :    -0.000000
      dxy     :    -0.000000
      f0      :     0.000016  f :     0.000016
      f+1     :    -0.000000
      f-1     :    -0.000000
      f+2     :    -0.000000
      f-2     :    -0.000000
      f+3     :    -0.000000
      f-3     :    -0.000000


                     *******************************
                     * LOEWDIN POPULATION ANALYSIS *
                     *******************************

-------------------------------------------
LOEWDIN ATOMIC CHARGES AND SPIN POPULATIONS
-------------------------------------------
   0 Al:    0.000000    1.000000

----------------------------------------------------
LOEWDIN REDUCED ORBITAL CHARGES AND SPIN POPULATIONS
----------------------------------------------------
CHARGE
  0 Als       :     5.996070  s :     5.996070
      pz      :     2.998564  p :     6.999982
      px      :     2.000102
      py      :     2.001316
      dz2     :     0.003913  d :     0.003930
      dxz     :     0.000001
      dyz     :     0.000015
      dx2y2   :     0.000000
      dxy     :     0.000000
      f0      :     0.000017  f :     0.000018
      f+1     :     0.000000
      f-1     :     0.000001
      f+2     :     0.000000
      f-2     :     0.000000
      f+3     :     0.000000
      f-3     :     0.000000

SPIN
  0 Als       :     0.001110  s :     0.001110
      pz      :     0.998565  p :     0.999984
      px      :     0.000103
      py      :     0.001316
      dz2     :    -0.001105  d :    -0.001110
      dxz     :    -0.000000
      dyz     :    -0.000004
      dx2y2   :    -0.000000
      dxy     :    -0.000000
      f0      :     0.000016  f :     0.000016
      f+1     :    -0.000000
      f-1     :    -0.000000
      f+2     :    -0.000000
      f-2     :    -0.000000
      f+3     :    -0.000000
      f-3     :    -0.000000


                      *****************************
                      * MAYER POPULATION ANALYSIS *
                      *****************************

  NA   - Mulliken gross atomic population
  ZA   - Total nuclear charge
  QA   - Mulliken gross atomic charge
  VA   - Mayer's total valence
  BVA  - Mayer's bonded valence
  FA   - Mayer's free valence

  ATOM       NA         ZA         QA         VA         BVA        FA
  0 Al    13.0000    13.0000     0.0000     1.0150     0.0000     1.0150

  Mayer bond orders larger than 0.100000


-------
TIMINGS
-------

Total SCF time: 0 days 0 hours 2 min 29 sec 

Total time                  ....     149.028 sec
Sum of individual times     ....     147.226 sec  ( 98.8%)

Fock matrix formation       ....     139.054 sec  ( 93.3%)
  Split-RI-J                ....       0.822 sec  (  0.6% of F)
  XC integration            ....     136.909 sec  ( 98.5% of F)
    Basis function eval.    ....       0.002 sec  (  0.0% of XC)
    Density eval.           ....       0.008 sec  (  0.0% of XC)
    XC-Functional eval.     ....       0.010 sec  (  0.0% of XC)
    XC-Potential eval.      ....       0.008 sec  (  0.0% of XC)
Diagonalization             ....       2.092 sec  (  1.4%)
Density matrix formation    ....       0.006 sec  (  0.0%)
Population analysis         ....       1.804 sec  (  1.2%)
Initial guess               ....       0.760 sec  (  0.5%)
Orbital Transformation      ....       0.000 sec  (  0.0%)
Orbital Orthonormalization  ....       0.000 sec  (  0.0%)
DIIS solution               ....       0.052 sec  (  0.0%)
Grid generation             ....       3.458 sec  (  2.3%)


-------------------------------------------------------------------------------
                          DFT DISPERSION CORRECTION                            
                                                                               
                              DFTD3 V3.1  Rev 1                                
                          USING Becke-Johnson damping                          
-------------------------------------------------------------------------------
The TPSS functional is recognized
Active option DFTDOPT                   ...         4   

molecular C6(AA) [au] = 537.982404 


            DFT-D V3
 parameters
 s6 scaling factor         :     1.0000 
 a1 scaling factor         :     0.4535 
 s8 scaling factor         :     1.9435 
 a2 scaling factor         :     4.4752 
 ad hoc parameters k1-k3   :    16.0000     1.3333    -4.0000 

 Edisp/kcal,au: -0.000000000000  -0.000000000000 
 E6   /kcal   :  -0.000000000 
 E8   /kcal   :  -0.000000000 
 % E8         :          -nan 

-------------------------   ----------------
Dispersion correction            0.000000000
-------------------------   ----------------


-------------------------   --------------------
FINAL SINGLE POINT ENERGY      -242.380124248255
-------------------------   --------------------


                            ***************************************
                            *     ORCA property calculations      *
                            ***************************************

                                    ---------------------
                                    Active property flags
                                    ---------------------
   (+) Dipole Moment


------------------------------------------------------------------------------
                       ORCA ELECTRIC PROPERTIES CALCULATION
------------------------------------------------------------------------------

Dipole Moment Calculation                       ... on
Quadrupole Moment Calculation                   ... off
Polarizability Calculation                      ... off
GBWName                                         ... al.gbw
Electron density file                           ... al.scfp
The origin for moment calculation is the CENTER OF MASS  = ( 0.000000,  0.000000  0.000000)

-------------
DIPOLE MOMENT
-------------
                                X             Y             Z
Electronic contribution:     -0.00000      -0.00000       0.00000
Nuclear contribution   :      0.00000       0.00000       0.00000
                        -----------------------------------------
Total Dipole Moment    :     -0.00000      -0.00000       0.00000
                        -----------------------------------------
Magnitude (a.u.)       :      0.00000
Magnitude (Debye)      :      0.00000



--------------------
Rotational spectrum 
--------------------
 
Rotational constants in cm-1:     0.000000     0.000000     0.000000 
Rotational constants in MHz :     0.000000     0.000000     0.000000 

 Dipole components along the rotational axes: 
x,y,z [a.u.] :    -0.000000    -0.000000     0.000000 
x,y,z [Debye]:    -0.000000    -0.000000     0.000000 

 

Timings for individual modules:

Sum of individual times         ...      156.088 sec (=   2.601 min)
GTO integral calculation        ...        6.175 sec (=   0.103 min)   4.0 %
SCF iterations                  ...      149.913 sec (=   2.499 min)  96.0 %
                             ****ORCA TERMINATED NORMALLY****
TOTAL RUN TIME: 0 days 0 hours 5 minutes 3 seconds 205 msec
