
                                 *****************
                                 * O   R   C   A *
                                 *****************

           --- An Ab Initio, DFT and Semiempirical electronic structure package ---

                  #######################################################
                  #                        -***-                        #
                  #          Department of theory and spectroscopy      #
                  #               Directorship: Frank Neese             #
                  #        Max Planck Institute fuer Kohlenforschung    #
                  #                Kaiser Wilhelm Platz 1               #
                  #                 D-45470 Muelheim/Ruhr               #
                  #                      Germany                        #
                  #                                                     #
                  #                  All rights reserved                #
                  #                        -***-                        #
                  #######################################################


                         Program Version 4.2.0 -  RELEASE  -


 With contributions from (in alphabetic order):
   Daniel Aravena         : Magnetic Suceptibility
   Michael Atanasov       : Ab Initio Ligand Field Theory (pilot matlab implementation)
   Alexander A. Auer      : GIAO ZORA, VPT2
   Ute Becker             : Parallelization
   Giovanni Bistoni       : ED, misc. LED, open-shell LED, HFLED
   Martin Brehm           : Molecular dynamics
   Dmytro Bykov           : SCF Hessian
   Vijay G. Chilkuri      : MRCI spin determinant printing, contributions to CSF-ICE
   Dipayan Datta          : RHF DLPNO-CCSD density
   Achintya Kumar Dutta   : EOM-CC, STEOM-CC
   Dmitry Ganyushin       : Spin-Orbit,Spin-Spin,Magnetic field MRCI
   Miquel Garcia          : C-PCM Hessian, Gaussian charge scheme
   Yang Guo               : DLPNO-NEVPT2, CIM, IAO-localization
   Andreas Hansen         : Spin unrestricted coupled pair/coupled cluster methods
   Benjamin Helmich-Paris : CASSCF linear response (MC-RPA)
   Lee Huntington         : MR-EOM, pCC
   Robert Izsak           : Overlap fitted RIJCOSX, COSX-SCS-MP3, EOM
   Christian Kollmar      : KDIIS, OOCD, Brueckner-CCSD(T), CCSD density
   Simone Kossmann        : Meta GGA functionals, TD-DFT gradient, OOMP2, MP2 Hessian
   Martin Krupicka        : AUTO-CI
   Lucas Lang             : DCDCAS
   Dagmar Lenk            : GEPOL surface, SMD
   Dimitrios Liakos       : Extrapolation schemes; Compound Job, initial MDCI parallelization
   Dimitrios Manganas     : Further ROCIS development; embedding schemes
   Dimitrios Pantazis     : SARC Basis sets
   Taras Petrenko         : DFT Hessian,TD-DFT gradient, ASA, ECA, R-Raman, ABS, FL, XAS/XES, NRVS
   Peter Pinski           : DLPNO-MP2, DLPNO-MP2 Gradient
   Christoph Reimann      : Effective Core Potentials
   Marius Retegan         : Local ZFS, SOC
   Christoph Riplinger    : Optimizer, TS searches, QM/MM, DLPNO-CCSD(T), (RO)-DLPNO pert. Triples
   Tobias Risthaus        : Range-separated hybrids, TD-DFT gradient, RPA, STAB
   Michael Roemelt        : Original ROCIS implementation
   Masaaki Saitow         : Open-shell DLPNO-CCSD energy and density
   Barbara Sandhoefer     : DKH picture change effects
   Avijit Sen             : IP-ROCIS
   Kantharuban Sivalingam : CASSCF convergence, NEVPT2, FIC-MRCI
   Bernardo de Souza      : ESD, SOC TD-DFT
   Georgi Stoychev        : AutoAux, RI-MP2 NMR
   Willem Van den Heuvel  : Paramagnetic NMR
   Boris Wezisla          : Elementary symmetry handling
   Frank Wennmohs         : Technical directorship


 We gratefully acknowledge several colleagues who have allowed us to
 interface, adapt or use parts of their codes:
   Stefan Grimme, W. Hujo, H. Kruse,             : VdW corrections, initial TS optimization,
                  C. Bannwarth                     DFT functionals, gCP, sTDA/sTD-DF
   Ed Valeev, F. Pavosevic, A. Kumar             : LibInt (2-el integral package), F12 methods
   Garnet Chan, S. Sharma, J. Yang, R. Olivares  : DMRG
   Ulf Ekstrom                                   : XCFun DFT Library
   Mihaly Kallay                                 : mrcc  (arbitrary order and MRCC methods)
   Andreas Klamt, Michael Diedenhofen            : otool_cosmo (COSMO solvation model)
   Jiri Pittner, Ondrej Demel                    : Mk-CCSD
   Frank Weinhold                                : gennbo (NPA and NBO analysis)
   Christopher J. Cramer and Donald G. Truhlar   : smd solvation model
   Lars Goerigk                                  : TD-DFT with DH, B97 family of functionals
   V. Asgeirsson, H. Jonsson                     : NEB implementation
   FAccTs GmbH                                   : IRC, NEB, NEB-TS, Multilevel, MM, QM/MM, CI optimization
   S Lehtola, MJT Oliveira, MAL Marques          : LibXC Library


 Your calculation uses the libint2 library for the computation of 2-el integrals
 For citations please refer to: http://libint.valeyev.net

 Your ORCA version has been built with support for libXC version: 4.2.3
 For citations please refer to: https://tddft.org/programs/libxc/

 This ORCA versions uses:
   CBLAS   interface :  Fast vector & matrix operations
   LAPACKE interface :  Fast linear algebra routines
   SCALAPACK package :  Parallel linear algebra routines


Your calculation utilizes the atom-pairwise dispersion correction
with the Becke-Johnson damping scheme (D3BJ)
Cite in your paper:
S.Grimme, S.Ehrlich, L.Goerigk, J Comput Chem, (2011), 32, 1456–1465 
S.Grimme, J.Antony, S.Ehrlich and H.Krieg, J.Chem.Phys., 132, (2010), 154104 
   

----- Orbital basis set information -----
Your calculation utilizes the basis: def2-TZVPPD
   F. Weigend and R. Ahlrichs, Phys. Chem. Chem. Phys. 7, 3297 (2005).
   D. Rappoport and F. Furche, J. Chem. Phys. 133 134105 (2010).

----- AuxJ basis set information -----
Your calculation utilizes the auxiliary basis: def2/J
   F. Weigend, Phys. Chem. Chem. Phys. 8, 1057 (2006).

================================================================================
                                        WARNINGS
                       Please study these warnings very carefully!
================================================================================


WARNING: your system is open-shell and RHF/RKS was chosen
  ===> : WILL SWITCH to UHF/UKS


INFO   : the flag for use of LIBINT has been found!

================================================================================
                                       INPUT FILE
================================================================================
NAME = CH3.in
|  1> #
|  2> # CH3 TPSS-D3BJ/Def2-TZVPPD
|  3> #
|  4> ! tpss d3bj def2-tzvppd def2/j grid4 nofinalgrid
|  5> 
|  6> *xyz 0 2
|  7> C          0.00000        0.00000        0.00000
|  8> H          0.00000        0.00000        1.07732
|  9> H          0.93298        0.00000       -0.53866
| 10> H         -0.93298        0.00000       -0.53866
| 11> *
| 12> 
| 13> %maxcore 5000
| 14> 
| 15> %pal
| 16> nprocs = 28
| 17> end
| 18> 
| 19> 
| 20>                          ****END OF INPUT****
================================================================================

                       ****************************
                       * Single Point Calculation *
                       ****************************

---------------------------------
CARTESIAN COORDINATES (ANGSTROEM)
---------------------------------
  C      0.000000    0.000000    0.000000
  H      0.000000    0.000000    1.077320
  H      0.932980    0.000000   -0.538660
  H     -0.932980    0.000000   -0.538660

----------------------------
CARTESIAN COORDINATES (A.U.)
----------------------------
  NO LB      ZA    FRAG     MASS         X           Y           Z
   0 C     6.0000    0    12.011    0.000000    0.000000    0.000000
   1 H     1.0000    0     1.008    0.000000    0.000000    2.035840
   2 H     1.0000    0     1.008    1.763077    0.000000   -1.017920
   3 H     1.0000    0     1.008   -1.763077    0.000000   -1.017920

--------------------------------
INTERNAL COORDINATES (ANGSTROEM)
--------------------------------
 C      0   0   0     0.000000000000     0.00000000     0.00000000
 H      1   0   0     1.077320000000     0.00000000     0.00000000
 H      1   2   0     1.077314381228   120.00017253     0.00000000
 H      1   2   3     1.077314381228   120.00017253   180.00000121

---------------------------
INTERNAL COORDINATES (A.U.)
---------------------------
 C      0   0   0     0.000000000000     0.00000000     0.00000000
 H      1   0   0     2.035839758596     0.00000000     0.00000000
 H      1   2   0     2.035829140655   120.00017253     0.00000000
 H      1   2   3     2.035829140655   120.00017253   180.00000121

---------------------
BASIS SET INFORMATION
---------------------
There are 2 groups of distinct atoms

 Group   1 Type C   : 12s6p3d1f contracted to 6s3p3d1f pattern {621111/411/111/1}
 Group   2 Type H   : 5s3p1d contracted to 3s3p1d pattern {311/111/1}

Atom   0C    basis set group =>   1
Atom   1H    basis set group =>   2
Atom   2H    basis set group =>   2
Atom   3H    basis set group =>   2
---------------------------------
AUXILIARY/J BASIS SET INFORMATION
---------------------------------
There are 2 groups of distinct atoms

 Group   1 Type C   : 12s5p4d2f1g contracted to 6s4p3d1f1g pattern {711111/2111/211/2/1}
 Group   2 Type H   : 5s2p1d contracted to 3s1p1d pattern {311/2/1}

Atom   0C    basis set group =>   1
Atom   1H    basis set group =>   2
Atom   2H    basis set group =>   2
Atom   3H    basis set group =>   2


           ************************************************************
           *        Program running with 28 parallel MPI-processes    *
           *              working on a common directory               *
           ************************************************************
------------------------------------------------------------------------------
                           ORCA GTO INTEGRAL CALCULATION
                           -- RI-GTO INTEGRALS CHOSEN --
------------------------------------------------------------------------------

                         BASIS SET STATISTICS AND STARTUP INFO

Gaussian basis set:
 # of primitive gaussian shells          ...   49
 # of primitive gaussian functions       ...  109
 # of contracted shells                  ...   34
 # of contracted basis functions         ...   88
 Highest angular momentum                ...    3
 Maximum contraction depth               ...    6
Auxiliary gaussian basis set:
 # of primitive gaussian shells          ...   48
 # of primitive gaussian functions       ...  118
 # of contracted shells                  ...   30
 # of contracted aux-basis functions     ...   82
 Highest angular momentum                ...    4
 Maximum contraction depth               ...    7
Ratio of auxiliary to basis functions    ...  0.93
Integral package used                  ... LIBINT
 One Electron integrals                  ... done
 Ordering auxiliary basis shells         ... done
 Integral threshhold             Thresh  ...  1.000e-10
 Primitive cut-off               TCut    ...  1.000e-11
 Pre-screening matrix                    ... done
 Shell pair data                         ... 
 Ordering of the shell pairs             ... done (   0.000 sec) 595 of 595 pairs
 Determination of significant pairs      ... done (   0.000 sec)
 Creation of shell pair data             ... done (   0.000 sec)
 Storage of shell pair data              ... done (   0.048 sec)
 Shell pair data done in (   0.048 sec)
 Computing two index integrals           ... done
 Cholesky decomposition of the V-matrix  ... done


Timings:
 Total evaluation time                   ...   0.426 sec (  0.007 min)
 One electron matrix time                ...   0.138 sec (  0.002 min) = 32.5%
 Schwartz matrix evaluation time         ...   0.108 sec (  0.002 min) = 25.5%
 Two index repulsion integral time       ...   0.045 sec (  0.001 min) = 10.6%
 Cholesky decomposition of V             ...   0.035 sec (  0.001 min) =  8.1%
 Three index repulsion integral time     ...   0.000 sec (  0.000 min) =  0.0%



           ************************************************************
           *        Program running with 28 parallel MPI-processes    *
           *              working on a common directory               *
           ************************************************************
-------------------------------------------------------------------------------
                                 ORCA SCF
-------------------------------------------------------------------------------

------------
SCF SETTINGS
------------
Hamiltonian:
 Density Functional     Method          .... DFT(GTOs)
 Exchange Functional    Exchange        .... TPSS
 Correlation Functional Correlation     .... TPSS
 LDA part of GGA corr.  LDAOpt          .... PW91-LDA
 Gradients option       PostSCFGGA      .... off
   Density functional embedding theory  .... OFF
   NL short-range parameter             ....  5.000000
 RI-approximation to the Coulomb term is turned on
   Number of auxiliary basis functions  .... 82


General Settings:
 Integral files         IntName         .... CH3
 Hartree-Fock type      HFTyp           .... UHF
 Total Charge           Charge          ....    0
 Multiplicity           Mult            ....    2
 Number of Electrons    NEL             ....    9
 Basis Dimension        Dim             ....   88
 Nuclear Repulsion      ENuc            ....      9.6923735442 Eh

Convergence Acceleration:
 DIIS                   CNVDIIS         .... on
   Start iteration      DIISMaxIt       ....    12
   Startup error        DIISStart       ....  0.200000
   # of expansion vecs  DIISMaxEq       ....     5
   Bias factor          DIISBfac        ....   1.050
   Max. coefficient     DIISMaxC        ....  10.000
 Newton-Raphson         CNVNR           .... off
 SOSCF                  CNVSOSCF        .... off
 Level Shifting         CNVShift        .... on
   Level shift para.    LevelShift      ....    0.2500
   Turn off err/grad.   ShiftErr        ....    0.0010
 Zerner damping         CNVZerner       .... off
 Static damping         CNVDamp         .... on
   Fraction old density DampFac         ....    0.7000
   Max. Damping (<1)    DampMax         ....    0.9800
   Min. Damping (>=0)   DampMin         ....    0.0000
   Turn off err/grad.   DampErr         ....    0.1000
 Fernandez-Rico         CNVRico         .... off

SCF Procedure:
 Maximum # iterations   MaxIter         ....   125
 SCF integral mode      SCFMode         .... Direct
   Integral package                     .... LIBINT
 Reset frequency        DirectResetFreq ....    20
 Integral Threshold     Thresh          ....  1.000e-10 Eh
 Primitive CutOff       TCut            ....  1.000e-11 Eh

Convergence Tolerance:
 Convergence Check Mode ConvCheckMode   .... Total+1el-Energy
 Convergence forced     ConvForced      .... 0
 Energy Change          TolE            ....  1.000e-06 Eh
 1-El. energy change                    ....  1.000e-03 Eh
 DIIS Error             TolErr          ....  1.000e-06


Diagonalization of the overlap matrix:
Smallest eigenvalue                        ... 6.935e-05
Time for diagonalization                   ...    0.002 sec
Threshold for overlap eigenvalues          ... 1.000e-08
Number of eigenvalues below threshold      ... 0
Time for construction of square roots      ...    0.142 sec
Total time needed                          ...    0.144 sec

-------------------
DFT GRID GENERATION
-------------------

General Integration Accuracy     IntAcc      ...  4.670
Radial Grid Type                 RadialGrid  ... Gauss-Chebyshev
Angular Grid (max. acc.)         AngularGrid ... Lebedev-302
Angular grid pruning method      GridPruning ... 3 (G Style)
Weight generation scheme         WeightScheme... Becke
Basis function cutoff            BFCut       ...    1.0000e-10
Integration weight cutoff        WCut        ...    1.0000e-14
Grids for H and He will be reduced by one unit

# of grid points (after initial pruning)     ...  16394 (   0.0 sec)
# of grid points (after weights+screening)   ...  16149 (   0.0 sec)
nearest neighbour list constructed           ...    0.0 sec
Grid point re-assignment to atoms done       ...    0.0 sec
Grid point division into batches done        ...    0.1 sec
Reduced shell lists constructed in    0.1 sec

Total number of grid points                  ...    16149
Total number of batches                      ...      253
Average number of points per batch           ...       63
Average number of grid points per atom       ...     4037
Average number of shells per batch           ...    30.00 (88.24%)
Average number of basis functions per batch  ...    79.09 (89.88%)
Average number of large shells per batch     ...    28.18 (93.94%)
Average number of large basis fcns per batch ...    74.73 (94.48%)
Maximum spatial batch extension              ...   2.57, 19.60,  2.88 au
Average spatial batch extension              ...   0.08,  0.20,  0.07 au

Time for grid setup =    3.139 sec

------------------------------
INITIAL GUESS: MODEL POTENTIAL
------------------------------
Loading Hartree-Fock densities                     ... done
Calculating cut-offs                               ... done
Setting up the integral package                    ... done
Initializing the effective Hamiltonian             ... done
Starting the Coulomb interaction                   ... done (   0.0 sec)
Reading the grid                                   ... done
Mapping shells                                     ... done
Starting the XC term evaluation                    ... done (   0.0 sec)
  promolecular density results
     # of electrons  =      8.998546177
     EX              =     -5.933475092
     EC              =     -0.258962079
     EX+EC           =     -6.192437171
Transforming the Hamiltonian                       ... done (   0.1 sec)
Diagonalizing the Hamiltonian                      ... done (   0.0 sec)
Back transforming the eigenvectors                 ... done (   0.0 sec)
Now organizing SCF variables                       ... done
                      ------------------
                      INITIAL GUESS DONE (   4.0 sec)
                      ------------------
--------------
SCF ITERATIONS
--------------
ITER       Energy         Delta-E        Max-DP      RMS-DP      [F,P]     Damp
               ***  Starting incremental Fock matrix formation  ***
  0    -39.8260075211   0.000000000000 0.01772710  0.00047126  0.1571776 0.7000
  1    -39.8436991423  -0.017691621258 0.01148569  0.00037431  0.0830515 0.7000
                               ***Turning on DIIS***
  2    -39.8510817812  -0.007382638824 0.02364278  0.00092199  0.0313377 0.0000
  3    -39.8610596354  -0.009977854217 0.01114873  0.00029465  0.0466769 0.0000
  4    -39.8645004541  -0.003440818689 0.00325047  0.00007985  0.0079833 0.0000
  5    -39.8646855173  -0.000185063198 0.00133392  0.00005109  0.0020873 0.0000
  6    -39.8647078297  -0.000022312440 0.00089924  0.00004321  0.0007039 0.0000
  7    -39.8647129226  -0.000005092853 0.00020583  0.00000689  0.0001541 0.0000
                 **** Energy Check signals convergence ****

               *****************************************************
               *                     SUCCESS                       *
               *           SCF CONVERGED AFTER   8 CYCLES          *
               *****************************************************


----------------
TOTAL SCF ENERGY
----------------

Total Energy       :          -39.86471310 Eh           -1084.77399 eV

Components:
Nuclear Repulsion  :            9.69237354 Eh             263.74289 eV
Electronic Energy  :          -49.55708665 Eh           -1348.51688 eV
One Electron Energy:          -71.69746295 Eh           -1950.98715 eV
Two Electron Energy:           22.14037630 Eh             602.47027 eV

Virial components:
Potential Energy   :          -79.53185253 Eh           -2164.17173 eV
Kinetic Energy     :           39.66713943 Eh            1079.39774 eV
Virial Ratio       :            2.00498079


DFT components:
N(Alpha)           :        4.999997721684 electrons
N(Beta)            :        3.999998596151 electrons
N(Total)           :        8.999996317835 electrons
E(X)               :       -6.257220792255 Eh       
E(C)               :       -0.259213279247 Eh       
E(XC)              :       -6.516434071502 Eh       
DFET-embed. en.    :        0.000000000000 Eh       

---------------
SCF CONVERGENCE
---------------

  Last Energy change         ...   -1.7961e-07  Tolerance :   1.0000e-06
  Last MAX-Density change    ...    3.5902e-05  Tolerance :   1.0000e-05
  Last RMS-Density change    ...    1.2659e-06  Tolerance :   1.0000e-06
  Last DIIS Error            ...    1.4418e-05  Tolerance :   1.0000e-06

             **** THE GBW FILE WAS UPDATED (CH3.gbw) ****
             **** DENSITY FILE WAS UPDATED (CH3.scfp) ****
             **** ENERGY FILE WAS UPDATED (CH3.en.tmp) ****
----------------------
UHF SPIN CONTAMINATION
----------------------

Warning: in a DFT calculation there is little theoretical justification to 
         calculate <S**2> as in Hartree-Fock theory. We will do it anyways
         but you should keep in mind that the values have only limited relevance

Expectation value of <S**2>     :     0.755016
Ideal value S*(S+1) for S=0.5   :     0.750000
Deviation                       :     0.005016

             **** THE GBW FILE WAS UPDATED (CH3.gbw) ****
             **** DENSITY FILE WAS UPDATED (CH3.scfp) ****
----------------
ORBITAL ENERGIES
----------------
                 SPIN UP ORBITALS
  NO   OCC          E(Eh)            E(eV) 
   0   1.0000      -9.999283      -272.0943 
   1   1.0000      -0.637349       -17.3431 
   2   1.0000      -0.382602       -10.4111 
   3   1.0000      -0.382601       -10.4111 
   4   1.0000      -0.202399        -5.5075 
   5   0.0000       0.004786         0.1302 
   6   0.0000       0.083070         2.2604 
   7   0.0000       0.083077         2.2607 
   8   0.0000       0.116355         3.1662 
   9   0.0000       0.121336         3.3017 
  10   0.0000       0.121336         3.3017 
  11   0.0000       0.146449         3.9851 
  12   0.0000       0.169599         4.6150 
  13   0.0000       0.169645         4.6163 
  14   0.0000       0.226547         6.1647 
  15   0.0000       0.283431         7.7126 
  16   0.0000       0.283448         7.7130 
  17   0.0000       0.283467         7.7135 
  18   0.0000       0.288190         7.8420 
  19   0.0000       0.312123         8.4933 
  20   0.0000       0.312187         8.4950 
  21   0.0000       0.395341        10.7578 
  22   0.0000       0.405768        11.0415 
  23   0.0000       0.405801        11.0424 
  24   0.0000       0.407828        11.0976 
  25   0.0000       0.427988        11.6461 
  26   0.0000       0.428135        11.6501 
  27   0.0000       0.666210        18.1285 
  28   0.0000       0.689051        18.7500 
  29   0.0000       0.689128        18.7521 
  30   0.0000       0.711850        19.3704 
  31   0.0000       0.711891        19.3715 
  32   0.0000       0.861946        23.4548 
  33   0.0000       0.861947        23.4548 
  34   0.0000       0.949961        25.8498 
  35   0.0000       0.964115        26.2349 
  36   0.0000       0.973614        26.4934 
  37   0.0000       1.187990        32.3268 
  38   0.0000       1.188030        32.3279 
  39   0.0000       1.383347        37.6428 
  40   0.0000       1.399230        38.0750 
  41   0.0000       1.399348        38.0782 
  42   0.0000       1.431118        38.9427 
  43   0.0000       1.431135        38.9432 
  44   0.0000       1.570923        42.7470 
  45   0.0000       1.689383        45.9705 
  46   0.0000       1.739380        47.3309 
  47   0.0000       1.739404        47.3316 
  48   0.0000       2.618012        71.2397 
  49   0.0000       2.618077        71.2415 
  50   0.0000       2.679152        72.9034 
  51   0.0000       2.679190        72.9045 
  52   0.0000       2.705619        73.6236 
  53   0.0000       2.896281        78.8118 
  54   0.0000       2.912744        79.2598 
  55   0.0000       2.912785        79.2609 
  56   0.0000       2.964529        80.6689 
  57   0.0000       2.976807        81.0030 
  58   0.0000       3.013899        82.0124 
  59   0.0000       3.013956        82.0139 
  60   0.0000       3.215645        87.5021 
  61   0.0000       3.499653        95.2304 
  62   0.0000       3.499852        95.2358 
  63   0.0000       3.581144        97.4479 
  64   0.0000       3.706315       100.8540 
  65   0.0000       3.706321       100.8541 
  66   0.0000       3.730200       101.5039 
  67   0.0000       3.730275       101.5060 
  68   0.0000       3.946988       107.4030 
  69   0.0000       3.962048       107.8128 
  70   0.0000       3.970674       108.0475 
  71   0.0000       4.028355       109.6171 
  72   0.0000       4.028412       109.6187 
  73   0.0000       4.171289       113.5065 
  74   0.0000       4.171299       113.5068 
  75   0.0000       4.613911       125.5509 
  76   0.0000       4.697253       127.8187 
  77   0.0000       4.697329       127.8208 
  78   0.0000       4.947338       134.6239 
  79   0.0000       4.947366       134.6247 
  80   0.0000       5.024659       136.7279 
  81   0.0000       5.024696       136.7289 
  82   0.0000       5.478025       149.0646 
  83   0.0000       5.493865       149.4957 
  84   0.0000       5.493905       149.4968 
  85   0.0000       5.691465       154.8726 
  86   0.0000       6.313641       171.8029 
  87   0.0000      23.427058       637.4827 

                 SPIN DOWN ORBITALS
  NO   OCC          E(Eh)            E(eV) 
   0   1.0000      -9.983932      -271.6766 
   1   1.0000      -0.601465       -16.3667 
   2   1.0000      -0.375068       -10.2061 
   3   1.0000      -0.375062       -10.2060 
   4   0.0000      -0.092194        -2.5087 
   5   0.0000       0.015080         0.4103 
   6   0.0000       0.087361         2.3772 
   7   0.0000       0.087367         2.3774 
   8   0.0000       0.123006         3.3472 
   9   0.0000       0.123014         3.3474 
  10   0.0000       0.139373         3.7925 
  11   0.0000       0.178531         4.8581 
  12   0.0000       0.181362         4.9351 
  13   0.0000       0.181384         4.9357 
  14   0.0000       0.241398         6.5688 
  15   0.0000       0.283682         7.7194 
  16   0.0000       0.295639         8.0448 
  17   0.0000       0.295657         8.0452 
  18   0.0000       0.300411         8.1746 
  19   0.0000       0.320686         8.7263 
  20   0.0000       0.320713         8.7271 
  21   0.0000       0.408905        11.1269 
  22   0.0000       0.408915        11.1271 
  23   0.0000       0.428608        11.6630 
  24   0.0000       0.431658        11.7460 
  25   0.0000       0.439586        11.9617 
  26   0.0000       0.439647        11.9634 
  27   0.0000       0.691794        18.8247 
  28   0.0000       0.704420        19.1682 
  29   0.0000       0.704506        19.1706 
  30   0.0000       0.746419        20.3111 
  31   0.0000       0.746456        20.3121 
  32   0.0000       0.870414        23.6852 
  33   0.0000       0.870442        23.6859 
  34   0.0000       0.964545        26.2466 
  35   0.0000       0.973428        26.4883 
  36   0.0000       1.020456        27.7680 
  37   0.0000       1.214107        33.0375 
  38   0.0000       1.214140        33.0384 
  39   0.0000       1.394351        37.9422 
  40   0.0000       1.416997        38.5585 
  41   0.0000       1.417124        38.5619 
  42   0.0000       1.436177        39.0804 
  43   0.0000       1.436202        39.0810 
  44   0.0000       1.655611        45.0515 
  45   0.0000       1.729762        47.0692 
  46   0.0000       1.777281        48.3623 
  47   0.0000       1.777304        48.3629 
  48   0.0000       2.673966        72.7623 
  49   0.0000       2.674094        72.7658 
  50   0.0000       2.744926        74.6932 
  51   0.0000       2.767738        75.3140 
  52   0.0000       2.767889        75.3181 
  53   0.0000       2.979671        81.0810 
  54   0.0000       2.979756        81.0833 
  55   0.0000       2.990915        81.3869 
  56   0.0000       3.056696        83.1769 
  57   0.0000       3.087924        84.0267 
  58   0.0000       3.089461        84.0685 
  59   0.0000       3.089516        84.0700 
  60   0.0000       3.226220        87.7899 
  61   0.0000       3.537926        96.2718 
  62   0.0000       3.538070        96.2758 
  63   0.0000       3.619585        98.4939 
  64   0.0000       3.740466       101.7833 
  65   0.0000       3.740475       101.7835 
  66   0.0000       3.776255       102.7571 
  67   0.0000       3.776354       102.7598 
  68   0.0000       3.950751       107.5054 
  69   0.0000       3.981357       108.3382 
  70   0.0000       4.003926       108.9524 
  71   0.0000       4.080993       111.0495 
  72   0.0000       4.081023       111.0503 
  73   0.0000       4.187103       113.9369 
  74   0.0000       4.187113       113.9371 
  75   0.0000       4.694809       127.7522 
  76   0.0000       4.767339       129.7259 
  77   0.0000       4.767416       129.7280 
  78   0.0000       5.039227       137.1243 
  79   0.0000       5.039346       137.1276 
  80   0.0000       5.124825       139.4536 
  81   0.0000       5.124902       139.4557 
  82   0.0000       5.595948       152.2735 
  83   0.0000       5.607426       152.5858 
  84   0.0000       5.607464       152.5868 
  85   0.0000       5.852005       159.2412 
  86   0.0000       6.427088       174.8899 
  87   0.0000      23.465114       638.5182 

                    ********************************
                    * MULLIKEN POPULATION ANALYSIS *
                    ********************************

--------------------------------------------
MULLIKEN ATOMIC CHARGES AND SPIN POPULATIONS
--------------------------------------------
   0 C :   -0.418209    1.179267
   1 H :    0.139357   -0.059779
   2 H :    0.139427   -0.059744
   3 H :    0.139426   -0.059744
Sum of atomic charges         :   -0.0000000
Sum of atomic spin populations:    1.0000000

-----------------------------------------------------
MULLIKEN REDUCED ORBITAL CHARGES AND SPIN POPULATIONS
-----------------------------------------------------
CHARGE
  0 C s       :     3.326897  s :     3.326897
      pz      :     1.067835  p :     3.062072
      px      :     1.067954
      py      :     0.926282
      dz2     :     0.009811  d :     0.027205
      dxz     :     0.012061
      dyz     :    -0.000000
      dx2y2   :     0.005332
      dxy     :     0.000000
      f0      :     0.000691  f :     0.002036
      f+1     :     0.000044
      f-1     :    -0.000016
      f+2     :     0.000694
      f-2     :    -0.000000
      f+3     :     0.000651
      f-3     :    -0.000027
  1 H s       :     0.806011  s :     0.806011
      pz      :     0.019361  p :     0.053583
      px      :     0.010103
      py      :     0.024120
      dz2     :     0.000107  d :     0.001050
      dxz     :     0.000435
      dyz     :     0.000503
      dx2y2   :     0.000005
      dxy     :     0.000000
  2 H s       :     0.805952  s :     0.805952
      pz      :     0.012456  p :     0.053571
      px      :     0.017049
      py      :     0.024065
      dz2     :     0.000249  d :     0.001050
      dxz     :     0.000172
      dyz     :     0.000126
      dx2y2   :     0.000125
      dxy     :     0.000378
  3 H s       :     0.805953  s :     0.805953
      pz      :     0.012456  p :     0.053571
      px      :     0.017049
      py      :     0.024065
      dz2     :     0.000249  d :     0.001050
      dxz     :     0.000172
      dyz     :     0.000126
      dx2y2   :     0.000125
      dxy     :     0.000378

SPIN
  0 C s       :     0.029628  s :     0.029628
      pz      :     0.106696  p :     1.139579
      px      :     0.106601
      py      :     0.926282
      dz2     :     0.005106  d :     0.011742
      dxz     :     0.008653
      dyz     :    -0.000000
      dx2y2   :    -0.002018
      dxy     :     0.000000
      f0      :    -0.000394  f :    -0.001681
      f+1     :    -0.000045
      f-1     :    -0.000016
      f+2     :    -0.000524
      f-2     :    -0.000000
      f+3     :    -0.000675
      f-3     :    -0.000027
  1 H s       :    -0.090606  s :    -0.090606
      pz      :     0.001435  p :     0.030111
      px      :     0.004555
      py      :     0.024120
      dz2     :     0.000042  d :     0.000717
      dxz     :     0.000172
      dyz     :     0.000503
      dx2y2   :    -0.000001
      dxy     :    -0.000000
  2 H s       :    -0.090511  s :    -0.090511
      pz      :     0.003782  p :     0.030050
      px      :     0.002202
      py      :     0.024065
      dz2     :     0.000097  d :     0.000717
      dxz     :     0.000068
      dyz     :     0.000126
      dx2y2   :     0.000048
      dxy     :     0.000378
  3 H s       :    -0.090511  s :    -0.090511
      pz      :     0.003782  p :     0.030049
      px      :     0.002202
      py      :     0.024065
      dz2     :     0.000097  d :     0.000717
      dxz     :     0.000068
      dyz     :     0.000126
      dx2y2   :     0.000048
      dxy     :     0.000378


                     *******************************
                     * LOEWDIN POPULATION ANALYSIS *
                     *******************************

-------------------------------------------
LOEWDIN ATOMIC CHARGES AND SPIN POPULATIONS
-------------------------------------------
   0 C :    0.364952    0.736936
   1 H :   -0.121653    0.087693
   2 H :   -0.121650    0.087685
   3 H :   -0.121650    0.087685

----------------------------------------------------
LOEWDIN REDUCED ORBITAL CHARGES AND SPIN POPULATIONS
----------------------------------------------------
CHARGE
  0 C s       :     2.783511  s :     2.783511
      pz      :     0.994979  p :     2.693509
      px      :     0.994983
      py      :     0.703546
      dz2     :     0.053329  d :     0.147205
      dxz     :     0.066111
      dyz     :     0.000000
      dx2y2   :     0.027766
      dxy     :     0.000000
      f0      :     0.004022  f :     0.010824
      f+1     :     0.000138
      f-1     :     0.000489
      f+2     :     0.003295
      f-2     :     0.000000
      f+3     :     0.002066
      f-3     :     0.000814
  1 H s       :     0.766403  s :     0.766403
      pz      :     0.151062  p :     0.325234
      px      :     0.085698
      py      :     0.088474
      dz2     :     0.011079  d :     0.030016
      dxz     :     0.009017
      dyz     :     0.009914
      dx2y2   :     0.000006
      dxy     :     0.000000
  2 H s       :     0.766402  s :     0.766402
      pz      :     0.102041  p :     0.325231
      px      :     0.134723
      py      :     0.088468
      dz2     :     0.005258  d :     0.030017
      dxz     :     0.008527
      dyz     :     0.002479
      dx2y2   :     0.006318
      dxy     :     0.007435
  3 H s       :     0.766402  s :     0.766402
      pz      :     0.102041  p :     0.325231
      px      :     0.134723
      py      :     0.088468
      dz2     :     0.005258  d :     0.030017
      dxz     :     0.008527
      dyz     :     0.002479
      dx2y2   :     0.006318
      dxy     :     0.007435

SPIN
  0 C s       :     0.016213  s :     0.016213
      pz      :     0.015300  p :     0.734153
      px      :     0.015306
      py      :     0.703546
      dz2     :    -0.003913  d :    -0.012537
      dxz     :    -0.003120
      dyz     :     0.000000
      dx2y2   :    -0.005505
      dxy     :     0.000000
      f0      :    -0.000695  f :    -0.000892
      f+1     :    -0.000048
      f-1     :     0.000489
      f+2     :    -0.000726
      f-2     :    -0.000000
      f+3     :    -0.000726
      f-3     :     0.000814
  1 H s       :    -0.018186  s :    -0.018186
      pz      :     0.005399  p :     0.094816
      px      :     0.000943
      py      :     0.088474
      dz2     :     0.000691  d :     0.011063
      dxz     :     0.000456
      dyz     :     0.009914
      dx2y2   :     0.000003
      dxy     :     0.000000
  2 H s       :    -0.018186  s :    -0.018186
      pz      :     0.002057  p :     0.094808
      px      :     0.004284
      py      :     0.088468
      dz2     :     0.000302  d :     0.011063
      dxz     :     0.000638
      dyz     :     0.002479
      dx2y2   :     0.000209
      dxy     :     0.007435
  3 H s       :    -0.018186  s :    -0.018186
      pz      :     0.002057  p :     0.094808
      px      :     0.004284
      py      :     0.088468
      dz2     :     0.000302  d :     0.011063
      dxz     :     0.000638
      dyz     :     0.002479
      dx2y2   :     0.000209
      dxy     :     0.007435


                      *****************************
                      * MAYER POPULATION ANALYSIS *
                      *****************************

  NA   - Mulliken gross atomic population
  ZA   - Total nuclear charge
  QA   - Mulliken gross atomic charge
  VA   - Mayer's total valence
  BVA  - Mayer's bonded valence
  FA   - Mayer's free valence

  ATOM       NA         ZA         QA         VA         BVA        FA
  0 C      6.4182     6.0000    -0.4182     3.8643     2.9787     0.8856
  1 H      0.8606     1.0000     0.1394     1.0257     1.0158     0.0099
  2 H      0.8606     1.0000     0.1394     1.0257     1.0158     0.0099
  3 H      0.8606     1.0000     0.1394     1.0257     1.0158     0.0099

  Mayer bond orders larger than 0.100000
B(  0-C ,  1-H ) :   0.9929 B(  0-C ,  2-H ) :   0.9929 B(  0-C ,  3-H ) :   0.9929 


-------
TIMINGS
-------

Total SCF time: 0 days 0 hours 2 min 45 sec 

Total time                  ....     165.725 sec
Sum of individual times     ....     164.124 sec  ( 99.0%)

Fock matrix formation       ....     154.800 sec  ( 93.4%)
  Split-RI-J                ....       0.905 sec  (  0.6% of F)
  XC integration            ....     152.466 sec  ( 98.5% of F)
    Basis function eval.    ....       0.018 sec  (  0.0% of XC)
    Density eval.           ....       0.041 sec  (  0.0% of XC)
    XC-Functional eval.     ....       0.019 sec  (  0.0% of XC)
    XC-Potential eval.      ....       0.080 sec  (  0.1% of XC)
Diagonalization             ....       3.584 sec  (  2.2%)
Density matrix formation    ....       0.005 sec  (  0.0%)
Population analysis         ....       1.647 sec  (  1.0%)
Initial guess               ....       0.879 sec  (  0.5%)
Orbital Transformation      ....       0.000 sec  (  0.0%)
Orbital Orthonormalization  ....       0.000 sec  (  0.0%)
DIIS solution               ....       0.071 sec  (  0.0%)
Grid generation             ....       3.139 sec  (  1.9%)


-------------------------------------------------------------------------------
                          DFT DISPERSION CORRECTION                            
                                                                               
                              DFTD3 V3.1  Rev 1                                
                          USING Becke-Johnson damping                          
-------------------------------------------------------------------------------
The TPSS functional is recognized
Active option DFTDOPT                   ...         4   

molecular C6(AA) [au] = 106.956735 


            DFT-D V3
 parameters
 s6 scaling factor         :     1.0000 
 a1 scaling factor         :     0.4535 
 s8 scaling factor         :     1.9435 
 a2 scaling factor         :     4.4752 
 ad hoc parameters k1-k3   :    16.0000     1.3333    -4.0000 

 Edisp/kcal,au: -0.631432437272  -0.001006251532 
 E6   /kcal   :  -0.349592921 
 E8   /kcal   :  -0.281839516 
 % E8         :  44.634944167 

-------------------------   ----------------
Dispersion correction           -0.001006252
-------------------------   ----------------


-------------------------   --------------------
FINAL SINGLE POINT ENERGY       -39.865719353701
-------------------------   --------------------


                            ***************************************
                            *     ORCA property calculations      *
                            ***************************************

                                    ---------------------
                                    Active property flags
                                    ---------------------
   (+) Dipole Moment


------------------------------------------------------------------------------
                       ORCA ELECTRIC PROPERTIES CALCULATION
------------------------------------------------------------------------------

Dipole Moment Calculation                       ... on
Quadrupole Moment Calculation                   ... off
Polarizability Calculation                      ... off
GBWName                                         ... CH3.gbw
Electron density file                           ... CH3.scfp
The origin for moment calculation is the CENTER OF MASS  = ( 0.000000,  0.000000  0.000000)

-------------
DIPOLE MOMENT
-------------
                                X             Y             Z
Electronic contribution:      0.00000      -0.00000       0.00001
Nuclear contribution   :      0.00000       0.00000       0.00000
                        -----------------------------------------
Total Dipole Moment    :      0.00000      -0.00000       0.00001
                        -----------------------------------------
Magnitude (a.u.)       :      0.00001
Magnitude (Debye)      :      0.00002



--------------------
Rotational spectrum 
--------------------
 
Rotational constants in cm-1:     9.606423     9.606289     4.803178 
Rotational constants in MHz : 287993.315842 287989.310434 143995.656562 

 Dipole components along the rotational axes: 
x,y,z [a.u.] :     0.000006     0.000000    -0.000000 
x,y,z [Debye]:     0.000016     0.000000    -0.000000 

 

Timings for individual modules:

Sum of individual times         ...      172.531 sec (=   2.876 min)
GTO integral calculation        ...        5.822 sec (=   0.097 min)   3.4 %
SCF iterations                  ...      166.709 sec (=   2.778 min)  96.6 %
                             ****ORCA TERMINATED NORMALLY****
TOTAL RUN TIME: 0 days 0 hours 5 minutes 8 seconds 380 msec
