
                                 *****************
                                 * O   R   C   A *
                                 *****************

           --- An Ab Initio, DFT and Semiempirical electronic structure package ---

                  #######################################################
                  #                        -***-                        #
                  #          Department of theory and spectroscopy      #
                  #               Directorship: Frank Neese             #
                  #        Max Planck Institute fuer Kohlenforschung    #
                  #                Kaiser Wilhelm Platz 1               #
                  #                 D-45470 Muelheim/Ruhr               #
                  #                      Germany                        #
                  #                                                     #
                  #                  All rights reserved                #
                  #                        -***-                        #
                  #######################################################


                         Program Version 4.2.0 -  RELEASE  -


 With contributions from (in alphabetic order):
   Daniel Aravena         : Magnetic Suceptibility
   Michael Atanasov       : Ab Initio Ligand Field Theory (pilot matlab implementation)
   Alexander A. Auer      : GIAO ZORA, VPT2
   Ute Becker             : Parallelization
   Giovanni Bistoni       : ED, misc. LED, open-shell LED, HFLED
   Martin Brehm           : Molecular dynamics
   Dmytro Bykov           : SCF Hessian
   Vijay G. Chilkuri      : MRCI spin determinant printing, contributions to CSF-ICE
   Dipayan Datta          : RHF DLPNO-CCSD density
   Achintya Kumar Dutta   : EOM-CC, STEOM-CC
   Dmitry Ganyushin       : Spin-Orbit,Spin-Spin,Magnetic field MRCI
   Miquel Garcia          : C-PCM Hessian, Gaussian charge scheme
   Yang Guo               : DLPNO-NEVPT2, CIM, IAO-localization
   Andreas Hansen         : Spin unrestricted coupled pair/coupled cluster methods
   Benjamin Helmich-Paris : CASSCF linear response (MC-RPA)
   Lee Huntington         : MR-EOM, pCC
   Robert Izsak           : Overlap fitted RIJCOSX, COSX-SCS-MP3, EOM
   Christian Kollmar      : KDIIS, OOCD, Brueckner-CCSD(T), CCSD density
   Simone Kossmann        : Meta GGA functionals, TD-DFT gradient, OOMP2, MP2 Hessian
   Martin Krupicka        : AUTO-CI
   Lucas Lang             : DCDCAS
   Dagmar Lenk            : GEPOL surface, SMD
   Dimitrios Liakos       : Extrapolation schemes; Compound Job, initial MDCI parallelization
   Dimitrios Manganas     : Further ROCIS development; embedding schemes
   Dimitrios Pantazis     : SARC Basis sets
   Taras Petrenko         : DFT Hessian,TD-DFT gradient, ASA, ECA, R-Raman, ABS, FL, XAS/XES, NRVS
   Peter Pinski           : DLPNO-MP2, DLPNO-MP2 Gradient
   Christoph Reimann      : Effective Core Potentials
   Marius Retegan         : Local ZFS, SOC
   Christoph Riplinger    : Optimizer, TS searches, QM/MM, DLPNO-CCSD(T), (RO)-DLPNO pert. Triples
   Tobias Risthaus        : Range-separated hybrids, TD-DFT gradient, RPA, STAB
   Michael Roemelt        : Original ROCIS implementation
   Masaaki Saitow         : Open-shell DLPNO-CCSD energy and density
   Barbara Sandhoefer     : DKH picture change effects
   Avijit Sen             : IP-ROCIS
   Kantharuban Sivalingam : CASSCF convergence, NEVPT2, FIC-MRCI
   Bernardo de Souza      : ESD, SOC TD-DFT
   Georgi Stoychev        : AutoAux, RI-MP2 NMR
   Willem Van den Heuvel  : Paramagnetic NMR
   Boris Wezisla          : Elementary symmetry handling
   Frank Wennmohs         : Technical directorship


 We gratefully acknowledge several colleagues who have allowed us to
 interface, adapt or use parts of their codes:
   Stefan Grimme, W. Hujo, H. Kruse,             : VdW corrections, initial TS optimization,
                  C. Bannwarth                     DFT functionals, gCP, sTDA/sTD-DF
   Ed Valeev, F. Pavosevic, A. Kumar             : LibInt (2-el integral package), F12 methods
   Garnet Chan, S. Sharma, J. Yang, R. Olivares  : DMRG
   Ulf Ekstrom                                   : XCFun DFT Library
   Mihaly Kallay                                 : mrcc  (arbitrary order and MRCC methods)
   Andreas Klamt, Michael Diedenhofen            : otool_cosmo (COSMO solvation model)
   Jiri Pittner, Ondrej Demel                    : Mk-CCSD
   Frank Weinhold                                : gennbo (NPA and NBO analysis)
   Christopher J. Cramer and Donald G. Truhlar   : smd solvation model
   Lars Goerigk                                  : TD-DFT with DH, B97 family of functionals
   V. Asgeirsson, H. Jonsson                     : NEB implementation
   FAccTs GmbH                                   : IRC, NEB, NEB-TS, Multilevel, MM, QM/MM, CI optimization
   S Lehtola, MJT Oliveira, MAL Marques          : LibXC Library


 Your calculation uses the libint2 library for the computation of 2-el integrals
 For citations please refer to: http://libint.valeyev.net

 Your ORCA version has been built with support for libXC version: 4.2.3
 For citations please refer to: https://tddft.org/programs/libxc/

 This ORCA versions uses:
   CBLAS   interface :  Fast vector & matrix operations
   LAPACKE interface :  Fast linear algebra routines
   SCALAPACK package :  Parallel linear algebra routines


Your calculation utilizes the atom-pairwise dispersion correction
with the Becke-Johnson damping scheme (D3BJ)
Cite in your paper:
S.Grimme, S.Ehrlich, L.Goerigk, J Comput Chem, (2011), 32, 1456–1465 
S.Grimme, J.Antony, S.Ehrlich and H.Krieg, J.Chem.Phys., 132, (2010), 154104 
   

----- Orbital basis set information -----
Your calculation utilizes the basis: def2-TZVPPD
   F. Weigend and R. Ahlrichs, Phys. Chem. Chem. Phys. 7, 3297 (2005).
   D. Rappoport and F. Furche, J. Chem. Phys. 133 134105 (2010).

----- AuxJ basis set information -----
Your calculation utilizes the auxiliary basis: def2/J
   F. Weigend, Phys. Chem. Chem. Phys. 8, 1057 (2006).

================================================================================
                                        WARNINGS
                       Please study these warnings very carefully!
================================================================================


WARNING: your system is open-shell and RHF/RKS was chosen
  ===> : WILL SWITCH to UHF/UKS


INFO   : the flag for use of LIBINT has been found!

================================================================================
                                       INPUT FILE
================================================================================
NAME = CoH.in
|  1> #
|  2> # CoH TPSS-D3BJ/Def2-TZVPPD
|  3> #
|  4> ! tpss d3bj def2-tzvppd def2/j grid4 nofinalgrid
|  5> 
|  6> *xyz 0 3
|  7> Co         0.00000        0.00000        0.00000
|  8> H          0.00000        0.00000        1.53100
|  9> *
| 10> 
| 11> %maxcore 5000
| 12> 
| 13> %pal
| 14> nprocs = 28
| 15> end
| 16> 
| 17> 
| 18>                          ****END OF INPUT****
================================================================================

                       ****************************
                       * Single Point Calculation *
                       ****************************

---------------------------------
CARTESIAN COORDINATES (ANGSTROEM)
---------------------------------
  Co     0.000000    0.000000    0.000000
  H      0.000000    0.000000    1.531000

----------------------------
CARTESIAN COORDINATES (A.U.)
----------------------------
  NO LB      ZA    FRAG     MASS         X           Y           Z
   0 Co   27.0000    0    58.930    0.000000    0.000000    0.000000
   1 H     1.0000    0     1.008    0.000000    0.000000    2.893171

--------------------------------
INTERNAL COORDINATES (ANGSTROEM)
--------------------------------
 Co     0   0   0     0.000000000000     0.00000000     0.00000000
 H      1   0   0     1.531000000000     0.00000000     0.00000000

---------------------------
INTERNAL COORDINATES (A.U.)
---------------------------
 Co     0   0   0     0.000000000000     0.00000000     0.00000000
 H      1   0   0     2.893170711033     0.00000000     0.00000000

---------------------
BASIS SET INFORMATION
---------------------
There are 2 groups of distinct atoms

 Group   1 Type Co  : 17s13p7d2f1g contracted to 6s6p4d2f1g pattern {842111/631111/4111/11/1}
 Group   2 Type H   : 5s3p1d contracted to 3s3p1d pattern {311/111/1}

Atom   0Co   basis set group =>   1
Atom   1H    basis set group =>   2
---------------------------------
AUXILIARY/J BASIS SET INFORMATION
---------------------------------
There are 2 groups of distinct atoms

 Group   1 Type Co  : 19s5p5d3f3g contracted to 8s5p5d2f3g pattern {121111111/11111/11111/21/111}
 Group   2 Type H   : 5s2p1d contracted to 3s1p1d pattern {311/2/1}

Atom   0Co   basis set group =>   1
Atom   1H    basis set group =>   2


           ************************************************************
           *        Program running with 28 parallel MPI-processes    *
           *              working on a common directory               *
           ************************************************************
------------------------------------------------------------------------------
                           ORCA GTO INTEGRAL CALCULATION
                           -- RI-GTO INTEGRALS CHOSEN --
------------------------------------------------------------------------------

                         BASIS SET STATISTICS AND STARTUP INFO

Gaussian basis set:
 # of primitive gaussian shells          ...   49
 # of primitive gaussian functions       ...  133
 # of contracted shells                  ...   26
 # of contracted basis functions         ...   84
 Highest angular momentum                ...    4
 Maximum contraction depth               ...    8
Auxiliary gaussian basis set:
 # of primitive gaussian shells          ...   43
 # of primitive gaussian functions       ...  123
 # of contracted shells                  ...   28
 # of contracted aux-basis functions     ...  100
 Highest angular momentum                ...    4
 Maximum contraction depth               ...   12
Ratio of auxiliary to basis functions    ...  1.19
Integral package used                  ... LIBINT
 One Electron integrals                  ... done
 Ordering auxiliary basis shells         ... done
 Integral threshhold             Thresh  ...  1.000e-10
 Primitive cut-off               TCut    ...  1.000e-11
 Pre-screening matrix                    ... done
 Shell pair data                         ... 
 Ordering of the shell pairs             ... done (   0.000 sec) 351 of 351 pairs
 Determination of significant pairs      ... done (   0.000 sec)
 Creation of shell pair data             ... done (   0.000 sec)
 Storage of shell pair data              ... done (   0.049 sec)
 Shell pair data done in (   0.050 sec)
 Computing two index integrals           ... done
 Cholesky decomposition of the V-matrix  ... done


Timings:
 Total evaluation time                   ...   0.568 sec (  0.009 min)
 One electron matrix time                ...   0.151 sec (  0.003 min) = 26.6%
 Schwartz matrix evaluation time         ...   0.213 sec (  0.004 min) = 37.5%
 Two index repulsion integral time       ...   0.035 sec (  0.001 min) =  6.1%
 Cholesky decomposition of V             ...   0.060 sec (  0.001 min) = 10.6%
 Three index repulsion integral time     ...   0.000 sec (  0.000 min) =  0.0%



           ************************************************************
           *        Program running with 28 parallel MPI-processes    *
           *              working on a common directory               *
           ************************************************************
-------------------------------------------------------------------------------
                                 ORCA SCF
-------------------------------------------------------------------------------

------------
SCF SETTINGS
------------
Hamiltonian:
 Density Functional     Method          .... DFT(GTOs)
 Exchange Functional    Exchange        .... TPSS
 Correlation Functional Correlation     .... TPSS
 LDA part of GGA corr.  LDAOpt          .... PW91-LDA
 Gradients option       PostSCFGGA      .... off
   Density functional embedding theory  .... OFF
   NL short-range parameter             ....  5.000000
 RI-approximation to the Coulomb term is turned on
   Number of auxiliary basis functions  .... 100


General Settings:
 Integral files         IntName         .... CoH
 Hartree-Fock type      HFTyp           .... UHF
 Total Charge           Charge          ....    0
 Multiplicity           Mult            ....    3
 Number of Electrons    NEL             ....   28
 Basis Dimension        Dim             ....   84
 Nuclear Repulsion      ENuc            ....      9.3323217662 Eh

Convergence Acceleration:
 DIIS                   CNVDIIS         .... on
   Start iteration      DIISMaxIt       ....    12
   Startup error        DIISStart       ....  0.200000
   # of expansion vecs  DIISMaxEq       ....     5
   Bias factor          DIISBfac        ....   1.050
   Max. coefficient     DIISMaxC        ....  10.000
 Newton-Raphson         CNVNR           .... off
 SOSCF                  CNVSOSCF        .... off
 Level Shifting         CNVShift        .... on
   Level shift para.    LevelShift      ....    0.2500
   Turn off err/grad.   ShiftErr        ....    0.0010
 Zerner damping         CNVZerner       .... off
 Static damping         CNVDamp         .... on
   Fraction old density DampFac         ....    0.7000
   Max. Damping (<1)    DampMax         ....    0.9800
   Min. Damping (>=0)   DampMin         ....    0.0000
   Turn off err/grad.   DampErr         ....    0.1000
 Fernandez-Rico         CNVRico         .... off

SCF Procedure:
 Maximum # iterations   MaxIter         ....   125
 SCF integral mode      SCFMode         .... Direct
   Integral package                     .... LIBINT
 Reset frequency        DirectResetFreq ....    20
 Integral Threshold     Thresh          ....  1.000e-10 Eh
 Primitive CutOff       TCut            ....  1.000e-11 Eh

Convergence Tolerance:
 Convergence Check Mode ConvCheckMode   .... Total+1el-Energy
 Convergence forced     ConvForced      .... 0
 Energy Change          TolE            ....  1.000e-06 Eh
 1-El. energy change                    ....  1.000e-03 Eh
 DIIS Error             TolErr          ....  1.000e-06


Diagonalization of the overlap matrix:
Smallest eigenvalue                        ... 3.034e-03
Time for diagonalization                   ...    0.002 sec
Threshold for overlap eigenvalues          ... 1.000e-08
Number of eigenvalues below threshold      ... 0
Time for construction of square roots      ...    0.153 sec
Total time needed                          ...    0.155 sec

-------------------
DFT GRID GENERATION
-------------------

General Integration Accuracy     IntAcc      ...  4.670
Radial Grid Type                 RadialGrid  ... Gauss-Chebyshev
Angular Grid (max. acc.)         AngularGrid ... Lebedev-302
Angular grid pruning method      GridPruning ... 3 (G Style)
Weight generation scheme         WeightScheme... Becke
Basis function cutoff            BFCut       ...    1.0000e-10
Integration weight cutoff        WCut        ...    1.0000e-14
Grids for H and He will be reduced by one unit

# of grid points (after initial pruning)     ...  13034 (   0.0 sec)
# of grid points (after weights+screening)   ...  12998 (   0.0 sec)
nearest neighbour list constructed           ...    0.0 sec
Grid point re-assignment to atoms done       ...    0.0 sec
Grid point division into batches done        ...    0.1 sec
Reduced shell lists constructed in    0.1 sec

Total number of grid points                  ...    12998
Total number of batches                      ...      204
Average number of points per batch           ...       63
Average number of grid points per atom       ...     6499
Average number of shells per batch           ...     5.22 (20.09%)
Average number of basis functions per batch  ...    13.89 (16.53%)
Average number of large shells per batch     ...     2.44 (46.81%)
Average number of large basis fcns per batch ...     6.22 (44.80%)
Maximum spatial batch extension              ...  31.41, 28.57, 18.66 au
Average spatial batch extension              ...   0.94,  0.82,  0.62 au

Time for grid setup =    3.256 sec

------------------------------
INITIAL GUESS: MODEL POTENTIAL
------------------------------
Loading Hartree-Fock densities                     ... done
Calculating cut-offs                               ... done
Setting up the integral package                    ... done
Initializing the effective Hamiltonian             ... done
Starting the Coulomb interaction                   ... done (   0.0 sec)
Reading the grid                                   ... done
Mapping shells                                     ... done
Starting the XC term evaluation                    ... done (   0.0 sec)
  promolecular density results
     # of electrons  =     27.999537490
     EX              =    -58.008978788
     EC              =     -1.228978616
     EX+EC           =    -59.237957404
Transforming the Hamiltonian                       ... done (   0.0 sec)
Diagonalizing the Hamiltonian                      ... done (   0.0 sec)
Back transforming the eigenvectors                 ... done (   0.0 sec)
Now organizing SCF variables                       ... done
                      ------------------
                      INITIAL GUESS DONE (   4.2 sec)
                      ------------------
--------------
SCF ITERATIONS
--------------
ITER       Energy         Delta-E        Max-DP      RMS-DP      [F,P]     Damp
               ***  Starting incremental Fock matrix formation  ***
  0  -1383.2576585733   0.000000000000 0.04110342  0.00151890  0.3055037 0.7000
  1  -1383.3008604947  -0.043201921427 0.02436752  0.00061006  0.0660332 0.7000
                               ***Turning on DIIS***
  2  -1383.3177935573  -0.016933062626 0.09085193  0.00168123  0.0740257 0.0000
  3  -1383.3493962505  -0.031602693133 0.00395055  0.00018598  0.1390038 0.7000
  4  -1383.3560944723  -0.006698221832 0.00488263  0.00017877  0.1030505 0.7000
  5  -1383.3608733908  -0.004778918558 0.01538998  0.00049645  0.0714894 0.0000
  6  -1383.3677646232  -0.006891232321 0.00460780  0.00011028  0.0044265 0.0000
  7  -1383.3679894071  -0.000224783976 0.00219550  0.00006686  0.0044020 0.0000
  8  -1383.3680876555  -0.000098248322 0.00172055  0.00004875  0.0013076 0.0000
  9  -1383.3681339669  -0.000046311453 0.00239277  0.00008160  0.0008722 0.0000
 10  -1383.3681745057  -0.000040538803 0.00093052  0.00002280  0.0003329 0.0000
 11  -1383.3681764212  -0.000001915526 0.00030712  0.00000524  0.0005821 0.0000
 12  -1383.3681768887  -0.000000467413 0.00021287  0.00000515  0.0002232 0.0000
 13  -1383.3681768492   0.000000039435 0.00006094  0.00000126  0.0000651 0.0000
                 **** Energy Check signals convergence ****

               *****************************************************
               *                     SUCCESS                       *
               *           SCF CONVERGED AFTER  14 CYCLES          *
               *****************************************************


----------------
TOTAL SCF ENERGY
----------------

Total Energy       :        -1383.36817728 Eh          -37643.36186 eV

Components:
Nuclear Repulsion  :            9.33232177 Eh             253.94539 eV
Electronic Energy  :        -1392.70049905 Eh          -37897.30724 eV
One Electron Energy:        -1936.39249107 Eh          -52691.91849 eV
Two Electron Energy:          543.69199202 Eh           14794.61125 eV

Virial components:
Potential Energy   :        -2764.31417920 Eh          -75220.81297 eV
Kinetic Energy     :         1380.94600192 Eh           37577.45111 eV
Virial Ratio       :            2.00175400


DFT components:
N(Alpha)           :       14.999999254216 electrons
N(Beta)            :       12.999999795302 electrons
N(Total)           :       27.999999049518 electrons
E(X)               :      -58.525128892010 Eh       
E(C)               :       -1.237408231123 Eh       
E(XC)              :      -59.762537123133 Eh       
DFET-embed. en.    :        0.000000000000 Eh       

---------------
SCF CONVERGENCE
---------------

  Last Energy change         ...   -4.3394e-07  Tolerance :   1.0000e-06
  Last MAX-Density change    ...    6.3562e-05  Tolerance :   1.0000e-05
  Last RMS-Density change    ...    1.3035e-06  Tolerance :   1.0000e-06
  Last DIIS Error            ...    1.5668e-05  Tolerance :   1.0000e-06

             **** THE GBW FILE WAS UPDATED (CoH.gbw) ****
             **** DENSITY FILE WAS UPDATED (CoH.scfp) ****
             **** ENERGY FILE WAS UPDATED (CoH.en.tmp) ****
----------------------
UHF SPIN CONTAMINATION
----------------------

Warning: in a DFT calculation there is little theoretical justification to 
         calculate <S**2> as in Hartree-Fock theory. We will do it anyways
         but you should keep in mind that the values have only limited relevance

Expectation value of <S**2>     :     2.020594
Ideal value S*(S+1) for S=1.0   :     2.000000
Deviation                       :     0.020594

             **** THE GBW FILE WAS UPDATED (CoH.gbw) ****
             **** DENSITY FILE WAS UPDATED (CoH.scfp) ****
----------------
ORBITAL ENERGIES
----------------
                 SPIN UP ORBITALS
  NO   OCC          E(Eh)            E(eV) 
   0   1.0000    -276.616507     -7527.1178 
   1   1.0000     -32.391847      -881.4270 
   2   1.0000     -28.048801      -763.2467 
   3   1.0000     -28.048801      -763.2467 
   4   1.0000     -28.047949      -763.2235 
   5   1.0000      -3.560484       -96.8857 
   6   1.0000      -2.264751       -61.6270 
   7   1.0000      -2.264751       -61.6270 
   8   1.0000      -2.264750       -61.6270 
   9   1.0000      -0.267358        -7.2752 
  10   1.0000      -0.207694        -5.6516 
  11   1.0000      -0.187248        -5.0953 
  12   1.0000      -0.171518        -4.6672 
  13   1.0000      -0.171518        -4.6672 
  14   1.0000      -0.168181        -4.5764 
  15   0.0000      -0.091349        -2.4857 
  16   0.0000      -0.027794        -0.7563 
  17   0.0000      -0.027794        -0.7563 
  18   0.0000       0.059940         1.6311 
  19   0.0000       0.066449         1.8082 
  20   0.0000       0.108829         2.9614 
  21   0.0000       0.108829         2.9614 
  22   0.0000       0.144574         3.9341 
  23   0.0000       0.175320         4.7707 
  24   0.0000       0.175320         4.7707 
  25   0.0000       0.195859         5.3296 
  26   0.0000       0.196765         5.3542 
  27   0.0000       0.292409         7.9569 
  28   0.0000       0.299619         8.1531 
  29   0.0000       0.299619         8.1531 
  30   0.0000       0.370621        10.0851 
  31   0.0000       0.461391        12.5551 
  32   0.0000       0.588456        16.0127 
  33   0.0000       0.588456        16.0127 
  34   0.0000       0.624048        16.9812 
  35   0.0000       0.816668        22.2227 
  36   0.0000       0.816668        22.2227 
  37   0.0000       0.939810        25.5735 
  38   0.0000       0.949292        25.8315 
  39   0.0000       1.052407        28.6375 
  40   0.0000       1.115706        30.3599 
  41   0.0000       1.115706        30.3599 
  42   0.0000       1.269190        34.5364 
  43   0.0000       2.410644        65.5970 
  44   0.0000       2.559283        69.6416 
  45   0.0000       2.559283        69.6416 
  46   0.0000       2.621242        71.3276 
  47   0.0000       2.621242        71.3276 
  48   0.0000       2.635600        71.7183 
  49   0.0000       2.650074        72.1122 
  50   0.0000       2.654491        72.2324 
  51   0.0000       2.654491        72.2324 
  52   0.0000       2.654700        72.2381 
  53   0.0000       2.919921        79.4551 
  54   0.0000       3.086383        83.9848 
  55   0.0000       3.324629        90.4678 
  56   0.0000       3.325838        90.5007 
  57   0.0000       3.637521        98.9820 
  58   0.0000       3.723077       101.3101 
  59   0.0000       3.723077       101.3101 
  60   0.0000       3.724393       101.3459 
  61   0.0000       3.753843       102.1473 
  62   0.0000       3.821085       103.9770 
  63   0.0000       3.821085       103.9770 
  64   0.0000       4.038789       109.9010 
  65   0.0000       4.038789       109.9010 
  66   0.0000       4.191646       114.0605 
  67   0.0000       5.064160       137.8028 
  68   0.0000       9.944061       270.5917 
  69   0.0000       9.945709       270.6365 
  70   0.0000       9.955039       270.8904 
  71   0.0000       9.963333       271.1161 
  72   0.0000       9.963333       271.1161 
  73   0.0000       9.980052       271.5710 
  74   0.0000       9.985618       271.7225 
  75   0.0000       9.985618       271.7225 
  76   0.0000       9.999289       272.0945 
  77   0.0000      10.390189       282.7314 
  78   0.0000      10.390189       282.7314 
  79   0.0000      10.406784       283.1830 
  80   0.0000      10.441530       284.1285 
  81   0.0000      10.508614       285.9539 
  82   0.0000      10.508614       285.9539 
  83   0.0000      10.795324       293.7557 

                 SPIN DOWN ORBITALS
  NO   OCC          E(Eh)            E(eV) 
   0   1.0000    -276.615816     -7527.0990 
   1   1.0000     -32.363530      -880.6564 
   2   1.0000     -28.027866      -762.6770 
   3   1.0000     -28.024216      -762.5777 
   4   1.0000     -28.024216      -762.5777 
   5   1.0000      -3.486664       -94.8770 
   6   1.0000      -2.193263       -59.6817 
   7   1.0000      -2.189151       -59.5698 
   8   1.0000      -2.189151       -59.5698 
   9   1.0000      -0.258050        -7.0219 
  10   1.0000      -0.141113        -3.8399 
  11   1.0000      -0.141113        -3.8399 
  12   1.0000      -0.138590        -3.7712 
  13   0.0000      -0.104610        -2.8466 
  14   0.0000      -0.071995        -1.9591 
  15   0.0000      -0.063403        -1.7253 
  16   0.0000      -0.009497        -0.2584 
  17   0.0000      -0.009497        -0.2584 
  18   0.0000       0.069894         1.9019 
  19   0.0000       0.079357         2.1594 
  20   0.0000       0.130065         3.5393 
  21   0.0000       0.130065         3.5393 
  22   0.0000       0.155166         4.2223 
  23   0.0000       0.177856         4.8397 
  24   0.0000       0.177856         4.8397 
  25   0.0000       0.209104         5.6900 
  26   0.0000       0.220577         6.0022 
  27   0.0000       0.301314         8.1992 
  28   0.0000       0.304828         8.2948 
  29   0.0000       0.304828         8.2948 
  30   0.0000       0.385987        10.5032 
  31   0.0000       0.460667        12.5354 
  32   0.0000       0.617788        16.8109 
  33   0.0000       0.617788        16.8109 
  34   0.0000       0.637159        17.3380 
  35   0.0000       0.817428        22.2433 
  36   0.0000       0.817428        22.2433 
  37   0.0000       0.980241        26.6737 
  38   0.0000       1.015374        27.6297 
  39   0.0000       1.085263        29.5315 
  40   0.0000       1.129461        30.7342 
  41   0.0000       1.129461        30.7342 
  42   0.0000       1.284442        34.9514 
  43   0.0000       2.447789        66.6077 
  44   0.0000       2.587701        70.4149 
  45   0.0000       2.587701        70.4149 
  46   0.0000       2.652872        72.1883 
  47   0.0000       2.660915        72.4072 
  48   0.0000       2.680745        72.9468 
  49   0.0000       2.681966        72.9800 
  50   0.0000       2.681966        72.9800 
  51   0.0000       2.737113        74.4806 
  52   0.0000       2.737113        74.4806 
  53   0.0000       2.955298        80.4177 
  54   0.0000       3.143720        85.5450 
  55   0.0000       3.322333        90.4053 
  56   0.0000       3.324737        90.4707 
  57   0.0000       3.717015       101.1451 
  58   0.0000       3.742234       101.8314 
  59   0.0000       3.742234       101.8314 
  60   0.0000       3.786877       103.0462 
  61   0.0000       3.832869       104.2977 
  62   0.0000       3.846404       104.6660 
  63   0.0000       3.846404       104.6660 
  64   0.0000       4.042517       110.0025 
  65   0.0000       4.042517       110.0025 
  66   0.0000       4.208369       114.5156 
  67   0.0000       5.097250       138.7032 
  68   0.0000      10.024866       272.7905 
  69   0.0000      10.027670       272.8668 
  70   0.0000      10.027670       272.8668 
  71   0.0000      10.036440       273.1054 
  72   0.0000      10.037832       273.1433 
  73   0.0000      10.040549       273.2172 
  74   0.0000      10.057027       273.6656 
  75   0.0000      10.057027       273.6656 
  76   0.0000      10.091296       274.5981 
  77   0.0000      10.466483       284.8075 
  78   0.0000      10.501946       285.7725 
  79   0.0000      10.505629       285.8727 
  80   0.0000      10.505629       285.8727 
  81   0.0000      10.610170       288.7174 
  82   0.0000      10.610170       288.7174 
  83   0.0000      10.918960       297.1200 

                    ********************************
                    * MULLIKEN POPULATION ANALYSIS *
                    ********************************

--------------------------------------------
MULLIKEN ATOMIC CHARGES AND SPIN POPULATIONS
--------------------------------------------
   0 Co:   -0.004395    2.157082
   1 H :    0.004395   -0.157082
Sum of atomic charges         :   -0.0000000
Sum of atomic spin populations:    2.0000000

-----------------------------------------------------
MULLIKEN REDUCED ORBITAL CHARGES AND SPIN POPULATIONS
-----------------------------------------------------
CHARGE
  0 Cos       :     6.906128  s :     6.906128
      pz      :     4.090028  p :    12.092996
      px      :     4.001484
      py      :     4.001484
      dz2     :     1.023336  d :     8.004708
      dxz     :     1.990744
      dyz     :     1.990744
      dx2y2   :     1.999917
      dxy     :     0.999966
      f0      :     0.000302  f :     0.000529
      f+1     :     0.000049
      f-1     :     0.000049
      f+2     :     0.000042
      f-2     :     0.000020
      f+3     :     0.000034
      f-3     :     0.000034
      g0      :     0.000011  g :     0.000034
      g+1     :     0.000000
      g-1     :     0.000000
      g+2     :     0.000002
      g-2     :     0.000004
      g+3     :     0.000003
      g-3     :     0.000003
      g+4     :     0.000012
      g-4     :     0.000000
  1 H s       :     0.996018  s :     0.996018
      pz      :    -0.016428  p :    -0.001701
      px      :     0.007364
      py      :     0.007364
      dz2     :     0.000592  d :     0.001287
      dxz     :     0.000323
      dyz     :     0.000323
      dx2y2   :     0.000039
      dxy     :     0.000010

SPIN
  0 Cos       :     0.405018  s :     0.405018
      pz      :    -0.010594  p :    -0.010182
      px      :     0.000206
      py      :     0.000206
      dz2     :     0.758655  d :     1.762308
      dxz     :     0.001836
      dyz     :     0.001836
      dx2y2   :     0.000015
      dxy     :     0.999966
      f0      :    -0.000043  f :    -0.000068
      f+1     :    -0.000007
      f-1     :    -0.000007
      f+2     :     0.000000
      f-2     :     0.000020
      f+3     :    -0.000015
      f-3     :    -0.000015
      g0      :     0.000003  g :     0.000007
      g+1     :     0.000000
      g-1     :     0.000000
      g+2     :    -0.000000
      g-2     :     0.000004
      g+3     :    -0.000000
      g-3     :    -0.000000
      g+4     :     0.000001
      g-4     :     0.000000
  1 H s       :    -0.144424  s :    -0.144424
      pz      :    -0.008857  p :    -0.012786
      px      :    -0.001964
      py      :    -0.001964
      dz2     :     0.000243  d :     0.000128
      dxz     :    -0.000055
      dyz     :    -0.000055
      dx2y2   :    -0.000015
      dxy     :     0.000010


                     *******************************
                     * LOEWDIN POPULATION ANALYSIS *
                     *******************************

-------------------------------------------
LOEWDIN ATOMIC CHARGES AND SPIN POPULATIONS
-------------------------------------------
   0 Co:    0.225261    2.009243
   1 H :   -0.225261   -0.009243

----------------------------------------------------
LOEWDIN REDUCED ORBITAL CHARGES AND SPIN POPULATIONS
----------------------------------------------------
CHARGE
  0 Cos       :     6.677731  s :     6.677731
      pz      :     4.104608  p :    12.108029
      px      :     4.001710
      py      :     4.001710
      dz2     :     1.054779  d :     7.987517
      dxz     :     1.966647
      dyz     :     1.966647
      dx2y2   :     1.999609
      dxy     :     0.999834
      f0      :     0.000998  f :     0.001424
      f+1     :     0.000147
      f-1     :     0.000147
      f+2     :     0.000043
      f-2     :     0.000021
      f+3     :     0.000034
      f-3     :     0.000034
      g0      :     0.000014  g :     0.000038
      g+1     :     0.000000
      g-1     :     0.000000
      g+2     :     0.000002
      g-2     :     0.000004
      g+3     :     0.000003
      g-3     :     0.000003
      g+4     :     0.000012
      g-4     :     0.000000
  1 H s       :     1.068638  s :     1.068638
      pz      :     0.087232  p :     0.141650
      px      :     0.027209
      py      :     0.027209
      dz2     :     0.005987  d :     0.014973
      dxz     :     0.004249
      dyz     :     0.004249
      dx2y2   :     0.000346
      dxy     :     0.000141

SPIN
  0 Cos       :     0.289127  s :     0.289127
      pz      :    -0.030220  p :    -0.029818
      px      :     0.000201
      py      :     0.000201
      dz2     :     0.745267  d :     1.750167
      dxz     :     0.002529
      dyz     :     0.002529
      dx2y2   :     0.000009
      dxy     :     0.999834
      f0      :    -0.000211  f :    -0.000236
      f+1     :    -0.000008
      f-1     :    -0.000008
      f+2     :     0.000000
      f-2     :     0.000021
      f+3     :    -0.000015
      f-3     :    -0.000015
      g0      :    -0.000002  g :     0.000002
      g+1     :    -0.000000
      g-1     :    -0.000000
      g+2     :    -0.000000
      g-2     :     0.000004
      g+3     :    -0.000000
      g-3     :    -0.000000
      g+4     :     0.000001
      g-4     :     0.000000
  1 H s       :    -0.035841  s :    -0.035841
      pz      :     0.030123  p :     0.024854
      px      :    -0.002635
      py      :    -0.002635
      dz2     :     0.001756  d :     0.001744
      dxz     :    -0.000072
      dyz     :    -0.000072
      dx2y2   :    -0.000008
      dxy     :     0.000141


                      *****************************
                      * MAYER POPULATION ANALYSIS *
                      *****************************

  NA   - Mulliken gross atomic population
  ZA   - Total nuclear charge
  QA   - Mulliken gross atomic charge
  VA   - Mayer's total valence
  BVA  - Mayer's bonded valence
  FA   - Mayer's free valence

  ATOM       NA         ZA         QA         VA         BVA        FA
  0 Co    27.0044    27.0000    -0.0044     3.0035     0.9577     2.0457
  1 H      0.9956     1.0000     0.0044     0.9757     0.9577     0.0179

  Mayer bond orders larger than 0.100000
B(  0-Co,  1-H ) :   0.9577 

-------
TIMINGS
-------

Total SCF time: 0 days 0 hours 4 min 12 sec 

Total time                  ....     252.406 sec
Sum of individual times     ....     251.221 sec  ( 99.5%)

Fock matrix formation       ....     241.708 sec  ( 95.8%)
  Split-RI-J                ....       1.655 sec  (  0.7% of F)
  XC integration            ....     237.142 sec  ( 98.1% of F)
    Basis function eval.    ....       0.017 sec  (  0.0% of XC)
    Density eval.           ....       0.039 sec  (  0.0% of XC)
    XC-Functional eval.     ....       0.027 sec  (  0.0% of XC)
    XC-Potential eval.      ....       0.084 sec  (  0.0% of XC)
Diagonalization             ....       4.518 sec  (  1.8%)
Density matrix formation    ....       0.007 sec  (  0.0%)
Population analysis         ....       0.637 sec  (  0.3%)
Initial guess               ....       0.955 sec  (  0.4%)
Orbital Transformation      ....       0.000 sec  (  0.0%)
Orbital Orthonormalization  ....       0.000 sec  (  0.0%)
DIIS solution               ....       0.141 sec  (  0.1%)
Grid generation             ....       3.256 sec  (  1.3%)


-------------------------------------------------------------------------------
                          DFT DISPERSION CORRECTION                            
                                                                               
                              DFTD3 V3.1  Rev 1                                
                          USING Becke-Johnson damping                          
-------------------------------------------------------------------------------
The TPSS functional is recognized
Active option DFTDOPT                   ...         4   

molecular C6(AA) [au] = 329.498670 


            DFT-D V3
 parameters
 s6 scaling factor         :     1.0000 
 a1 scaling factor         :     0.4535 
 s8 scaling factor         :     1.9435 
 a2 scaling factor         :     4.4752 
 ad hoc parameters k1-k3   :    16.0000     1.3333    -4.0000 

 Edisp/kcal,au: -0.318264878361  -0.000507187314 
 E6   /kcal   :  -0.139925115 
 E8   /kcal   :  -0.178339763 
 % E8         :  56.035012183 

-------------------------   ----------------
Dispersion correction           -0.000507187
-------------------------   ----------------


-------------------------   --------------------
FINAL SINGLE POINT ENERGY     -1383.368684470482
-------------------------   --------------------


                            ***************************************
                            *     ORCA property calculations      *
                            ***************************************

                                    ---------------------
                                    Active property flags
                                    ---------------------
   (+) Dipole Moment


------------------------------------------------------------------------------
                       ORCA ELECTRIC PROPERTIES CALCULATION
------------------------------------------------------------------------------

Dipole Moment Calculation                       ... on
Quadrupole Moment Calculation                   ... off
Polarizability Calculation                      ... off
GBWName                                         ... CoH.gbw
Electron density file                           ... CoH.scfp
The origin for moment calculation is the CENTER OF MASS  = ( 0.000000,  0.000000  0.048656)

-------------
DIPOLE MOMENT
-------------
                                X             Y             Z
Electronic contribution:     -0.00000      -0.00000      -2.57999
Nuclear contribution   :      0.00000       0.00000       1.53082
                        -----------------------------------------
Total Dipole Moment    :     -0.00000      -0.00000      -1.04917
                        -----------------------------------------
Magnitude (a.u.)       :      1.04917
Magnitude (Debye)      :      2.66678



--------------------
Rotational spectrum 
--------------------
 
Rotational constants in cm-1:     0.000000     7.256911     7.256911 
Rotational constants in MHz :     0.000000 217556.717096 217556.717096 

 Dipole components along the rotational axes: 
x,y,z [a.u.] :    -1.049171    -0.000000    -0.000000 
x,y,z [Debye]:    -2.666780    -0.000000    -0.000000 

 

Timings for individual modules:

Sum of individual times         ...      259.650 sec (=   4.327 min)
GTO integral calculation        ...        6.585 sec (=   0.110 min)   2.5 %
SCF iterations                  ...      253.064 sec (=   4.218 min)  97.5 %
                             ****ORCA TERMINATED NORMALLY****
TOTAL RUN TIME: 0 days 0 hours 5 minutes 23 seconds 100 msec
