
                                 *****************
                                 * O   R   C   A *
                                 *****************

           --- An Ab Initio, DFT and Semiempirical electronic structure package ---

                  #######################################################
                  #                        -***-                        #
                  #          Department of theory and spectroscopy      #
                  #               Directorship: Frank Neese             #
                  #        Max Planck Institute fuer Kohlenforschung    #
                  #                Kaiser Wilhelm Platz 1               #
                  #                 D-45470 Muelheim/Ruhr               #
                  #                      Germany                        #
                  #                                                     #
                  #                  All rights reserved                #
                  #                        -***-                        #
                  #######################################################


                         Program Version 4.2.0 -  RELEASE  -


 With contributions from (in alphabetic order):
   Daniel Aravena         : Magnetic Suceptibility
   Michael Atanasov       : Ab Initio Ligand Field Theory (pilot matlab implementation)
   Alexander A. Auer      : GIAO ZORA, VPT2
   Ute Becker             : Parallelization
   Giovanni Bistoni       : ED, misc. LED, open-shell LED, HFLED
   Martin Brehm           : Molecular dynamics
   Dmytro Bykov           : SCF Hessian
   Vijay G. Chilkuri      : MRCI spin determinant printing, contributions to CSF-ICE
   Dipayan Datta          : RHF DLPNO-CCSD density
   Achintya Kumar Dutta   : EOM-CC, STEOM-CC
   Dmitry Ganyushin       : Spin-Orbit,Spin-Spin,Magnetic field MRCI
   Miquel Garcia          : C-PCM Hessian, Gaussian charge scheme
   Yang Guo               : DLPNO-NEVPT2, CIM, IAO-localization
   Andreas Hansen         : Spin unrestricted coupled pair/coupled cluster methods
   Benjamin Helmich-Paris : CASSCF linear response (MC-RPA)
   Lee Huntington         : MR-EOM, pCC
   Robert Izsak           : Overlap fitted RIJCOSX, COSX-SCS-MP3, EOM
   Christian Kollmar      : KDIIS, OOCD, Brueckner-CCSD(T), CCSD density
   Simone Kossmann        : Meta GGA functionals, TD-DFT gradient, OOMP2, MP2 Hessian
   Martin Krupicka        : AUTO-CI
   Lucas Lang             : DCDCAS
   Dagmar Lenk            : GEPOL surface, SMD
   Dimitrios Liakos       : Extrapolation schemes; Compound Job, initial MDCI parallelization
   Dimitrios Manganas     : Further ROCIS development; embedding schemes
   Dimitrios Pantazis     : SARC Basis sets
   Taras Petrenko         : DFT Hessian,TD-DFT gradient, ASA, ECA, R-Raman, ABS, FL, XAS/XES, NRVS
   Peter Pinski           : DLPNO-MP2, DLPNO-MP2 Gradient
   Christoph Reimann      : Effective Core Potentials
   Marius Retegan         : Local ZFS, SOC
   Christoph Riplinger    : Optimizer, TS searches, QM/MM, DLPNO-CCSD(T), (RO)-DLPNO pert. Triples
   Tobias Risthaus        : Range-separated hybrids, TD-DFT gradient, RPA, STAB
   Michael Roemelt        : Original ROCIS implementation
   Masaaki Saitow         : Open-shell DLPNO-CCSD energy and density
   Barbara Sandhoefer     : DKH picture change effects
   Avijit Sen             : IP-ROCIS
   Kantharuban Sivalingam : CASSCF convergence, NEVPT2, FIC-MRCI
   Bernardo de Souza      : ESD, SOC TD-DFT
   Georgi Stoychev        : AutoAux, RI-MP2 NMR
   Willem Van den Heuvel  : Paramagnetic NMR
   Boris Wezisla          : Elementary symmetry handling
   Frank Wennmohs         : Technical directorship


 We gratefully acknowledge several colleagues who have allowed us to
 interface, adapt or use parts of their codes:
   Stefan Grimme, W. Hujo, H. Kruse,             : VdW corrections, initial TS optimization,
                  C. Bannwarth                     DFT functionals, gCP, sTDA/sTD-DF
   Ed Valeev, F. Pavosevic, A. Kumar             : LibInt (2-el integral package), F12 methods
   Garnet Chan, S. Sharma, J. Yang, R. Olivares  : DMRG
   Ulf Ekstrom                                   : XCFun DFT Library
   Mihaly Kallay                                 : mrcc  (arbitrary order and MRCC methods)
   Andreas Klamt, Michael Diedenhofen            : otool_cosmo (COSMO solvation model)
   Jiri Pittner, Ondrej Demel                    : Mk-CCSD
   Frank Weinhold                                : gennbo (NPA and NBO analysis)
   Christopher J. Cramer and Donald G. Truhlar   : smd solvation model
   Lars Goerigk                                  : TD-DFT with DH, B97 family of functionals
   V. Asgeirsson, H. Jonsson                     : NEB implementation
   FAccTs GmbH                                   : IRC, NEB, NEB-TS, Multilevel, MM, QM/MM, CI optimization
   S Lehtola, MJT Oliveira, MAL Marques          : LibXC Library


 Your calculation uses the libint2 library for the computation of 2-el integrals
 For citations please refer to: http://libint.valeyev.net

 Your ORCA version has been built with support for libXC version: 4.2.3
 For citations please refer to: https://tddft.org/programs/libxc/

 This ORCA versions uses:
   CBLAS   interface :  Fast vector & matrix operations
   LAPACKE interface :  Fast linear algebra routines
   SCALAPACK package :  Parallel linear algebra routines


Your calculation utilizes the atom-pairwise dispersion correction
with the Becke-Johnson damping scheme (D3BJ)
Cite in your paper:
S.Grimme, S.Ehrlich, L.Goerigk, J Comput Chem, (2011), 32, 1456–1465 
S.Grimme, J.Antony, S.Ehrlich and H.Krieg, J.Chem.Phys., 132, (2010), 154104 
   

----- Orbital basis set information -----
Your calculation utilizes the basis: def2-TZVPPD
   F. Weigend and R. Ahlrichs, Phys. Chem. Chem. Phys. 7, 3297 (2005).
   D. Rappoport and F. Furche, J. Chem. Phys. 133 134105 (2010).

----- AuxJ basis set information -----
Your calculation utilizes the auxiliary basis: def2/J
   F. Weigend, Phys. Chem. Chem. Phys. 8, 1057 (2006).

cite the ECPs for Ag [Def2-ECP] as follows:
Ce-Yb(ecp-28): M. Dolg, H. Stoll, H.Preuss, J. Chem. Phys., 1989, 90, 1730-1734.
Y-Cd(ecp-28), Hf-Hg(ecp-46): D. Andrae,U. Haeussermann, M. Dolg, H. Stoll, H. Preuss, Theor. Chim. Acta, 1990, 77, 123-141.
In-Sb(ecp-28), Tl-Bi(ecp-46): B. Metz, H. Stoll, M. Dolg, J. Chem. Phys., 2000, 113, 2563-2569.
Te-Xe(ecp-28), Po-Rn(ecp-46): K. A. Peterson, D. Figgen, E. Goll, H. Stoll, M. Dolg, J. Chem. Phys., 2003, 119, 11113-11123.
Rb(ecp-28), Cs(ecp-46): T. Leininger, A. Nicklass, W. Kuechle, H. Stoll, M. Dolg, A. Bergner, Chem. Phys. Lett., 1996, 255, 274-280.
Sr(ecp-28), Ba(ecp-46): M. Kaupp, P. V. Schleyer, H. Stoll and H. Preuss, J. Chem. Phys., 1991, 94, 1360-1366.
La(ecp-46): M. Dolg, H. Stoll, A. Savin, H. Preuss, Theor. Chim. Acta, 1989, 75, 173-194.
Lu(ecp-28): X. Cao, M. Dolg, J. Chem. Phys., 2001, 115, 7348-7355.

ECP parameters for Ag [Def2-ECP] have been obtained from:
TURBOMOLE (7.0.2)

================================================================================
                                        WARNINGS
                       Please study these warnings very carefully!
================================================================================


INFO   : the flag for use of LIBINT has been found!

================================================================================
                                       INPUT FILE
================================================================================
NAME = CuAg.in
|  1> #
|  2> # CuAg TPSS-D3BJ/Def2-TZVPPD
|  3> #
|  4> ! tpss d3bj def2-tzvppd def2/j grid4 nofinalgrid
|  5> 
|  6> *xyz 0 1
|  7> Cu         0.00000        0.00000        0.00000
|  8> Ag         0.00000        0.00000        2.25929
|  9> *
| 10> 
| 11> %maxcore 5000
| 12> 
| 13> %pal
| 14> nprocs = 28
| 15> end
| 16> 
| 17> 
| 18>                          ****END OF INPUT****
================================================================================

                       ****************************
                       * Single Point Calculation *
                       ****************************

---------------------------------
CARTESIAN COORDINATES (ANGSTROEM)
---------------------------------
  Cu     0.000000    0.000000    0.000000
  Ag     0.000000    0.000000    2.259290

----------------------------
CARTESIAN COORDINATES (A.U.)
----------------------------
  NO LB      ZA    FRAG     MASS         X           Y           Z
   0 Cu   29.0000    0    63.550    0.000000    0.000000    0.000000
   1 Ag   19.0000*   0   107.870    0.000000    0.000000    4.269439
* core charge reduced due to ECP

--------------------------------
INTERNAL COORDINATES (ANGSTROEM)
--------------------------------
 Cu     0   0   0     0.000000000000     0.00000000     0.00000000
 Ag     1   0   0     2.259290000000     0.00000000     0.00000000

---------------------------
INTERNAL COORDINATES (A.U.)
---------------------------
 Cu     0   0   0     0.000000000000     0.00000000     0.00000000
 Ag     1   0   0     4.269439357107     0.00000000     0.00000000

---------------------
BASIS SET INFORMATION
---------------------
There are 2 groups of distinct atoms

 Group   1 Type Cu  : 17s13p7d2f1g contracted to 6s6p4d2f1g pattern {842111/631111/4111/11/1}
 Group   2 Type Ag  : 7s7p6d2f1g contracted to 6s4p3d2f1g pattern {211111/4111/411/11/1}

Atom   0Cu   basis set group =>   1
Atom   1Ag   basis set group =>   2
---------------------------------
AUXILIARY/J BASIS SET INFORMATION
---------------------------------
There are 2 groups of distinct atoms

 Group   1 Type Cu  : 19s5p5d3f3g contracted to 8s5p4d3f3g pattern {121111111/11111/2111/111/111}
 Group   2 Type Ag  : 11s5p5d3f3g contracted to 8s5p5d2f3g pattern {41111111/11111/11111/21/111}

Atom   0Cu   basis set group =>   1
Atom   1Ag   basis set group =>   2
-------------------------
ECP PARAMETER INFORMATION
-------------------------

 Group 1, Type Ag ECP Def2-ECP (replacing 28 core electrons, lmax=3)

Atom   1Ag   ECP group =>   1



           ************************************************************
           *        Program running with 28 parallel MPI-processes    *
           *              working on a common directory               *
           ************************************************************
------------------------------------------------------------------------------
                           ORCA GTO INTEGRAL CALCULATION
                           -- RI-GTO INTEGRALS CHOSEN --
------------------------------------------------------------------------------

                         BASIS SET STATISTICS AND STARTUP INFO

Gaussian basis set:
 # of primitive gaussian shells          ...   63
 # of primitive gaussian functions       ...  195
 # of contracted shells                  ...   35
 # of contracted basis functions         ...  123
 Highest angular momentum                ...    4
 Maximum contraction depth               ...    8
Auxiliary gaussian basis set:
 # of primitive gaussian shells          ...   62
 # of primitive gaussian functions       ...  206
 # of contracted shells                  ...   46
 # of contracted aux-basis functions     ...  180
 Highest angular momentum                ...    4
 Maximum contraction depth               ...   12
Ratio of auxiliary to basis functions    ...  1.46
Integral package used                  ... LIBINT
 One Electron integrals                  
   ECP integrals                         ... done
 Ordering auxiliary basis shells         ... done
 Integral threshhold             Thresh  ...  1.000e-10
 Primitive cut-off               TCut    ...  1.000e-11
 Pre-screening matrix                    ... done
 Shell pair data                         ... 
 Ordering of the shell pairs             ... done (   0.000 sec) 612 of 630 pairs
 Determination of significant pairs      ... done (   0.000 sec)
 Creation of shell pair data             ... done (   0.000 sec)
 Storage of shell pair data              ... done (   0.082 sec)
 Shell pair data done in (   0.082 sec)
 Computing two index integrals           ... done
 Cholesky decomposition of the V-matrix  ... done


Timings:
 Total evaluation time                   ...   0.846 sec (  0.014 min)
 One electron matrix time                ...   0.342 sec (  0.006 min) = 40.5%
 Schwartz matrix evaluation time         ...   0.143 sec (  0.002 min) = 16.9%
 Two index repulsion integral time       ...   0.043 sec (  0.001 min) =  5.1%
 Cholesky decomposition of V             ...   0.112 sec (  0.002 min) = 13.2%
 Three index repulsion integral time     ...   0.000 sec (  0.000 min) =  0.0%



           ************************************************************
           *        Program running with 28 parallel MPI-processes    *
           *              working on a common directory               *
           ************************************************************
-------------------------------------------------------------------------------
                                 ORCA SCF
-------------------------------------------------------------------------------

------------
SCF SETTINGS
------------
Hamiltonian:
 Density Functional     Method          .... DFT(GTOs)
 Exchange Functional    Exchange        .... TPSS
 Correlation Functional Correlation     .... TPSS
 LDA part of GGA corr.  LDAOpt          .... PW91-LDA
 Gradients option       PostSCFGGA      .... off
   Density functional embedding theory  .... OFF
   NL short-range parameter             ....  5.000000
 RI-approximation to the Coulomb term is turned on
   Number of auxiliary basis functions  .... 180


General Settings:
 Integral files         IntName         .... CuAg
 Hartree-Fock type      HFTyp           .... RHF
 Total Charge           Charge          ....    0
 Multiplicity           Mult            ....    1
 Number of Electrons    NEL             ....   48
 Basis Dimension        Dim             ....  123
 Nuclear Repulsion      ENuc            ....    129.0567575536 Eh

Convergence Acceleration:
 DIIS                   CNVDIIS         .... on
   Start iteration      DIISMaxIt       ....    12
   Startup error        DIISStart       ....  0.200000
   # of expansion vecs  DIISMaxEq       ....     5
   Bias factor          DIISBfac        ....   1.050
   Max. coefficient     DIISMaxC        ....  10.000
 Newton-Raphson         CNVNR           .... off
 SOSCF                  CNVSOSCF        .... off
 Level Shifting         CNVShift        .... on
   Level shift para.    LevelShift      ....    0.2500
   Turn off err/grad.   ShiftErr        ....    0.0010
 Zerner damping         CNVZerner       .... off
 Static damping         CNVDamp         .... on
   Fraction old density DampFac         ....    0.7000
   Max. Damping (<1)    DampMax         ....    0.9800
   Min. Damping (>=0)   DampMin         ....    0.0000
   Turn off err/grad.   DampErr         ....    0.1000
 Fernandez-Rico         CNVRico         .... off

SCF Procedure:
 Maximum # iterations   MaxIter         ....   125
 SCF integral mode      SCFMode         .... Direct
   Integral package                     .... LIBINT
 Reset frequency        DirectResetFreq ....    20
 Integral Threshold     Thresh          ....  1.000e-10 Eh
 Primitive CutOff       TCut            ....  1.000e-11 Eh

Convergence Tolerance:
 Convergence Check Mode ConvCheckMode   .... Total+1el-Energy
 Convergence forced     ConvForced      .... 0
 Energy Change          TolE            ....  1.000e-06 Eh
 1-El. energy change                    ....  1.000e-03 Eh
 DIIS Error             TolErr          ....  1.000e-06


Diagonalization of the overlap matrix:
Smallest eigenvalue                        ... 1.389e-03
Time for diagonalization                   ...    0.003 sec
Threshold for overlap eigenvalues          ... 1.000e-08
Number of eigenvalues below threshold      ... 0
Time for construction of square roots      ...    0.090 sec
Total time needed                          ...    0.093 sec

-------------------
DFT GRID GENERATION
-------------------

General Integration Accuracy     IntAcc      ...  4.670
Radial Grid Type                 RadialGrid  ... Gauss-Chebyshev
Angular Grid (max. acc.)         AngularGrid ... Lebedev-302
Angular grid pruning method      GridPruning ... 3 (G Style)
Weight generation scheme         WeightScheme... Becke
Basis function cutoff            BFCut       ...    1.0000e-10
Integration weight cutoff        WCut        ...    1.0000e-14
Grids for H and He will be reduced by one unit

# of grid points (after initial pruning)     ...  20214 (   0.0 sec)
# of grid points (after weights+screening)   ...  20181 (   0.0 sec)
nearest neighbour list constructed           ...    0.0 sec
Grid point re-assignment to atoms done       ...    0.0 sec
Grid point division into batches done        ...    0.2 sec
Reduced shell lists constructed in    0.2 sec

Total number of grid points                  ...    20181
Total number of batches                      ...      316
Average number of points per batch           ...       63
Average number of grid points per atom       ...    10090
Average number of shells per batch           ...     5.15 (14.73%)
Average number of basis functions per batch  ...    13.62 (11.07%)
Average number of large shells per batch     ...     3.77 (73.13%)
Average number of large basis fcns per batch ...     9.46 (69.49%)
Maximum spatial batch extension              ...  24.44, 24.44, 21.72 au
Average spatial batch extension              ...   0.84,  0.84,  0.61 au

Time for grid setup =    2.890 sec

------------------------------
INITIAL GUESS: MODEL POTENTIAL
------------------------------
Loading Hartree-Fock densities                     ... done
  calling /mnt/storage/software/apps/orca-4.2.0/orca_4_2_0_linux_x86-64_openmpi314/orca CuAg_atom47.inp > CuAg_atom47.out in order to generate an atomic fitting density for atom 1 (Ag with ECP) on-the-fly... 
    atom 1 (Ag), assumed electronic state with S=2: 1s2 2s2 2p6 3s2 3p6 4s2 3d10 4p6 5s2 4d9           ... done
Calculating cut-offs                               ... done
Setting up the integral package                    ... done
Initializing the effective Hamiltonian             ... done
Starting the Coulomb interaction                   ... done (   0.0 sec)
Reading the grid                                   ... done
Mapping shells                                     ... done
Starting the XC term evaluation                    ... done (   0.0 sec)
  promolecular density results
     # of electrons  =     76.000936569
     EX              =   -208.909671623
     EC              =     -3.835187384
     EX+EC           =   -212.744859007
Transforming the Hamiltonian                       ... done (   0.1 sec)
Diagonalizing the Hamiltonian                      ... done (   0.0 sec)
Back transforming the eigenvectors                 ... done (   0.0 sec)
Now organizing SCF variables                       ... done
                      ------------------
                      INITIAL GUESS DONE (  13.5 sec)
                      ------------------
--------------
SCF ITERATIONS
--------------
ITER       Energy         Delta-E        Max-DP      RMS-DP      [F,P]     Damp
               ***  Starting incremental Fock matrix formation  ***
  0  -1787.3213429794   0.000000000000 0.11045069  0.00312991  0.5093173 0.7000
  1  -1787.4027786421  -0.081435662628 0.06511690  0.00172330  0.3270690 0.7000
  2  -1787.4293129312  -0.026534289144 0.02737414  0.00070192  0.2146827 0.7000
                               ***Turning on DIIS***
  3  -1787.4495745973  -0.020261666109 0.02327333  0.00035812  0.1481230 0.7000
  4  -1787.4641988911  -0.014624293748 0.01776342  0.00029375  0.1048089 0.7000
  5  -1787.4743481725  -0.010149281420 0.02423722  0.00062681  0.0731033 0.0000
  6  -1787.4980120585  -0.023663885961 0.00560774  0.00019796  0.0207373 0.0000
  7  -1787.4983183724  -0.000306313927 0.00213984  0.00006671  0.0086113 0.0000
  8  -1787.4983798028  -0.000061430463 0.00110234  0.00002551  0.0011476 0.0000
  9  -1787.4983827538  -0.000002950934 0.00236444  0.00004881  0.0003565 0.0000
 10  -1787.4983840257  -0.000001271906 0.00122153  0.00001746  0.0007462 0.0000
                 **** Energy Check signals convergence ****

               *****************************************************
               *                     SUCCESS                       *
               *           SCF CONVERGED AFTER  11 CYCLES          *
               *****************************************************


----------------
TOTAL SCF ENERGY
----------------

Total Energy       :        -1787.49838456 Eh          -48640.30387 eV

Components:
Nuclear Repulsion  :          129.05675755 Eh            3511.81291 eV
Electronic Energy  :        -1916.55514211 Eh          -52152.11678 eV
One Electron Energy:        -2806.11112698 Eh          -76358.16574 eV
Two Electron Energy:          889.55598487 Eh           24206.04896 eV

Virial components:
Potential Energy   :        -3481.52777156 Eh          -94737.18701 eV
Kinetic Energy     :         1694.02938700 Eh           46096.88314 eV
Virial Ratio       :            2.05517555


DFT components:
N(Alpha)           :       23.999997545327 electrons
N(Beta)            :       23.999997545327 electrons
N(Total)           :       47.999995090653 electrons
E(X)               :      -79.089955448602 Eh       
E(C)               :       -2.185766206581 Eh       
E(XC)              :      -81.275721655183 Eh       
DFET-embed. en.    :        0.000000000000 Eh       

---------------
SCF CONVERGENCE
---------------

  Last Energy change         ...   -5.2995e-07  Tolerance :   1.0000e-06
  Last MAX-Density change    ...    1.2597e-03  Tolerance :   1.0000e-05
  Last RMS-Density change    ...    1.6250e-05  Tolerance :   1.0000e-06
  Last DIIS Error            ...    1.3728e-04  Tolerance :   1.0000e-06

             **** THE GBW FILE WAS UPDATED (CuAg.gbw) ****
             **** DENSITY FILE WAS UPDATED (CuAg.scfp) ****
             **** ENERGY FILE WAS UPDATED (CuAg.en.tmp) ****
             **** THE GBW FILE WAS UPDATED (CuAg.gbw) ****
             **** DENSITY FILE WAS UPDATED (CuAg.scfp) ****
----------------
ORBITAL ENERGIES
----------------

  NO   OCC          E(Eh)            E(eV) 
   0   2.0000    -322.076525     -8764.1478 
   1   2.0000     -38.367016     -1044.0196 
   2   2.0000     -33.585996      -913.9214 
   3   2.0000     -33.585996      -913.9214 
   4   2.0000     -33.585881      -913.9183 
   5   2.0000      -4.126395      -112.2849 
   6   2.0000      -3.585044       -97.5540 
   7   2.0000      -2.641721       -71.8849 
   8   2.0000      -2.636546       -71.7441 
   9   2.0000      -2.636546       -71.7441 
  10   2.0000      -2.211742       -60.1846 
  11   2.0000      -2.204878       -59.9978 
  12   2.0000      -2.204878       -59.9978 
  13   2.0000      -0.293797        -7.9946 
  14   2.0000      -0.276022        -7.5109 
  15   2.0000      -0.276022        -7.5109 
  16   2.0000      -0.261101        -7.1049 
  17   2.0000      -0.261096        -7.1048 
  18   2.0000      -0.195427        -5.3178 
  19   2.0000      -0.185138        -5.0378 
  20   2.0000      -0.185138        -5.0378 
  21   2.0000      -0.185099        -5.0368 
  22   2.0000      -0.185086        -5.0364 
  23   2.0000      -0.180640        -4.9155 
  24   0.0000      -0.101439        -2.7603 
  25   0.0000      -0.034764        -0.9460 
  26   0.0000      -0.034764        -0.9460 
  27   0.0000      -0.010665        -0.2902 
  28   0.0000       0.035485         0.9656 
  29   0.0000       0.035485         0.9656 
  30   0.0000       0.058842         1.6012 
  31   0.0000       0.092199         2.5089 
  32   0.0000       0.118822         3.2333 
  33   0.0000       0.118822         3.2333 
  34   0.0000       0.139778         3.8036 
  35   0.0000       0.159695         4.3455 
  36   0.0000       0.177047         4.8177 
  37   0.0000       0.177047         4.8177 
  38   0.0000       0.195632         5.3234 
  39   0.0000       0.195632         5.3234 
  40   0.0000       0.253308         6.8929 
  41   0.0000       0.253308         6.8929 
  42   0.0000       0.260652         7.0927 
  43   0.0000       0.430768        11.7218 
  44   0.0000       0.432860        11.7787 
  45   0.0000       0.432863        11.7788 
  46   0.0000       0.550580        14.9821 
  47   0.0000       0.550580        14.9821 
  48   0.0000       0.615426        16.7466 
  49   0.0000       0.648848        17.6560 
  50   0.0000       0.648848        17.6560 
  51   0.0000       0.721775        19.6405 
  52   0.0000       0.864969        23.5370 
  53   0.0000       0.864973        23.5371 
  54   0.0000       0.874719        23.8023 
  55   0.0000       0.874719        23.8023 
  56   0.0000       0.984910        26.8008 
  57   0.0000       1.556600        42.3572 
  58   0.0000       1.556607        42.3574 
  59   0.0000       1.558172        42.4000 
  60   0.0000       1.558172        42.4000 
  61   0.0000       1.591361        43.3031 
  62   0.0000       1.591361        43.3031 
  63   0.0000       1.634741        44.4836 
  64   0.0000       1.634741        44.4836 
  65   0.0000       1.642545        44.6959 
  66   0.0000       1.743884        47.4535 
  67   0.0000       2.014458        54.8162 
  68   0.0000       2.014463        54.8163 
  69   0.0000       2.098841        57.1124 
  70   0.0000       2.098841        57.1124 
  71   0.0000       2.100493        57.1573 
  72   0.0000       2.222348        60.4732 
  73   0.0000       2.954947        80.4082 
  74   0.0000       2.954947        80.4082 
  75   0.0000       3.058015        83.2128 
  76   0.0000       3.119750        84.8927 
  77   0.0000       3.383372        92.0662 
  78   0.0000       3.383388        92.0667 
  79   0.0000       3.387177        92.1698 
  80   0.0000       3.387177        92.1698 
  81   0.0000       3.398218        92.4702 
  82   0.0000       3.398218        92.4702 
  83   0.0000       3.506244        95.4098 
  84   0.0000       3.596891        97.8764 
  85   0.0000       3.596991        97.8791 
  86   0.0000       3.637149        98.9719 
  87   0.0000       3.637149        98.9719 
  88   0.0000       3.875682       105.4627 
  89   0.0000       4.743221       129.0696 
  90   0.0000       4.743221       129.0696 
  91   0.0000       4.743713       129.0830 
  92   0.0000       4.743791       129.0851 
  93   0.0000       4.804316       130.7321 
  94   0.0000       4.804316       130.7321 
  95   0.0000       5.017585       136.5354 
  96   0.0000       5.515679       150.0892 
  97   0.0000       5.515792       150.0923 
  98   0.0000       5.518678       150.1708 
  99   0.0000       5.518678       150.1708 
 100   0.0000       5.522196       150.2666 
 101   0.0000       5.522196       150.2666 
 102   0.0000       5.522272       150.2687 
 103   0.0000       5.522796       150.2829 
 104   0.0000       5.542433       150.8173 
 105   0.0000      12.915521       351.4492 
 106   0.0000      12.915521       351.4492 
 107   0.0000      12.916599       351.4785 
 108   0.0000      12.917148       351.4935 
 109   0.0000      12.918200       351.5221 
 110   0.0000      12.920013       351.5714 
 111   0.0000      12.920013       351.5714 
 112   0.0000      12.922563       351.6408 
 113   0.0000      12.922972       351.6519 
 114   0.0000      13.006158       353.9156 
 115   0.0000      13.006594       353.9274 
 116   0.0000      13.007551       353.9535 
 117   0.0000      13.007551       353.9535 
 118   0.0000      13.014668       354.1471 
 119   0.0000      13.014668       354.1471 
 120   0.0000      13.057949       355.3249 
 121   0.0000      33.410926       909.1575 
 122   0.0000     110.744956      3013.5234 

                    ********************************
                    * MULLIKEN POPULATION ANALYSIS *
                    ********************************

-----------------------
MULLIKEN ATOMIC CHARGES
-----------------------
   0 Cu:    0.087684
   1 Ag:   -0.087684
Sum of atomic charges:   -0.0000000

--------------------------------
MULLIKEN REDUCED ORBITAL CHARGES
--------------------------------
  0 Cus       :     6.921239  s :     6.921239
      pz      :     4.010440  p :    12.043942
      px      :     4.016751
      py      :     4.016751
      dz2     :     1.968531  d :     9.946663
      dxz     :     1.987903
      dyz     :     1.987903
      dx2y2   :     2.001163
      dxy     :     2.001163
      f0      :     0.000197  f :     0.000470
      f+1     :     0.000119
      f-1     :     0.000119
      f+2     :     0.000018
      f-2     :     0.000018
      f+3     :     0.000000
      f-3     :     0.000000
      g0      :     0.000001  g :     0.000002
      g+1     :     0.000000
      g-1     :     0.000000
      g+2     :     0.000000
      g-2     :     0.000000
      g+3     :     0.000000
      g-3     :     0.000000
      g+4     :     0.000000
      g-4     :     0.000000
  1 Ags       :     3.112139  s :     3.112139
      pz      :     2.034465  p :     6.062791
      px      :     2.014163
      py      :     2.014163
      dz2     :     1.952080  d :     9.910485
      dxz     :     1.980489
      dyz     :     1.980489
      dx2y2   :     1.998714
      dxy     :     1.998714
      f0      :     0.000891  f :     0.002231
      f+1     :     0.000567
      f-1     :     0.000567
      f+2     :     0.000103
      f-2     :     0.000103
      f+3     :     0.000000
      f-3     :     0.000000
      g0      :     0.000017  g :     0.000038
      g+1     :     0.000009
      g-1     :     0.000009
      g+2     :     0.000002
      g-2     :     0.000002
      g+3     :     0.000000
      g-3     :     0.000000
      g+4     :     0.000000
      g-4     :     0.000000


                     *******************************
                     * LOEWDIN POPULATION ANALYSIS *
                     *******************************

----------------------
LOEWDIN ATOMIC CHARGES
----------------------
   0 Cu:   -0.120736
   1 Ag:    0.120736

-------------------------------
LOEWDIN REDUCED ORBITAL CHARGES
-------------------------------
  0 Cus       :     6.926997  s :     6.926997
      pz      :     4.124437  p :    12.168334
      px      :     4.021949
      py      :     4.021949
      dz2     :     2.035293  d :    10.024732
      dxz     :     1.991919
      dyz     :     1.991919
      dx2y2   :     2.002800
      dxy     :     2.002800
      f0      :     0.000278  f :     0.000671
      f+1     :     0.000174
      f-1     :     0.000174
      f+2     :     0.000022
      f-2     :     0.000022
      f+3     :     0.000000
      f-3     :     0.000000
      g0      :     0.000001  g :     0.000002
      g+1     :     0.000001
      g-1     :     0.000001
      g+2     :     0.000000
      g-2     :     0.000000
      g+3     :     0.000000
      g-3     :     0.000000
      g+4     :     0.000000
      g-4     :     0.000000
  1 Ags       :     2.844830  s :     2.844830
      pz      :     2.087413  p :     6.112738
      px      :     2.012662
      py      :     2.012662
      dz2     :     1.979083  d :     9.917621
      dxz     :     1.972227
      dyz     :     1.972227
      dx2y2   :     1.997043
      dxy     :     1.997042
      f0      :     0.001641  f :     0.004008
      f+1     :     0.001051
      f-1     :     0.001051
      f+2     :     0.000132
      f-2     :     0.000133
      f+3     :     0.000000
      f-3     :     0.000000
      g0      :     0.000026  g :     0.000067
      g+1     :     0.000018
      g-1     :     0.000018
      g+2     :     0.000003
      g-2     :     0.000003
      g+3     :     0.000000
      g-3     :     0.000000
      g+4     :     0.000000
      g-4     :     0.000000


                      *****************************
                      * MAYER POPULATION ANALYSIS *
                      *****************************

  NA   - Mulliken gross atomic population
  ZA   - Total nuclear charge
  QA   - Mulliken gross atomic charge
  VA   - Mayer's total valence
  BVA  - Mayer's bonded valence
  FA   - Mayer's free valence

  ATOM       NA         ZA         QA         VA         BVA        FA
  0 Cu    28.9123    29.0000     0.0877     1.1317     1.1317     0.0000
  1 Ag    19.0877    19.0000    -0.0877     1.1317     1.1317    -0.0000

  Mayer bond orders larger than 0.100000
B(  0-Cu,  1-Ag) :   1.1317 

-------
TIMINGS
-------

Total SCF time: 0 days 0 hours 3 min 46 sec 

Total time                  ....     226.944 sec
Sum of individual times     ....     225.929 sec  ( 99.6%)

Fock matrix formation       ....     209.948 sec  ( 92.5%)
  Split-RI-J                ....       1.205 sec  (  0.6% of F)
  XC integration            ....     207.627 sec  ( 98.9% of F)
    Basis function eval.    ....       0.021 sec  (  0.0% of XC)
    Density eval.           ....       0.030 sec  (  0.0% of XC)
    XC-Functional eval.     ....       0.023 sec  (  0.0% of XC)
    XC-Potential eval.      ....       0.061 sec  (  0.0% of XC)
Diagonalization             ....       2.097 sec  (  0.9%)
Density matrix formation    ....       0.006 sec  (  0.0%)
Population analysis         ....       0.323 sec  (  0.1%)
Initial guess               ....      10.576 sec  (  4.7%)
Orbital Transformation      ....       0.000 sec  (  0.0%)
Orbital Orthonormalization  ....       0.000 sec  (  0.0%)
DIIS solution               ....       0.089 sec  (  0.0%)
Grid generation             ....       2.890 sec  (  1.3%)


-------------------------------------------------------------------------------
                          DFT DISPERSION CORRECTION                            
                                                                               
                              DFTD3 V3.1  Rev 1                                
                          USING Becke-Johnson damping                          
-------------------------------------------------------------------------------
The TPSS functional is recognized
Active option DFTDOPT                   ...         4   

molecular C6(AA) [au] = 885.761287 


            DFT-D V3
 parameters
 s6 scaling factor         :     1.0000 
 a1 scaling factor         :     0.4535 
 s8 scaling factor         :     1.9435 
 a2 scaling factor         :     4.4752 
 ad hoc parameters k1-k3   :    16.0000     1.3333    -4.0000 

 Edisp/kcal,au: -1.033107669815  -0.001646361692 
 E6   /kcal   :  -0.319558177 
 E8   /kcal   :  -0.713549493 
 % E8         :  69.068260104 

-------------------------   ----------------
Dispersion correction           -0.001646362
-------------------------   ----------------


-------------------------   --------------------
FINAL SINGLE POINT ENERGY     -1787.500030917327
-------------------------   --------------------


                            ***************************************
                            *     ORCA property calculations      *
                            ***************************************

                                    ---------------------
                                    Active property flags
                                    ---------------------
   (+) Dipole Moment


------------------------------------------------------------------------------
                       ORCA ELECTRIC PROPERTIES CALCULATION
------------------------------------------------------------------------------

Dipole Moment Calculation                       ... on
Quadrupole Moment Calculation                   ... off
Polarizability Calculation                      ... off
GBWName                                         ... CuAg.gbw
Electron density file                           ... CuAg.scfp
The origin for moment calculation is the CENTER OF MASS  = ( 0.000000,  0.000000  2.686643)

-------------
DIPOLE MOMENT
-------------
                                X             Y             Z
Electronic contribution:      0.00000      -0.00000      47.86604
Nuclear contribution   :      0.00000       0.00000     -47.83954
                        -----------------------------------------
Total Dipole Moment    :      0.00000      -0.00000       0.02650
                        -----------------------------------------
Magnitude (a.u.)       :      0.02650
Magnitude (Debye)      :      0.06735



--------------------
Rotational spectrum 
--------------------
 
Rotational constants in cm-1:     0.000000     0.082584     0.082584 
Rotational constants in MHz :     0.000000  2475.819054  2475.819054 

 Dipole components along the rotational axes: 
x,y,z [a.u.] :     0.026497    -0.000000     0.000000 
x,y,z [Debye]:     0.067349    -0.000000     0.000000 

 

Timings for individual modules:

Sum of individual times         ...      233.744 sec (=   3.896 min)
GTO integral calculation        ...        6.066 sec (=   0.101 min)   2.6 %
SCF iterations                  ...      227.678 sec (=   3.795 min)  97.4 %
                             ****ORCA TERMINATED NORMALLY****
TOTAL RUN TIME: 0 days 0 hours 5 minutes 20 seconds 918 msec
