
                                 *****************
                                 * O   R   C   A *
                                 *****************

           --- An Ab Initio, DFT and Semiempirical electronic structure package ---

                  #######################################################
                  #                        -***-                        #
                  #          Department of theory and spectroscopy      #
                  #               Directorship: Frank Neese             #
                  #        Max Planck Institute fuer Kohlenforschung    #
                  #                Kaiser Wilhelm Platz 1               #
                  #                 D-45470 Muelheim/Ruhr               #
                  #                      Germany                        #
                  #                                                     #
                  #                  All rights reserved                #
                  #                        -***-                        #
                  #######################################################


                         Program Version 4.2.0 -  RELEASE  -


 With contributions from (in alphabetic order):
   Daniel Aravena         : Magnetic Suceptibility
   Michael Atanasov       : Ab Initio Ligand Field Theory (pilot matlab implementation)
   Alexander A. Auer      : GIAO ZORA, VPT2
   Ute Becker             : Parallelization
   Giovanni Bistoni       : ED, misc. LED, open-shell LED, HFLED
   Martin Brehm           : Molecular dynamics
   Dmytro Bykov           : SCF Hessian
   Vijay G. Chilkuri      : MRCI spin determinant printing, contributions to CSF-ICE
   Dipayan Datta          : RHF DLPNO-CCSD density
   Achintya Kumar Dutta   : EOM-CC, STEOM-CC
   Dmitry Ganyushin       : Spin-Orbit,Spin-Spin,Magnetic field MRCI
   Miquel Garcia          : C-PCM Hessian, Gaussian charge scheme
   Yang Guo               : DLPNO-NEVPT2, CIM, IAO-localization
   Andreas Hansen         : Spin unrestricted coupled pair/coupled cluster methods
   Benjamin Helmich-Paris : CASSCF linear response (MC-RPA)
   Lee Huntington         : MR-EOM, pCC
   Robert Izsak           : Overlap fitted RIJCOSX, COSX-SCS-MP3, EOM
   Christian Kollmar      : KDIIS, OOCD, Brueckner-CCSD(T), CCSD density
   Simone Kossmann        : Meta GGA functionals, TD-DFT gradient, OOMP2, MP2 Hessian
   Martin Krupicka        : AUTO-CI
   Lucas Lang             : DCDCAS
   Dagmar Lenk            : GEPOL surface, SMD
   Dimitrios Liakos       : Extrapolation schemes; Compound Job, initial MDCI parallelization
   Dimitrios Manganas     : Further ROCIS development; embedding schemes
   Dimitrios Pantazis     : SARC Basis sets
   Taras Petrenko         : DFT Hessian,TD-DFT gradient, ASA, ECA, R-Raman, ABS, FL, XAS/XES, NRVS
   Peter Pinski           : DLPNO-MP2, DLPNO-MP2 Gradient
   Christoph Reimann      : Effective Core Potentials
   Marius Retegan         : Local ZFS, SOC
   Christoph Riplinger    : Optimizer, TS searches, QM/MM, DLPNO-CCSD(T), (RO)-DLPNO pert. Triples
   Tobias Risthaus        : Range-separated hybrids, TD-DFT gradient, RPA, STAB
   Michael Roemelt        : Original ROCIS implementation
   Masaaki Saitow         : Open-shell DLPNO-CCSD energy and density
   Barbara Sandhoefer     : DKH picture change effects
   Avijit Sen             : IP-ROCIS
   Kantharuban Sivalingam : CASSCF convergence, NEVPT2, FIC-MRCI
   Bernardo de Souza      : ESD, SOC TD-DFT
   Georgi Stoychev        : AutoAux, RI-MP2 NMR
   Willem Van den Heuvel  : Paramagnetic NMR
   Boris Wezisla          : Elementary symmetry handling
   Frank Wennmohs         : Technical directorship


 We gratefully acknowledge several colleagues who have allowed us to
 interface, adapt or use parts of their codes:
   Stefan Grimme, W. Hujo, H. Kruse,             : VdW corrections, initial TS optimization,
                  C. Bannwarth                     DFT functionals, gCP, sTDA/sTD-DF
   Ed Valeev, F. Pavosevic, A. Kumar             : LibInt (2-el integral package), F12 methods
   Garnet Chan, S. Sharma, J. Yang, R. Olivares  : DMRG
   Ulf Ekstrom                                   : XCFun DFT Library
   Mihaly Kallay                                 : mrcc  (arbitrary order and MRCC methods)
   Andreas Klamt, Michael Diedenhofen            : otool_cosmo (COSMO solvation model)
   Jiri Pittner, Ondrej Demel                    : Mk-CCSD
   Frank Weinhold                                : gennbo (NPA and NBO analysis)
   Christopher J. Cramer and Donald G. Truhlar   : smd solvation model
   Lars Goerigk                                  : TD-DFT with DH, B97 family of functionals
   V. Asgeirsson, H. Jonsson                     : NEB implementation
   FAccTs GmbH                                   : IRC, NEB, NEB-TS, Multilevel, MM, QM/MM, CI optimization
   S Lehtola, MJT Oliveira, MAL Marques          : LibXC Library


 Your calculation uses the libint2 library for the computation of 2-el integrals
 For citations please refer to: http://libint.valeyev.net

 Your ORCA version has been built with support for libXC version: 4.2.3
 For citations please refer to: https://tddft.org/programs/libxc/

 This ORCA versions uses:
   CBLAS   interface :  Fast vector & matrix operations
   LAPACKE interface :  Fast linear algebra routines
   SCALAPACK package :  Parallel linear algebra routines


Your calculation utilizes the atom-pairwise dispersion correction
with the Becke-Johnson damping scheme (D3BJ)
Cite in your paper:
S.Grimme, S.Ehrlich, L.Goerigk, J Comput Chem, (2011), 32, 1456–1465 
S.Grimme, J.Antony, S.Ehrlich and H.Krieg, J.Chem.Phys., 132, (2010), 154104 
   

----- Orbital basis set information -----
Your calculation utilizes the basis: def2-TZVPPD
   F. Weigend and R. Ahlrichs, Phys. Chem. Chem. Phys. 7, 3297 (2005).
   D. Rappoport and F. Furche, J. Chem. Phys. 133 134105 (2010).

----- AuxJ basis set information -----
Your calculation utilizes the auxiliary basis: def2/J
   F. Weigend, Phys. Chem. Chem. Phys. 8, 1057 (2006).

================================================================================
                                        WARNINGS
                       Please study these warnings very carefully!
================================================================================


WARNING: your system is open-shell and RHF/RKS was chosen
  ===> : WILL SWITCH to UHF/UKS


INFO   : the flag for use of LIBINT has been found!

================================================================================
                                       INPUT FILE
================================================================================
NAME = FeH.in
|  1> #
|  2> # FeH TPSS-D3BJ/Def2-TZVPPD
|  3> #
|  4> ! tpss d3bj def2-tzvppd def2/j grid4 nofinalgrid
|  5> 
|  6> *xyz 0 4
|  7> Fe         0.00000        0.00000        0.00000
|  8> H          0.00000        0.00000        1.61000
|  9> *
| 10> 
| 11> %maxcore 5000
| 12> 
| 13> %pal
| 14> nprocs = 28
| 15> end
| 16> 
| 17> 
| 18>                          ****END OF INPUT****
================================================================================

                       ****************************
                       * Single Point Calculation *
                       ****************************

---------------------------------
CARTESIAN COORDINATES (ANGSTROEM)
---------------------------------
  Fe     0.000000    0.000000    0.000000
  H      0.000000    0.000000    1.610000

----------------------------
CARTESIAN COORDINATES (A.U.)
----------------------------
  NO LB      ZA    FRAG     MASS         X           Y           Z
   0 Fe   26.0000    0    55.850    0.000000    0.000000    0.000000
   1 H     1.0000    0     1.008    0.000000    0.000000    3.042459

--------------------------------
INTERNAL COORDINATES (ANGSTROEM)
--------------------------------
 Fe     0   0   0     0.000000000000     0.00000000     0.00000000
 H      1   0   0     1.610000000000     0.00000000     0.00000000

---------------------------
INTERNAL COORDINATES (A.U.)
---------------------------
 Fe     0   0   0     0.000000000000     0.00000000     0.00000000
 H      1   0   0     3.042459075613     0.00000000     0.00000000

---------------------
BASIS SET INFORMATION
---------------------
There are 2 groups of distinct atoms

 Group   1 Type Fe  : 17s13p7d2f1g contracted to 6s6p4d2f1g pattern {842111/631111/4111/11/1}
 Group   2 Type H   : 5s3p1d contracted to 3s3p1d pattern {311/111/1}

Atom   0Fe   basis set group =>   1
Atom   1H    basis set group =>   2
---------------------------------
AUXILIARY/J BASIS SET INFORMATION
---------------------------------
There are 2 groups of distinct atoms

 Group   1 Type Fe  : 19s5p5d3f3g contracted to 8s5p5d2f3g pattern {121111111/11111/11111/21/111}
 Group   2 Type H   : 5s2p1d contracted to 3s1p1d pattern {311/2/1}

Atom   0Fe   basis set group =>   1
Atom   1H    basis set group =>   2


           ************************************************************
           *        Program running with 28 parallel MPI-processes    *
           *              working on a common directory               *
           ************************************************************
------------------------------------------------------------------------------
                           ORCA GTO INTEGRAL CALCULATION
                           -- RI-GTO INTEGRALS CHOSEN --
------------------------------------------------------------------------------

                         BASIS SET STATISTICS AND STARTUP INFO

Gaussian basis set:
 # of primitive gaussian shells          ...   49
 # of primitive gaussian functions       ...  133
 # of contracted shells                  ...   26
 # of contracted basis functions         ...   84
 Highest angular momentum                ...    4
 Maximum contraction depth               ...    8
Auxiliary gaussian basis set:
 # of primitive gaussian shells          ...   43
 # of primitive gaussian functions       ...  123
 # of contracted shells                  ...   28
 # of contracted aux-basis functions     ...  100
 Highest angular momentum                ...    4
 Maximum contraction depth               ...   12
Ratio of auxiliary to basis functions    ...  1.19
Integral package used                  ... LIBINT
 One Electron integrals                  ... done
 Ordering auxiliary basis shells         ... done
 Integral threshhold             Thresh  ...  1.000e-10
 Primitive cut-off               TCut    ...  1.000e-11
 Pre-screening matrix                    ... done
 Shell pair data                         ... 
 Ordering of the shell pairs             ... done (   0.000 sec) 351 of 351 pairs
 Determination of significant pairs      ... done (   0.000 sec)
 Creation of shell pair data             ... done (   0.000 sec)
 Storage of shell pair data              ... done (   0.133 sec)
 Shell pair data done in (   0.133 sec)
 Computing two index integrals           ... done
 Cholesky decomposition of the V-matrix  ... done


Timings:
 Total evaluation time                   ...   0.954 sec (  0.016 min)
 One electron matrix time                ...   0.345 sec (  0.006 min) = 36.2%
 Schwartz matrix evaluation time         ...   0.127 sec (  0.002 min) = 13.4%
 Two index repulsion integral time       ...   0.137 sec (  0.002 min) = 14.4%
 Cholesky decomposition of V             ...   0.127 sec (  0.002 min) = 13.3%
 Three index repulsion integral time     ...   0.000 sec (  0.000 min) =  0.0%



           ************************************************************
           *        Program running with 28 parallel MPI-processes    *
           *              working on a common directory               *
           ************************************************************
-------------------------------------------------------------------------------
                                 ORCA SCF
-------------------------------------------------------------------------------

------------
SCF SETTINGS
------------
Hamiltonian:
 Density Functional     Method          .... DFT(GTOs)
 Exchange Functional    Exchange        .... TPSS
 Correlation Functional Correlation     .... TPSS
 LDA part of GGA corr.  LDAOpt          .... PW91-LDA
 Gradients option       PostSCFGGA      .... off
   Density functional embedding theory  .... OFF
   NL short-range parameter             ....  5.000000
 RI-approximation to the Coulomb term is turned on
   Number of auxiliary basis functions  .... 100


General Settings:
 Integral files         IntName         .... FeH
 Hartree-Fock type      HFTyp           .... UHF
 Total Charge           Charge          ....    0
 Multiplicity           Mult            ....    4
 Number of Electrons    NEL             ....   27
 Basis Dimension        Dim             ....   84
 Nuclear Repulsion      ENuc            ....      8.5457188918 Eh

Convergence Acceleration:
 DIIS                   CNVDIIS         .... on
   Start iteration      DIISMaxIt       ....    12
   Startup error        DIISStart       ....  0.200000
   # of expansion vecs  DIISMaxEq       ....     5
   Bias factor          DIISBfac        ....   1.050
   Max. coefficient     DIISMaxC        ....  10.000
 Newton-Raphson         CNVNR           .... off
 SOSCF                  CNVSOSCF        .... off
 Level Shifting         CNVShift        .... on
   Level shift para.    LevelShift      ....    0.2500
   Turn off err/grad.   ShiftErr        ....    0.0010
 Zerner damping         CNVZerner       .... off
 Static damping         CNVDamp         .... on
   Fraction old density DampFac         ....    0.7000
   Max. Damping (<1)    DampMax         ....    0.9800
   Min. Damping (>=0)   DampMin         ....    0.0000
   Turn off err/grad.   DampErr         ....    0.1000
 Fernandez-Rico         CNVRico         .... off

SCF Procedure:
 Maximum # iterations   MaxIter         ....   125
 SCF integral mode      SCFMode         .... Direct
   Integral package                     .... LIBINT
 Reset frequency        DirectResetFreq ....    20
 Integral Threshold     Thresh          ....  1.000e-10 Eh
 Primitive CutOff       TCut            ....  1.000e-11 Eh

Convergence Tolerance:
 Convergence Check Mode ConvCheckMode   .... Total+1el-Energy
 Convergence forced     ConvForced      .... 0
 Energy Change          TolE            ....  1.000e-06 Eh
 1-El. energy change                    ....  1.000e-03 Eh
 DIIS Error             TolErr          ....  1.000e-06


Diagonalization of the overlap matrix:
Smallest eigenvalue                        ... 3.098e-03
Time for diagonalization                   ...    0.002 sec
Threshold for overlap eigenvalues          ... 1.000e-08
Number of eigenvalues below threshold      ... 0
Time for construction of square roots      ...    0.185 sec
Total time needed                          ...    0.187 sec

-------------------
DFT GRID GENERATION
-------------------

General Integration Accuracy     IntAcc      ...  4.670
Radial Grid Type                 RadialGrid  ... Gauss-Chebyshev
Angular Grid (max. acc.)         AngularGrid ... Lebedev-302
Angular grid pruning method      GridPruning ... 3 (G Style)
Weight generation scheme         WeightScheme... Becke
Basis function cutoff            BFCut       ...    1.0000e-10
Integration weight cutoff        WCut        ...    1.0000e-14
Grids for H and He will be reduced by one unit

# of grid points (after initial pruning)     ...  13034 (   0.0 sec)
# of grid points (after weights+screening)   ...  12994 (   0.0 sec)
nearest neighbour list constructed           ...    0.0 sec
Grid point re-assignment to atoms done       ...    0.0 sec
Grid point division into batches done        ...    0.1 sec
Reduced shell lists constructed in    0.1 sec

Total number of grid points                  ...    12994
Total number of batches                      ...      204
Average number of points per batch           ...       63
Average number of grid points per atom       ...     6497
Average number of shells per batch           ...     5.22 (20.09%)
Average number of basis functions per batch  ...    13.89 (16.53%)
Average number of large shells per batch     ...     3.33 (63.83%)
Average number of large basis fcns per batch ...     9.78 (70.40%)
Maximum spatial batch extension              ...  31.41, 28.57, 17.22 au
Average spatial batch extension              ...   0.94,  0.82,  0.61 au

Time for grid setup =    2.101 sec

------------------------------
INITIAL GUESS: MODEL POTENTIAL
------------------------------
Loading Hartree-Fock densities                     ... done
Calculating cut-offs                               ... done
Setting up the integral package                    ... done
Initializing the effective Hamiltonian             ... done
Starting the Coulomb interaction                   ... done (   0.0 sec)
Reading the grid                                   ... done
Mapping shells                                     ... done
Starting the XC term evaluation                    ... done (   0.0 sec)
  promolecular density results
     # of electrons  =     26.999505627
     EX              =    -54.360453162
     EC              =     -1.162317155
     EX+EC           =    -55.522770317
Transforming the Hamiltonian                       ... done (   0.0 sec)
Diagonalizing the Hamiltonian                      ... done (   0.0 sec)
Back transforming the eigenvectors                 ... done (   0.0 sec)
Now organizing SCF variables                       ... done
                      ------------------
                      INITIAL GUESS DONE (   2.5 sec)
                      ------------------
--------------
SCF ITERATIONS
--------------
ITER       Energy         Delta-E        Max-DP      RMS-DP      [F,P]     Damp
               ***  Starting incremental Fock matrix formation  ***
  0  -1264.1909895102   0.000000000000 0.03359443  0.00120049  0.2431705 0.7000
  1  -1264.2307592020  -0.039769691829 0.02588707  0.00067383  0.0726805 0.7000
                               ***Turning on DIIS***
  2  -1264.2443993566  -0.013640154579 0.11466419  0.00183421  0.0553225 0.0000
  3  -1264.2744656246  -0.030066268081 0.01506787  0.00049756  0.0609062 0.0000
  4  -1264.2815707078  -0.007105083107 0.01014530  0.00024750  0.0178904 0.0000
  5  -1264.2824969193  -0.000926211572 0.00438005  0.00012163  0.0110805 0.0000
  6  -1264.2827616677  -0.000264748332 0.00347172  0.00007619  0.0026921 0.0000
  7  -1264.2828631482  -0.000101480499 0.00413059  0.00011303  0.0009520 0.0000
  8  -1264.2829431245  -0.000079976363 0.00066999  0.00001664  0.0013163 0.0000
  9  -1264.2829475088  -0.000004384277 0.00151055  0.00003319  0.0002997 0.0000
 10  -1264.2829525672  -0.000005058428 0.00057341  0.00001160  0.0001103 0.0000
                 **** Energy Check signals convergence ****

               *****************************************************
               *                     SUCCESS                       *
               *           SCF CONVERGED AFTER  11 CYCLES          *
               *****************************************************


----------------
TOTAL SCF ENERGY
----------------

Total Energy       :        -1264.28295309 Eh          -34402.88816 eV

Components:
Nuclear Repulsion  :            8.54571889 Eh             232.54083 eV
Electronic Energy  :        -1272.82867198 Eh          -34635.42900 eV
One Electron Energy:        -1764.97240823 Eh          -48027.34089 eV
Two Electron Energy:          492.14373625 Eh           13391.91189 eV

Virial components:
Potential Energy   :        -2526.32849819 Eh          -68744.89336 eV
Kinetic Energy     :         1262.04554510 Eh           34342.00520 eV
Virial Ratio       :            2.00177284


DFT components:
N(Alpha)           :       15.000000215518 electrons
N(Beta)            :       12.000000672063 electrons
N(Total)           :       27.000000887582 electrons
E(X)               :      -54.892126601414 Eh       
E(C)               :       -1.164274657848 Eh       
E(XC)              :      -56.056401259262 Eh       
DFET-embed. en.    :        0.000000000000 Eh       

---------------
SCF CONVERGENCE
---------------

  Last Energy change         ...   -5.2065e-07  Tolerance :   1.0000e-06
  Last MAX-Density change    ...    2.6317e-04  Tolerance :   1.0000e-05
  Last RMS-Density change    ...    5.6494e-06  Tolerance :   1.0000e-06
  Last DIIS Error            ...    2.2293e-05  Tolerance :   1.0000e-06

             **** THE GBW FILE WAS UPDATED (FeH.gbw) ****
             **** DENSITY FILE WAS UPDATED (FeH.scfp) ****
             **** ENERGY FILE WAS UPDATED (FeH.en.tmp) ****
----------------------
UHF SPIN CONTAMINATION
----------------------

Warning: in a DFT calculation there is little theoretical justification to 
         calculate <S**2> as in Hartree-Fock theory. We will do it anyways
         but you should keep in mind that the values have only limited relevance

Expectation value of <S**2>     :     3.787657
Ideal value S*(S+1) for S=1.5   :     3.750000
Deviation                       :     0.037657

             **** THE GBW FILE WAS UPDATED (FeH.gbw) ****
             **** DENSITY FILE WAS UPDATED (FeH.scfp) ****
----------------
ORBITAL ENERGIES
----------------
                 SPIN UP ORBITALS
  NO   OCC          E(Eh)            E(eV) 
   0   1.0000    -255.194925     -6944.2070 
   1   1.0000     -29.592604      -805.2557 
   2   1.0000     -25.475084      -693.2123 
   3   1.0000     -25.475084      -693.2123 
   4   1.0000     -25.446485      -692.4341 
   5   1.0000      -3.302525       -89.8663 
   6   1.0000      -2.117882       -57.6305 
   7   1.0000      -2.117882       -57.6305 
   8   1.0000      -2.059239       -56.0348 
   9   1.0000      -0.252689        -6.8760 
  10   1.0000      -0.216926        -5.9029 
  11   1.0000      -0.216926        -5.9028 
  12   1.0000      -0.180836        -4.9208 
  13   1.0000      -0.164333        -4.4717 
  14   1.0000      -0.164333        -4.4717 
  15   0.0000      -0.091443        -2.4883 
  16   0.0000      -0.035576        -0.9681 
  17   0.0000      -0.035576        -0.9681 
  18   0.0000       0.051457         1.4002 
  19   0.0000       0.065344         1.7781 
  20   0.0000       0.093860         2.5541 
  21   0.0000       0.093860         2.5541 
  22   0.0000       0.132751         3.6123 
  23   0.0000       0.165116         4.4930 
  24   0.0000       0.165116         4.4930 
  25   0.0000       0.171859         4.6765 
  26   0.0000       0.171862         4.6766 
  27   0.0000       0.277832         7.5602 
  28   0.0000       0.280907         7.6439 
  29   0.0000       0.280907         7.6439 
  30   0.0000       0.321968         8.7612 
  31   0.0000       0.476469        12.9654 
  32   0.0000       0.521529        14.1915 
  33   0.0000       0.521529        14.1915 
  34   0.0000       0.569926        15.5085 
  35   0.0000       0.784901        21.3582 
  36   0.0000       0.784901        21.3582 
  37   0.0000       0.846133        23.0244 
  38   0.0000       0.846139        23.0246 
  39   0.0000       0.979959        26.6660 
  40   0.0000       1.050336        28.5811 
  41   0.0000       1.050336        28.5811 
  42   0.0000       1.209412        32.9098 
  43   0.0000       2.248493        61.1846 
  44   0.0000       2.272717        61.8438 
  45   0.0000       2.272717        61.8438 
  46   0.0000       2.296053        62.4788 
  47   0.0000       2.296053        62.4788 
  48   0.0000       2.298995        62.5588 
  49   0.0000       2.298996        62.5588 
  50   0.0000       2.340796        63.6963 
  51   0.0000       2.340796        63.6963 
  52   0.0000       2.505570        68.1800 
  53   0.0000       2.753758        74.9336 
  54   0.0000       2.842585        77.3507 
  55   0.0000       3.303091        89.8817 
  56   0.0000       3.303158        89.8835 
  57   0.0000       3.327001        90.5323 
  58   0.0000       3.394624        92.3724 
  59   0.0000       3.394628        92.3725 
  60   0.0000       3.449393        93.8628 
  61   0.0000       3.449393        93.8628 
  62   0.0000       3.652297        99.3841 
  63   0.0000       3.652297        99.3841 
  64   0.0000       4.033104       109.7463 
  65   0.0000       4.033104       109.7463 
  66   0.0000       4.096858       111.4812 
  67   0.0000       4.812851       130.9643 
  68   0.0000       8.428774       229.3586 
  69   0.0000       8.428802       229.3594 
  70   0.0000       8.481736       230.7998 
  71   0.0000       8.481736       230.7998 
  72   0.0000       8.493773       231.1273 
  73   0.0000       8.493775       231.1274 
  74   0.0000       8.515507       231.7187 
  75   0.0000       8.515507       231.7187 
  76   0.0000       8.555307       232.8017 
  77   0.0000       9.047175       246.1862 
  78   0.0000       9.047175       246.1862 
  79   0.0000       9.116130       248.0625 
  80   0.0000       9.116154       248.0632 
  81   0.0000       9.206014       250.5084 
  82   0.0000       9.206014       250.5084 
  83   0.0000       9.498136       258.4574 

                 SPIN DOWN ORBITALS
  NO   OCC          E(Eh)            E(eV) 
   0   1.0000    -255.194110     -6944.1848 
   1   1.0000     -29.550582      -804.1122 
   2   1.0000     -25.435326      -692.1304 
   3   1.0000     -25.435326      -692.1304 
   4   1.0000     -25.424159      -691.8265 
   5   1.0000      -3.192173       -86.8634 
   6   1.0000      -1.989617       -54.1402 
   7   1.0000      -1.989617       -54.1402 
   8   1.0000      -1.984245       -53.9940 
   9   1.0000      -0.247297        -6.7293 
  10   1.0000      -0.118980        -3.2376 
  11   1.0000      -0.118980        -3.2376 
  12   0.0000      -0.095078        -2.5872 
  13   0.0000      -0.082538        -2.2460 
  14   0.0000      -0.082537        -2.2459 
  15   0.0000      -0.042222        -1.1489 
  16   0.0000      -0.011683        -0.3179 
  17   0.0000      -0.011683        -0.3179 
  18   0.0000       0.066577         1.8116 
  19   0.0000       0.078037         2.1235 
  20   0.0000       0.118476         3.2239 
  21   0.0000       0.118476         3.2239 
  22   0.0000       0.147208         4.0057 
  23   0.0000       0.168780         4.5927 
  24   0.0000       0.168780         4.5927 
  25   0.0000       0.198766         5.4087 
  26   0.0000       0.198917         5.4128 
  27   0.0000       0.286016         7.7829 
  28   0.0000       0.286016         7.7829 
  29   0.0000       0.287582         7.8255 
  30   0.0000       0.342105         9.3091 
  31   0.0000       0.475436        12.9373 
  32   0.0000       0.562932        15.3182 
  33   0.0000       0.562932        15.3182 
  34   0.0000       0.585018        15.9192 
  35   0.0000       0.789783        21.4911 
  36   0.0000       0.789783        21.4911 
  37   0.0000       0.917978        24.9794 
  38   0.0000       0.918059        24.9817 
  39   0.0000       1.023366        27.8472 
  40   0.0000       1.063917        28.9507 
  41   0.0000       1.063917        28.9507 
  42   0.0000       1.222057        33.2539 
  43   0.0000       2.288904        62.2843 
  44   0.0000       2.338497        63.6337 
  45   0.0000       2.338497        63.6337 
  46   0.0000       2.342256        63.7360 
  47   0.0000       2.342260        63.7361 
  48   0.0000       2.393373        65.1270 
  49   0.0000       2.393373        65.1270 
  50   0.0000       2.441004        66.4231 
  51   0.0000       2.441004        66.4231 
  52   0.0000       2.540706        69.1361 
  53   0.0000       2.800608        76.2084 
  54   0.0000       2.896848        78.8272 
  55   0.0000       3.310556        90.0848 
  56   0.0000       3.310645        90.0872 
  57   0.0000       3.424466        93.1845 
  58   0.0000       3.495620        95.1207 
  59   0.0000       3.495620        95.1207 
  60   0.0000       3.499020        95.2132 
  61   0.0000       3.499023        95.2133 
  62   0.0000       3.660485        99.6069 
  63   0.0000       3.660485        99.6069 
  64   0.0000       4.034219       109.7767 
  65   0.0000       4.034219       109.7767 
  66   0.0000       4.114135       111.9513 
  67   0.0000       4.843199       131.7901 
  68   0.0000       8.565504       233.0792 
  69   0.0000       8.565504       233.0792 
  70   0.0000       8.573090       233.2856 
  71   0.0000       8.573115       233.2863 
  72   0.0000       8.581086       233.5032 
  73   0.0000       8.581087       233.5033 
  74   0.0000       8.613332       234.3807 
  75   0.0000       8.613332       234.3807 
  76   0.0000       8.665941       235.8122 
  77   0.0000       9.212616       250.6880 
  78   0.0000       9.212639       250.6886 
  79   0.0000       9.231110       251.1913 
  80   0.0000       9.231110       251.1913 
  81   0.0000       9.339766       254.1479 
  82   0.0000       9.339766       254.1479 
  83   0.0000       9.645369       262.4638 

                    ********************************
                    * MULLIKEN POPULATION ANALYSIS *
                    ********************************

--------------------------------------------
MULLIKEN ATOMIC CHARGES AND SPIN POPULATIONS
--------------------------------------------
   0 Fe:    0.018758    3.210573
   1 H :   -0.018758   -0.210573
Sum of atomic charges         :   -0.0000000
Sum of atomic spin populations:    3.0000000

-----------------------------------------------------
MULLIKEN REDUCED ORBITAL CHARGES AND SPIN POPULATIONS
-----------------------------------------------------
CHARGE
  0 Fes       :     6.952065  s :     6.952065
      pz      :     4.091052  p :    12.095743
      px      :     4.002346
      py      :     4.002346
      dz2     :     0.952054  d :     6.932748
      dxz     :     1.990391
      dyz     :     1.990391
      dx2y2   :     0.999956
      dxy     :     0.999956
      f0      :     0.000365  f :     0.000624
      f+1     :     0.000105
      f-1     :     0.000105
      f+2     :     0.000024
      f-2     :     0.000024
      f+3     :     0.000000
      f-3     :     0.000000
      g0      :     0.000013  g :     0.000061
      g+1     :     0.000008
      g-1     :     0.000008
      g+2     :     0.000016
      g-2     :     0.000016
      g+3     :     0.000000
      g-3     :     0.000000
      g+4     :     0.000000
      g-4     :     0.000000
  1 H s       :     1.020760  s :     1.020760
      pz      :    -0.016743  p :    -0.002862
      px      :     0.006940
      py      :     0.006940
      dz2     :     0.000434  d :     0.000861
      dxz     :     0.000209
      dyz     :     0.000209
      dx2y2   :     0.000004
      dxy     :     0.000004

SPIN
  0 Fes       :     0.460930  s :     0.460930
      pz      :    -0.013483  p :    -0.012563
      px      :     0.000460
      py      :     0.000460
      dz2     :     0.757246  d :     2.762163
      dxz     :     0.002503
      dyz     :     0.002503
      dx2y2   :     0.999956
      dxy     :     0.999956
      f0      :    -0.000111  f :     0.000002
      f+1     :     0.000032
      f-1     :     0.000032
      f+2     :     0.000024
      f-2     :     0.000024
      f+3     :    -0.000000
      f-3     :    -0.000000
      g0      :    -0.000002  g :     0.000041
      g+1     :     0.000006
      g-1     :     0.000006
      g+2     :     0.000016
      g-2     :     0.000016
      g+3     :     0.000000
      g-3     :     0.000000
      g+4     :     0.000000
      g-4     :    -0.000000
  1 H s       :    -0.195405  s :    -0.195405
      pz      :    -0.009394  p :    -0.015258
      px      :    -0.002932
      py      :    -0.002932
      dz2     :     0.000218  d :     0.000090
      dxz     :    -0.000069
      dyz     :    -0.000069
      dx2y2   :     0.000004
      dxy     :     0.000004


                     *******************************
                     * LOEWDIN POPULATION ANALYSIS *
                     *******************************

-------------------------------------------
LOEWDIN ATOMIC CHARGES AND SPIN POPULATIONS
-------------------------------------------
   0 Fe:    0.231245    3.044796
   1 H :   -0.231245   -0.044796

----------------------------------------------------
LOEWDIN REDUCED ORBITAL CHARGES AND SPIN POPULATIONS
----------------------------------------------------
CHARGE
  0 Fes       :     6.731607  s :     6.731607
      pz      :     4.113320  p :    12.119295
      px      :     4.002988
      py      :     4.002988
      dz2     :     0.984616  d :     6.916132
      dxz     :     1.965897
      dyz     :     1.965897
      dx2y2   :     0.999861
      dxy     :     0.999861
      f0      :     0.001181  f :     0.001643
      f+1     :     0.000206
      f-1     :     0.000206
      f+2     :     0.000025
      f-2     :     0.000025
      f+3     :     0.000000
      f-3     :     0.000000
      g0      :     0.000022  g :     0.000079
      g+1     :     0.000013
      g-1     :     0.000013
      g+2     :     0.000016
      g-2     :     0.000016
      g+3     :     0.000000
      g-3     :     0.000000
      g+4     :     0.000000
      g-4     :     0.000000
  1 H s       :     1.075278  s :     1.075278
      pz      :     0.090079  p :     0.145436
      px      :     0.027678
      py      :     0.027678
      dz2     :     0.003898  d :     0.010531
      dxz     :     0.003218
      dyz     :     0.003218
      dx2y2   :     0.000098
      dxy     :     0.000098

SPIN
  0 Fes       :     0.328991  s :     0.328991
      pz      :    -0.036378  p :    -0.035452
      px      :     0.000463
      py      :     0.000463
      dz2     :     0.743243  d :     2.751465
      dxz     :     0.004250
      dyz     :     0.004250
      dx2y2   :     0.999861
      dxy     :     0.999861
      f0      :    -0.000357  f :    -0.000251
      f+1     :     0.000028
      f-1     :     0.000028
      f+2     :     0.000025
      f-2     :     0.000025
      f+3     :    -0.000000
      f-3     :    -0.000000
      g0      :    -0.000005  g :     0.000042
      g+1     :     0.000008
      g-1     :     0.000008
      g+2     :     0.000016
      g-2     :     0.000016
      g+3     :     0.000000
      g-3     :     0.000000
      g+4     :     0.000000
      g-4     :    -0.000000
  1 H s       :    -0.072682  s :    -0.072682
      pz      :     0.035912  p :     0.026619
      px      :    -0.004646
      py      :    -0.004646
      dz2     :     0.001275  d :     0.001266
      dxz     :    -0.000103
      dyz     :    -0.000103
      dx2y2   :     0.000098
      dxy     :     0.000098


                      *****************************
                      * MAYER POPULATION ANALYSIS *
                      *****************************

  NA   - Mulliken gross atomic population
  ZA   - Total nuclear charge
  QA   - Mulliken gross atomic charge
  VA   - Mayer's total valence
  BVA  - Mayer's bonded valence
  FA   - Mayer's free valence

  ATOM       NA         ZA         QA         VA         BVA        FA
  0 Fe    25.9812    26.0000     0.0188     4.0137     0.9346     3.0790
  1 H      1.0188     1.0000    -0.0188     0.9693     0.9346     0.0347

  Mayer bond orders larger than 0.100000
B(  0-Fe,  1-H ) :   0.9346 

-------
TIMINGS
-------

Total SCF time: 0 days 0 hours 3 min 15 sec 

Total time                  ....     195.192 sec
Sum of individual times     ....     193.809 sec  ( 99.3%)

Fock matrix formation       ....     187.733 sec  ( 96.2%)
  Split-RI-J                ....       1.589 sec  (  0.8% of F)
  XC integration            ....     184.690 sec  ( 98.4% of F)
    Basis function eval.    ....       0.014 sec  (  0.0% of XC)
    Density eval.           ....       0.031 sec  (  0.0% of XC)
    XC-Functional eval.     ....       0.021 sec  (  0.0% of XC)
    XC-Potential eval.      ....       0.070 sec  (  0.0% of XC)
Diagonalization             ....       2.482 sec  (  1.3%)
Density matrix formation    ....       0.006 sec  (  0.0%)
Population analysis         ....       0.983 sec  (  0.5%)
Initial guess               ....       0.376 sec  (  0.2%)
Orbital Transformation      ....       0.000 sec  (  0.0%)
Orbital Orthonormalization  ....       0.000 sec  (  0.0%)
DIIS solution               ....       0.128 sec  (  0.1%)
Grid generation             ....       2.101 sec  (  1.1%)


-------------------------------------------------------------------------------
                          DFT DISPERSION CORRECTION                            
                                                                               
                              DFTD3 V3.1  Rev 1                                
                          USING Becke-Johnson damping                          
-------------------------------------------------------------------------------
The TPSS functional is recognized
Active option DFTDOPT                   ...         4   

molecular C6(AA) [au] = 335.178079 


            DFT-D V3
 parameters
 s6 scaling factor         :     1.0000 
 a1 scaling factor         :     0.4535 
 s8 scaling factor         :     1.9435 
 a2 scaling factor         :     4.4752 
 ad hoc parameters k1-k3   :    16.0000     1.3333    -4.0000 

 Edisp/kcal,au: -0.313505346771  -0.000499602518 
 E6   /kcal   :  -0.136237609 
 E8   /kcal   :  -0.177267738 
 % E8         :  56.543768641 

-------------------------   ----------------
Dispersion correction           -0.000499603
-------------------------   ----------------


-------------------------   --------------------
FINAL SINGLE POINT ENERGY     -1264.283452690396
-------------------------   --------------------


                            ***************************************
                            *     ORCA property calculations      *
                            ***************************************

                                    ---------------------
                                    Active property flags
                                    ---------------------
   (+) Dipole Moment


------------------------------------------------------------------------------
                       ORCA ELECTRIC PROPERTIES CALCULATION
------------------------------------------------------------------------------

Dipole Moment Calculation                       ... on
Quadrupole Moment Calculation                   ... off
Polarizability Calculation                      ... off
GBWName                                         ... FeH.gbw
Electron density file                           ... FeH.scfp
The origin for moment calculation is the CENTER OF MASS  = ( 0.000000,  0.000000  0.053938)

-------------
DIPOLE MOMENT
-------------
                                X             Y             Z
Electronic contribution:     -0.00000      -0.00000      -2.64463
Nuclear contribution   :      0.00000       0.00000       1.58614
                        -----------------------------------------
Total Dipole Moment    :     -0.00000      -0.00000      -1.05850
                        -----------------------------------------
Magnitude (a.u.)       :      1.05850
Magnitude (Debye)      :      2.69049



--------------------
Rotational spectrum 
--------------------
 
Rotational constants in cm-1:     0.000000     6.568301     6.568301 
Rotational constants in MHz :     0.000000 196912.697447 196912.697447 

 Dipole components along the rotational axes: 
x,y,z [a.u.] :    -1.058498    -0.000000    -0.000000 
x,y,z [Debye]:    -2.690487    -0.000000    -0.000000 

 

Timings for individual modules:

Sum of individual times         ...      199.785 sec (=   3.330 min)
GTO integral calculation        ...        3.879 sec (=   0.065 min)   1.9 %
SCF iterations                  ...      195.906 sec (=   3.265 min)  98.1 %
                             ****ORCA TERMINATED NORMALLY****
TOTAL RUN TIME: 0 days 0 hours 5 minutes 17 seconds 749 msec
