
                                 *****************
                                 * O   R   C   A *
                                 *****************

           --- An Ab Initio, DFT and Semiempirical electronic structure package ---

                  #######################################################
                  #                        -***-                        #
                  #          Department of theory and spectroscopy      #
                  #               Directorship: Frank Neese             #
                  #        Max Planck Institute fuer Kohlenforschung    #
                  #                Kaiser Wilhelm Platz 1               #
                  #                 D-45470 Muelheim/Ruhr               #
                  #                      Germany                        #
                  #                                                     #
                  #                  All rights reserved                #
                  #                        -***-                        #
                  #######################################################


                         Program Version 4.2.0 -  RELEASE  -


 With contributions from (in alphabetic order):
   Daniel Aravena         : Magnetic Suceptibility
   Michael Atanasov       : Ab Initio Ligand Field Theory (pilot matlab implementation)
   Alexander A. Auer      : GIAO ZORA, VPT2
   Ute Becker             : Parallelization
   Giovanni Bistoni       : ED, misc. LED, open-shell LED, HFLED
   Martin Brehm           : Molecular dynamics
   Dmytro Bykov           : SCF Hessian
   Vijay G. Chilkuri      : MRCI spin determinant printing, contributions to CSF-ICE
   Dipayan Datta          : RHF DLPNO-CCSD density
   Achintya Kumar Dutta   : EOM-CC, STEOM-CC
   Dmitry Ganyushin       : Spin-Orbit,Spin-Spin,Magnetic field MRCI
   Miquel Garcia          : C-PCM Hessian, Gaussian charge scheme
   Yang Guo               : DLPNO-NEVPT2, CIM, IAO-localization
   Andreas Hansen         : Spin unrestricted coupled pair/coupled cluster methods
   Benjamin Helmich-Paris : CASSCF linear response (MC-RPA)
   Lee Huntington         : MR-EOM, pCC
   Robert Izsak           : Overlap fitted RIJCOSX, COSX-SCS-MP3, EOM
   Christian Kollmar      : KDIIS, OOCD, Brueckner-CCSD(T), CCSD density
   Simone Kossmann        : Meta GGA functionals, TD-DFT gradient, OOMP2, MP2 Hessian
   Martin Krupicka        : AUTO-CI
   Lucas Lang             : DCDCAS
   Dagmar Lenk            : GEPOL surface, SMD
   Dimitrios Liakos       : Extrapolation schemes; Compound Job, initial MDCI parallelization
   Dimitrios Manganas     : Further ROCIS development; embedding schemes
   Dimitrios Pantazis     : SARC Basis sets
   Taras Petrenko         : DFT Hessian,TD-DFT gradient, ASA, ECA, R-Raman, ABS, FL, XAS/XES, NRVS
   Peter Pinski           : DLPNO-MP2, DLPNO-MP2 Gradient
   Christoph Reimann      : Effective Core Potentials
   Marius Retegan         : Local ZFS, SOC
   Christoph Riplinger    : Optimizer, TS searches, QM/MM, DLPNO-CCSD(T), (RO)-DLPNO pert. Triples
   Tobias Risthaus        : Range-separated hybrids, TD-DFT gradient, RPA, STAB
   Michael Roemelt        : Original ROCIS implementation
   Masaaki Saitow         : Open-shell DLPNO-CCSD energy and density
   Barbara Sandhoefer     : DKH picture change effects
   Avijit Sen             : IP-ROCIS
   Kantharuban Sivalingam : CASSCF convergence, NEVPT2, FIC-MRCI
   Bernardo de Souza      : ESD, SOC TD-DFT
   Georgi Stoychev        : AutoAux, RI-MP2 NMR
   Willem Van den Heuvel  : Paramagnetic NMR
   Boris Wezisla          : Elementary symmetry handling
   Frank Wennmohs         : Technical directorship


 We gratefully acknowledge several colleagues who have allowed us to
 interface, adapt or use parts of their codes:
   Stefan Grimme, W. Hujo, H. Kruse,             : VdW corrections, initial TS optimization,
                  C. Bannwarth                     DFT functionals, gCP, sTDA/sTD-DF
   Ed Valeev, F. Pavosevic, A. Kumar             : LibInt (2-el integral package), F12 methods
   Garnet Chan, S. Sharma, J. Yang, R. Olivares  : DMRG
   Ulf Ekstrom                                   : XCFun DFT Library
   Mihaly Kallay                                 : mrcc  (arbitrary order and MRCC methods)
   Andreas Klamt, Michael Diedenhofen            : otool_cosmo (COSMO solvation model)
   Jiri Pittner, Ondrej Demel                    : Mk-CCSD
   Frank Weinhold                                : gennbo (NPA and NBO analysis)
   Christopher J. Cramer and Donald G. Truhlar   : smd solvation model
   Lars Goerigk                                  : TD-DFT with DH, B97 family of functionals
   V. Asgeirsson, H. Jonsson                     : NEB implementation
   FAccTs GmbH                                   : IRC, NEB, NEB-TS, Multilevel, MM, QM/MM, CI optimization
   S Lehtola, MJT Oliveira, MAL Marques          : LibXC Library


 Your calculation uses the libint2 library for the computation of 2-el integrals
 For citations please refer to: http://libint.valeyev.net

 Your ORCA version has been built with support for libXC version: 4.2.3
 For citations please refer to: https://tddft.org/programs/libxc/

 This ORCA versions uses:
   CBLAS   interface :  Fast vector & matrix operations
   LAPACKE interface :  Fast linear algebra routines
   SCALAPACK package :  Parallel linear algebra routines


Your calculation utilizes the atom-pairwise dispersion correction
with the Becke-Johnson damping scheme (D3BJ)
Cite in your paper:
S.Grimme, S.Ehrlich, L.Goerigk, J Comput Chem, (2011), 32, 1456–1465 
S.Grimme, J.Antony, S.Ehrlich and H.Krieg, J.Chem.Phys., 132, (2010), 154104 
   

----- Orbital basis set information -----
Your calculation utilizes the basis: def2-TZVPPD
   F. Weigend and R. Ahlrichs, Phys. Chem. Chem. Phys. 7, 3297 (2005).
   D. Rappoport and F. Furche, J. Chem. Phys. 133 134105 (2010).

----- AuxJ basis set information -----
Your calculation utilizes the auxiliary basis: def2/J
   F. Weigend, Phys. Chem. Chem. Phys. 8, 1057 (2006).

================================================================================
                                        WARNINGS
                       Please study these warnings very carefully!
================================================================================


WARNING: your system is open-shell and RHF/RKS was chosen
  ===> : WILL SWITCH to UHF/UKS


INFO   : the flag for use of LIBINT has been found!

================================================================================
                                       INPUT FILE
================================================================================
NAME = LiO.in
|  1> #
|  2> # LiO TPSS-D3BJ/Def2-TZVPPD
|  3> #
|  4> ! tpss d3bj def2-tzvppd def2/j grid4 nofinalgrid
|  5> 
|  6> *xyz 0 2
|  7> Li         0.00000        0.00000        0.00000
|  8> O          0.00000        0.00000        1.68900
|  9> *
| 10> 
| 11> %maxcore 5000
| 12> 
| 13> %pal
| 14> nprocs = 28
| 15> end
| 16> 
| 17> 
| 18>                          ****END OF INPUT****
================================================================================

                       ****************************
                       * Single Point Calculation *
                       ****************************

---------------------------------
CARTESIAN COORDINATES (ANGSTROEM)
---------------------------------
  Li     0.000000    0.000000    0.000000
  O      0.000000    0.000000    1.689000

----------------------------
CARTESIAN COORDINATES (A.U.)
----------------------------
  NO LB      ZA    FRAG     MASS         X           Y           Z
   0 Li    3.0000    0     6.941    0.000000    0.000000    0.000000
   1 O     8.0000    0    15.999    0.000000    0.000000    3.191747

--------------------------------
INTERNAL COORDINATES (ANGSTROEM)
--------------------------------
 Li     0   0   0     0.000000000000     0.00000000     0.00000000
 O      1   0   0     1.689000000000     0.00000000     0.00000000

---------------------------
INTERNAL COORDINATES (A.U.)
---------------------------
 Li     0   0   0     0.000000000000     0.00000000     0.00000000
 O      1   0   0     3.191747440193     0.00000000     0.00000000

---------------------
BASIS SET INFORMATION
---------------------
There are 2 groups of distinct atoms

 Group   1 Type Li  : 11s4p1d contracted to 5s4p1d pattern {62111/1111/1}
 Group   2 Type O   : 12s7p3d1f contracted to 6s4p3d1f pattern {621111/4111/111/1}

Atom   0Li   basis set group =>   1
Atom   1O    basis set group =>   2
---------------------------------
AUXILIARY/J BASIS SET INFORMATION
---------------------------------
There are 2 groups of distinct atoms

 Group   1 Type Li  : 12s5p4d2f1g contracted to 6s4p3d1f1g pattern {711111/2111/211/2/1}
 Group   2 Type O   : 12s5p4d2f1g contracted to 6s4p3d1f1g pattern {711111/2111/211/2/1}

Atom   0Li   basis set group =>   1
Atom   1O    basis set group =>   2


           ************************************************************
           *        Program running with 28 parallel MPI-processes    *
           *              working on a common directory               *
           ************************************************************
------------------------------------------------------------------------------
                           ORCA GTO INTEGRAL CALCULATION
                           -- RI-GTO INTEGRALS CHOSEN --
------------------------------------------------------------------------------

                         BASIS SET STATISTICS AND STARTUP INFO

Gaussian basis set:
 # of primitive gaussian shells          ...   39
 # of primitive gaussian functions       ...   83
 # of contracted shells                  ...   24
 # of contracted basis functions         ...   62
 Highest angular momentum                ...    3
 Maximum contraction depth               ...    6
Auxiliary gaussian basis set:
 # of primitive gaussian shells          ...   48
 # of primitive gaussian functions       ...  140
 # of contracted shells                  ...   30
 # of contracted aux-basis functions     ...   98
 Highest angular momentum                ...    4
 Maximum contraction depth               ...    7
Ratio of auxiliary to basis functions    ...  1.58
Integral package used                  ... LIBINT
 One Electron integrals                  ... done
 Ordering auxiliary basis shells         ... done
 Integral threshhold             Thresh  ...  1.000e-10
 Primitive cut-off               TCut    ...  1.000e-11
 Pre-screening matrix                    ... done
 Shell pair data                         ... 
 Ordering of the shell pairs             ... done (   0.000 sec) 297 of 300 pairs
 Determination of significant pairs      ... done (   0.000 sec)
 Creation of shell pair data             ... done (   0.000 sec)
 Storage of shell pair data              ... done (   0.081 sec)
 Shell pair data done in (   0.081 sec)
 Computing two index integrals           ... done
 Cholesky decomposition of the V-matrix  ... done


Timings:
 Total evaluation time                   ...   0.845 sec (  0.014 min)
 One electron matrix time                ...   0.422 sec (  0.007 min) = 49.9%
 Schwartz matrix evaluation time         ...   0.099 sec (  0.002 min) = 11.8%
 Two index repulsion integral time       ...   0.080 sec (  0.001 min) =  9.4%
 Cholesky decomposition of V             ...   0.028 sec (  0.000 min) =  3.3%
 Three index repulsion integral time     ...   0.000 sec (  0.000 min) =  0.0%



           ************************************************************
           *        Program running with 28 parallel MPI-processes    *
           *              working on a common directory               *
           ************************************************************
-------------------------------------------------------------------------------
                                 ORCA SCF
-------------------------------------------------------------------------------

------------
SCF SETTINGS
------------
Hamiltonian:
 Density Functional     Method          .... DFT(GTOs)
 Exchange Functional    Exchange        .... TPSS
 Correlation Functional Correlation     .... TPSS
 LDA part of GGA corr.  LDAOpt          .... PW91-LDA
 Gradients option       PostSCFGGA      .... off
   Density functional embedding theory  .... OFF
   NL short-range parameter             ....  5.000000
 RI-approximation to the Coulomb term is turned on
   Number of auxiliary basis functions  .... 98


General Settings:
 Integral files         IntName         .... LiO
 Hartree-Fock type      HFTyp           .... UHF
 Total Charge           Charge          ....    0
 Multiplicity           Mult            ....    2
 Number of Electrons    NEL             ....   11
 Basis Dimension        Dim             ....   62
 Nuclear Repulsion      ENuc            ....      7.5193919474 Eh

Convergence Acceleration:
 DIIS                   CNVDIIS         .... on
   Start iteration      DIISMaxIt       ....    12
   Startup error        DIISStart       ....  0.200000
   # of expansion vecs  DIISMaxEq       ....     5
   Bias factor          DIISBfac        ....   1.050
   Max. coefficient     DIISMaxC        ....  10.000
 Newton-Raphson         CNVNR           .... off
 SOSCF                  CNVSOSCF        .... off
 Level Shifting         CNVShift        .... on
   Level shift para.    LevelShift      ....    0.2500
   Turn off err/grad.   ShiftErr        ....    0.0010
 Zerner damping         CNVZerner       .... off
 Static damping         CNVDamp         .... on
   Fraction old density DampFac         ....    0.7000
   Max. Damping (<1)    DampMax         ....    0.9800
   Min. Damping (>=0)   DampMin         ....    0.0000
   Turn off err/grad.   DampErr         ....    0.1000
 Fernandez-Rico         CNVRico         .... off

SCF Procedure:
 Maximum # iterations   MaxIter         ....   125
 SCF integral mode      SCFMode         .... Direct
   Integral package                     .... LIBINT
 Reset frequency        DirectResetFreq ....    20
 Integral Threshold     Thresh          ....  1.000e-10 Eh
 Primitive CutOff       TCut            ....  1.000e-11 Eh

Convergence Tolerance:
 Convergence Check Mode ConvCheckMode   .... Total+1el-Energy
 Convergence forced     ConvForced      .... 0
 Energy Change          TolE            ....  1.000e-06 Eh
 1-El. energy change                    ....  1.000e-03 Eh
 DIIS Error             TolErr          ....  1.000e-06


Diagonalization of the overlap matrix:
Smallest eigenvalue                        ... 2.607e-03
Time for diagonalization                   ...    0.001 sec
Threshold for overlap eigenvalues          ... 1.000e-08
Number of eigenvalues below threshold      ... 0
Time for construction of square roots      ...    0.113 sec
Total time needed                          ...    0.114 sec

-------------------
DFT GRID GENERATION
-------------------

General Integration Accuracy     IntAcc      ...  4.670
Radial Grid Type                 RadialGrid  ... Gauss-Chebyshev
Angular Grid (max. acc.)         AngularGrid ... Lebedev-302
Angular grid pruning method      GridPruning ... 3 (G Style)
Weight generation scheme         WeightScheme... Becke
Basis function cutoff            BFCut       ...    1.0000e-10
Integration weight cutoff        WCut        ...    1.0000e-14
Grids for H and He will be reduced by one unit

# of grid points (after initial pruning)     ...  12088 (   0.0 sec)
# of grid points (after weights+screening)   ...  12047 (   0.0 sec)
nearest neighbour list constructed           ...    0.0 sec
Grid point re-assignment to atoms done       ...    0.0 sec
Grid point division into batches done        ...    0.1 sec
Reduced shell lists constructed in    0.1 sec

Total number of grid points                  ...    12047
Total number of batches                      ...      190
Average number of points per batch           ...       63
Average number of grid points per atom       ...     6024
Average number of shells per batch           ...     3.75 (15.62%)
Average number of basis functions per batch  ...     8.50 (13.71%)
Average number of large shells per batch     ...     2.12 (56.67%)
Average number of large basis fcns per batch ...     4.88 (57.35%)
Maximum spatial batch extension              ...  43.84, 39.87, 23.89 au
Average spatial batch extension              ...   1.29,  1.08,  0.81 au

Time for grid setup =    2.227 sec

------------------------------
INITIAL GUESS: MODEL POTENTIAL
------------------------------
Loading Hartree-Fock densities                     ... done
Calculating cut-offs                               ... done
Setting up the integral package                    ... done
Initializing the effective Hamiltonian             ... done
Starting the Coulomb interaction                   ... done (   0.0 sec)
Reading the grid                                   ... done
Mapping shells                                     ... done
Starting the XC term evaluation                    ... done (   0.0 sec)
  promolecular density results
     # of electrons  =     11.000010517
     EX              =     -9.795347744
     EC              =     -0.308393507
     EX+EC           =    -10.103741251
Transforming the Hamiltonian                       ... done (   0.1 sec)
Diagonalizing the Hamiltonian                      ... done (   0.0 sec)
Back transforming the eigenvectors                 ... done (   0.0 sec)
Now organizing SCF variables                       ... done
                      ------------------
                      INITIAL GUESS DONE (   3.8 sec)
                      ------------------
--------------
SCF ITERATIONS
--------------
ITER       Energy         Delta-E        Max-DP      RMS-DP      [F,P]     Damp
               ***  Starting incremental Fock matrix formation  ***
  0    -82.6356327576   0.000000000000 0.02928582  0.00136610  0.3060505 0.7000
  1    -82.6836194167  -0.047986659109 0.01677853  0.00082325  0.1070838 0.7000
                               ***Turning on DIIS***
  2    -82.6954074847  -0.011788067977 0.01712158  0.00098300  0.0227961 0.0000
  3    -82.7204588286  -0.025051343947 0.01004474  0.00049854  0.0714552 0.0000
  4    -82.7261670446  -0.005708216008 0.00272143  0.00016618  0.0097369 0.0000
  5    -82.7264859287  -0.000318884058 0.00176504  0.00007162  0.0032943 0.0000
  6    -82.7265318461  -0.000045917377 0.00063462  0.00002948  0.0019266 0.0000
  7    -82.7265435771  -0.000011731005 0.00031887  0.00001430  0.0011785 0.0000
  8    -82.7265473104  -0.000003733332 0.00048923  0.00002272  0.0007013 0.0000
  9    -82.7265492814  -0.000001971014 0.00006451  0.00000219  0.0002663 0.0000
                 **** Energy Check signals convergence ****

               *****************************************************
               *                     SUCCESS                       *
               *           SCF CONVERGED AFTER  10 CYCLES          *
               *****************************************************


----------------
TOTAL SCF ENERGY
----------------

Total Energy       :          -82.72654934 Eh           -2251.10385 eV

Components:
Nuclear Repulsion  :            7.51939195 Eh             204.61306 eV
Electronic Energy  :          -90.24594129 Eh           -2455.71691 eV
One Electron Energy:         -129.46354763 Eh           -3522.88223 eV
Two Electron Energy:           39.21760634 Eh            1067.16532 eV

Virial components:
Potential Energy   :         -165.14078920 Eh           -4493.70933 eV
Kinetic Energy     :           82.41423986 Eh            2242.60548 eV
Virial Ratio       :            2.00378951


DFT components:
N(Alpha)           :        6.000007209504 electrons
N(Beta)            :        5.000006436550 electrons
N(Total)           :       11.000013646054 electrons
E(X)               :      -10.159089778874 Eh       
E(C)               :       -0.323934204570 Eh       
E(XC)              :      -10.483023983443 Eh       
DFET-embed. en.    :        0.000000000000 Eh       

---------------
SCF CONVERGENCE
---------------

  Last Energy change         ...   -6.0631e-08  Tolerance :   1.0000e-06
  Last MAX-Density change    ...    1.4114e-05  Tolerance :   1.0000e-05
  Last RMS-Density change    ...    5.0813e-07  Tolerance :   1.0000e-06
  Last DIIS Error            ...    6.0470e-05  Tolerance :   1.0000e-06

             **** THE GBW FILE WAS UPDATED (LiO.gbw) ****
             **** DENSITY FILE WAS UPDATED (LiO.scfp) ****
             **** ENERGY FILE WAS UPDATED (LiO.en.tmp) ****
----------------------
UHF SPIN CONTAMINATION
----------------------

Warning: in a DFT calculation there is little theoretical justification to 
         calculate <S**2> as in Hartree-Fock theory. We will do it anyways
         but you should keep in mind that the values have only limited relevance

Expectation value of <S**2>     :     0.753412
Ideal value S*(S+1) for S=0.5   :     0.750000
Deviation                       :     0.003412

             **** THE GBW FILE WAS UPDATED (LiO.gbw) ****
             **** DENSITY FILE WAS UPDATED (LiO.scfp) ****
----------------
ORBITAL ENERGIES
----------------
                 SPIN UP ORBITALS
  NO   OCC          E(Eh)            E(eV) 
   0   1.0000     -18.819118      -512.0942 
   1   1.0000      -1.903219       -51.7892 
   2   1.0000      -0.763889       -20.7865 
   3   1.0000      -0.249011        -6.7759 
   4   1.0000      -0.195317        -5.3148 
   5   1.0000      -0.182790        -4.9740 
   6   0.0000      -0.057304        -1.5593 
   7   0.0000       0.002337         0.0636 
   8   0.0000       0.003883         0.1057 
   9   0.0000       0.022617         0.6155 
  10   0.0000       0.057628         1.5681 
  11   0.0000       0.075873         2.0646 
  12   0.0000       0.077535         2.1098 
  13   0.0000       0.124425         3.3858 
  14   0.0000       0.126075         3.4307 
  15   0.0000       0.131935         3.5901 
  16   0.0000       0.158595         4.3156 
  17   0.0000       0.254275         6.9192 
  18   0.0000       0.281935         7.6718 
  19   0.0000       0.281962         7.6726 
  20   0.0000       0.346062         9.4168 
  21   0.0000       0.372919        10.1477 
  22   0.0000       0.373826        10.1723 
  23   0.0000       0.385403        10.4874 
  24   0.0000       0.392164        10.6713 
  25   0.0000       0.457164        12.4401 
  26   0.0000       0.457224        12.4417 
  27   0.0000       0.535814        14.5802 
  28   0.0000       0.593277        16.1439 
  29   0.0000       0.613250        16.6874 
  30   0.0000       0.651556        17.7297 
  31   0.0000       0.799157        21.7462 
  32   0.0000       0.810724        22.0609 
  33   0.0000       0.833486        22.6803 
  34   0.0000       0.909953        24.7611 
  35   0.0000       1.560587        42.4657 
  36   0.0000       1.719847        46.7994 
  37   0.0000       1.720792        46.8251 
  38   0.0000       1.730897        47.1001 
  39   0.0000       1.771710        48.2107 
  40   0.0000       2.054115        55.8953 
  41   0.0000       2.672510        72.7227 
  42   0.0000       2.727779        74.2266 
  43   0.0000       2.779028        75.6212 
  44   0.0000       3.067490        83.4706 
  45   0.0000       5.160635       140.4280 
  46   0.0000       5.172893       140.7616 
  47   0.0000       5.184026       141.0645 
  48   0.0000       5.190966       141.2534 
  49   0.0000       5.193184       141.3137 
  50   0.0000       5.225733       142.1994 
  51   0.0000       5.294152       144.0612 
  52   0.0000       5.836676       158.8240 
  53   0.0000       5.839847       158.9103 
  54   0.0000       6.098232       165.9413 
  55   0.0000       6.340023       172.5208 
  56   0.0000       6.342918       172.5996 
  57   0.0000       6.359755       173.0577 
  58   0.0000       6.417727       174.6352 
  59   0.0000       6.572945       178.8589 
  60   0.0000      14.586727       396.9250 
  61   0.0000      43.229584      1176.3368 

                 SPIN DOWN ORBITALS
  NO   OCC          E(Eh)            E(eV) 
   0   1.0000     -18.795111      -511.4410 
   1   1.0000      -1.903381       -51.7936 
   2   1.0000      -0.697279       -18.9739 
   3   1.0000      -0.175343        -4.7713 
   4   1.0000      -0.162034        -4.4092 
   5   0.0000      -0.114669        -3.1203 
   6   0.0000      -0.056583        -1.5397 
   7   0.0000       0.003237         0.0881 
   8   0.0000       0.010253         0.2790 
   9   0.0000       0.024500         0.6667 
  10   0.0000       0.057991         1.5780 
  11   0.0000       0.076945         2.0938 
  12   0.0000       0.081737         2.2242 
  13   0.0000       0.125924         3.4266 
  14   0.0000       0.133414         3.6304 
  15   0.0000       0.142546         3.8789 
  16   0.0000       0.162558         4.4234 
  17   0.0000       0.258195         7.0259 
  18   0.0000       0.285494         7.7687 
  19   0.0000       0.286724         7.8022 
  20   0.0000       0.348627         9.4866 
  21   0.0000       0.373103        10.1526 
  22   0.0000       0.378288        10.2937 
  23   0.0000       0.391258        10.6467 
  24   0.0000       0.398319        10.8388 
  25   0.0000       0.466933        12.7059 
  26   0.0000       0.468748        12.7553 
  27   0.0000       0.540153        14.6983 
  28   0.0000       0.619039        16.8449 
  29   0.0000       0.631793        17.1920 
  30   0.0000       0.664956        18.0944 
  31   0.0000       0.813912        22.1477 
  32   0.0000       0.824601        22.4385 
  33   0.0000       0.854844        23.2615 
  34   0.0000       0.913597        24.8602 
  35   0.0000       1.569370        42.7047 
  36   0.0000       1.773044        48.2470 
  37   0.0000       1.780011        48.4366 
  38   0.0000       1.783254        48.5248 
  39   0.0000       1.783823        48.5403 
  40   0.0000       2.074171        56.4411 
  41   0.0000       2.759251        75.0830 
  42   0.0000       2.784960        75.7826 
  43   0.0000       2.812196        76.5238 
  44   0.0000       3.121417        84.9381 
  45   0.0000       5.240150       142.5917 
  46   0.0000       5.248142       142.8092 
  47   0.0000       5.248877       142.8292 
  48   0.0000       5.252313       142.9227 
  49   0.0000       5.253268       142.9487 
  50   0.0000       5.259374       143.1148 
  51   0.0000       5.333653       145.1361 
  52   0.0000       5.839698       158.9063 
  53   0.0000       5.841209       158.9474 
  54   0.0000       6.107717       166.1994 
  55   0.0000       6.467160       175.9804 
  56   0.0000       6.467830       175.9986 
  57   0.0000       6.471791       176.1064 
  58   0.0000       6.483533       176.4259 
  59   0.0000       6.639901       180.6809 
  60   0.0000      14.586753       396.9257 
  61   0.0000      43.264248      1177.2800 

                    ********************************
                    * MULLIKEN POPULATION ANALYSIS *
                    ********************************

--------------------------------------------
MULLIKEN ATOMIC CHARGES AND SPIN POPULATIONS
--------------------------------------------
   0 Li:    0.822537   -0.008258
   1 O :   -0.822537    1.008258
Sum of atomic charges         :   -0.0000000
Sum of atomic spin populations:    1.0000000

-----------------------------------------------------
MULLIKEN REDUCED ORBITAL CHARGES AND SPIN POPULATIONS
-----------------------------------------------------
CHARGE
  0 Lis       :     2.009438  s :     2.009438
      pz      :     0.079857  p :     0.160070
      px      :     0.062149
      py      :     0.018064
      dz2     :     0.005794  d :     0.007956
      dxz     :     0.001581
      dyz     :     0.000570
      dx2y2   :     0.000007
      dxy     :     0.000003
  1 O s       :     3.968680  s :     3.968680
      pz      :     1.932089  p :     4.839594
      px      :     1.839519
      py      :     1.067986
      dz2     :     0.003647  d :     0.014114
      dxz     :     0.007176
      dyz     :     0.002868
      dx2y2   :     0.000285
      dxy     :     0.000138
      f0      :     0.000036  f :     0.000149
      f+1     :     0.000009
      f-1     :     0.000004
      f+2     :     0.000017
      f-2     :     0.000008
      f+3     :     0.000036
      f-3     :     0.000037

SPIN
  0 Lis       :    -0.006018  s :    -0.006018
      pz      :    -0.004485  p :    -0.001847
      px      :    -0.008481
      py      :     0.011119
      dz2     :    -0.000483  d :    -0.000393
      dxz     :    -0.000293
      dyz     :     0.000387
      dx2y2   :    -0.000002
      dxy     :    -0.000001
  1 O s       :     0.001169  s :     0.001169
      pz      :     0.009743  p :     1.005172
      px      :     0.098630
      py      :     0.896798
      dz2     :    -0.000131  d :     0.001838
      dxz     :    -0.000353
      dyz     :     0.002128
      dx2y2   :     0.000131
      dxy     :     0.000063
      f0      :    -0.000009  f :     0.000080
      f+1     :    -0.000008
      f-1     :     0.000003
      f+2     :     0.000016
      f-2     :     0.000008
      f+3     :     0.000035
      f-3     :     0.000035


                     *******************************
                     * LOEWDIN POPULATION ANALYSIS *
                     *******************************

-------------------------------------------
LOEWDIN ATOMIC CHARGES AND SPIN POPULATIONS
-------------------------------------------
   0 Li:    0.500943    0.033137
   1 O :   -0.500943    0.966863

----------------------------------------------------
LOEWDIN REDUCED ORBITAL CHARGES AND SPIN POPULATIONS
----------------------------------------------------
CHARGE
  0 Lis       :     2.008617  s :     2.008617
      pz      :     0.180453  p :     0.309174
      px      :     0.094789
      py      :     0.033932
      dz2     :     0.091973  d :     0.181266
      dxz     :     0.058300
      dyz     :     0.030983
      dx2y2   :     0.000007
      dxy     :     0.000004
  1 O s       :     3.791089  s :     3.791089
      pz      :     1.889454  p :     4.666913
      px      :     1.754025
      py      :     1.023434
      dz2     :     0.037884  d :     0.042756
      dxz     :     0.003314
      dyz     :     0.001135
      dx2y2   :     0.000285
      dxy     :     0.000138
      f0      :     0.000071  f :     0.000185
      f+1     :     0.000006
      f-1     :     0.000009
      f+2     :     0.000017
      f-2     :     0.000008
      f+3     :     0.000036
      f-3     :     0.000037

SPIN
  0 Lis       :    -0.004148  s :    -0.004148
      pz      :    -0.005506  p :     0.010669
      px      :    -0.007680
      py      :     0.023855
      dz2     :    -0.000762  d :     0.026615
      dxz     :     0.001939
      dyz     :     0.025440
      dx2y2   :    -0.000002
      dxy     :    -0.000001
  1 O s       :     0.005688  s :     0.005688
      pz      :     0.004631  p :     0.960578
      px      :     0.095591
      py      :     0.860356
      dz2     :    -0.000135  d :     0.000482
      dxz     :    -0.000352
      dyz     :     0.000775
      dx2y2   :     0.000130
      dxy     :     0.000063
      f0      :     0.000017  f :     0.000116
      f+1     :    -0.000004
      f-1     :     0.000008
      f+2     :     0.000016
      f-2     :     0.000008
      f+3     :     0.000035
      f-3     :     0.000035


                      *****************************
                      * MAYER POPULATION ANALYSIS *
                      *****************************

  NA   - Mulliken gross atomic population
  ZA   - Total nuclear charge
  QA   - Mulliken gross atomic charge
  VA   - Mayer's total valence
  BVA  - Mayer's bonded valence
  FA   - Mayer's free valence

  ATOM       NA         ZA         QA         VA         BVA        FA
  0 Li     2.1775     3.0000     0.8225     0.3581     0.3576     0.0004
  1 O      8.8225     8.0000    -0.8225     1.3353     0.3576     0.9777

  Mayer bond orders larger than 0.100000
B(  0-Li,  1-O ) :   0.3576 

-------
TIMINGS
-------

Total SCF time: 0 days 0 hours 3 min 22 sec 

Total time                  ....     202.787 sec
Sum of individual times     ....     201.521 sec  ( 99.4%)

Fock matrix formation       ....     193.709 sec  ( 95.5%)
  Split-RI-J                ....       0.969 sec  (  0.5% of F)
  XC integration            ....     190.851 sec  ( 98.5% of F)
    Basis function eval.    ....       0.006 sec  (  0.0% of XC)
    Density eval.           ....       0.013 sec  (  0.0% of XC)
    XC-Functional eval.     ....       0.016 sec  (  0.0% of XC)
    XC-Potential eval.      ....       0.019 sec  (  0.0% of XC)
Diagonalization             ....       2.666 sec  (  1.3%)
Density matrix formation    ....       0.005 sec  (  0.0%)
Population analysis         ....       1.287 sec  (  0.6%)
Initial guess               ....       1.550 sec  (  0.8%)
Orbital Transformation      ....       0.000 sec  (  0.0%)
Orbital Orthonormalization  ....       0.000 sec  (  0.0%)
DIIS solution               ....       0.076 sec  (  0.0%)
Grid generation             ....       2.227 sec  (  1.1%)


-------------------------------------------------------------------------------
                          DFT DISPERSION CORRECTION                            
                                                                               
                              DFTD3 V3.1  Rev 1                                
                          USING Becke-Johnson damping                          
-------------------------------------------------------------------------------
The TPSS functional is recognized
Active option DFTDOPT                   ...         4   

molecular C6(AA) [au] = 159.524706 


            DFT-D V3
 parameters
 s6 scaling factor         :     1.0000 
 a1 scaling factor         :     0.4535 
 s8 scaling factor         :     1.9435 
 a2 scaling factor         :     4.4752 
 ad hoc parameters k1-k3   :    16.0000     1.3333    -4.0000 

 Edisp/kcal,au: -0.268142980271  -0.000427312993 
 E6   /kcal   :  -0.110402832 
 E8   /kcal   :  -0.157740148 
 % E8         :  58.826879624 

-------------------------   ----------------
Dispersion correction           -0.000427313
-------------------------   ----------------


-------------------------   --------------------
FINAL SINGLE POINT ENERGY       -82.726976655037
-------------------------   --------------------


                            ***************************************
                            *     ORCA property calculations      *
                            ***************************************

                                    ---------------------
                                    Active property flags
                                    ---------------------
   (+) Dipole Moment


------------------------------------------------------------------------------
                       ORCA ELECTRIC PROPERTIES CALCULATION
------------------------------------------------------------------------------

Dipole Moment Calculation                       ... on
Quadrupole Moment Calculation                   ... off
Polarizability Calculation                      ... off
GBWName                                         ... LiO.gbw
Electron density file                           ... LiO.scfp
The origin for moment calculation is the CENTER OF MASS  = ( 0.000000,  0.000000  2.226014)

-------------
DIPOLE MOMENT
-------------
                                X             Y             Z
Electronic contribution:      0.00000      -0.00000      -3.58278
Nuclear contribution   :      0.00000       0.00000       1.04782
                        -----------------------------------------
Total Dipole Moment    :      0.00000      -0.00000      -2.53496
                        -----------------------------------------
Magnitude (a.u.)       :      2.53496
Magnitude (Debye)      :      6.44336



--------------------
Rotational spectrum 
--------------------
 
Rotational constants in cm-1:     0.000000     1.220720     1.220720 
Rotational constants in MHz :     0.000000 36596.271053 36596.271053 

 Dipole components along the rotational axes: 
x,y,z [a.u.] :    -2.534961    -0.000000     0.000000 
x,y,z [Debye]:    -6.443359    -0.000000     0.000000 

 

Timings for individual modules:

Sum of individual times         ...      209.654 sec (=   3.494 min)
GTO integral calculation        ...        5.956 sec (=   0.099 min)   2.8 %
SCF iterations                  ...      203.698 sec (=   3.395 min)  97.2 %
                             ****ORCA TERMINATED NORMALLY****
TOTAL RUN TIME: 0 days 0 hours 5 minutes 2 seconds 451 msec
