
                                 *****************
                                 * O   R   C   A *
                                 *****************

           --- An Ab Initio, DFT and Semiempirical electronic structure package ---

                  #######################################################
                  #                        -***-                        #
                  #          Department of theory and spectroscopy      #
                  #               Directorship: Frank Neese             #
                  #        Max Planck Institute fuer Kohlenforschung    #
                  #                Kaiser Wilhelm Platz 1               #
                  #                 D-45470 Muelheim/Ruhr               #
                  #                      Germany                        #
                  #                                                     #
                  #                  All rights reserved                #
                  #                        -***-                        #
                  #######################################################


                         Program Version 4.2.0 -  RELEASE  -


 With contributions from (in alphabetic order):
   Daniel Aravena         : Magnetic Suceptibility
   Michael Atanasov       : Ab Initio Ligand Field Theory (pilot matlab implementation)
   Alexander A. Auer      : GIAO ZORA, VPT2
   Ute Becker             : Parallelization
   Giovanni Bistoni       : ED, misc. LED, open-shell LED, HFLED
   Martin Brehm           : Molecular dynamics
   Dmytro Bykov           : SCF Hessian
   Vijay G. Chilkuri      : MRCI spin determinant printing, contributions to CSF-ICE
   Dipayan Datta          : RHF DLPNO-CCSD density
   Achintya Kumar Dutta   : EOM-CC, STEOM-CC
   Dmitry Ganyushin       : Spin-Orbit,Spin-Spin,Magnetic field MRCI
   Miquel Garcia          : C-PCM Hessian, Gaussian charge scheme
   Yang Guo               : DLPNO-NEVPT2, CIM, IAO-localization
   Andreas Hansen         : Spin unrestricted coupled pair/coupled cluster methods
   Benjamin Helmich-Paris : CASSCF linear response (MC-RPA)
   Lee Huntington         : MR-EOM, pCC
   Robert Izsak           : Overlap fitted RIJCOSX, COSX-SCS-MP3, EOM
   Christian Kollmar      : KDIIS, OOCD, Brueckner-CCSD(T), CCSD density
   Simone Kossmann        : Meta GGA functionals, TD-DFT gradient, OOMP2, MP2 Hessian
   Martin Krupicka        : AUTO-CI
   Lucas Lang             : DCDCAS
   Dagmar Lenk            : GEPOL surface, SMD
   Dimitrios Liakos       : Extrapolation schemes; Compound Job, initial MDCI parallelization
   Dimitrios Manganas     : Further ROCIS development; embedding schemes
   Dimitrios Pantazis     : SARC Basis sets
   Taras Petrenko         : DFT Hessian,TD-DFT gradient, ASA, ECA, R-Raman, ABS, FL, XAS/XES, NRVS
   Peter Pinski           : DLPNO-MP2, DLPNO-MP2 Gradient
   Christoph Reimann      : Effective Core Potentials
   Marius Retegan         : Local ZFS, SOC
   Christoph Riplinger    : Optimizer, TS searches, QM/MM, DLPNO-CCSD(T), (RO)-DLPNO pert. Triples
   Tobias Risthaus        : Range-separated hybrids, TD-DFT gradient, RPA, STAB
   Michael Roemelt        : Original ROCIS implementation
   Masaaki Saitow         : Open-shell DLPNO-CCSD energy and density
   Barbara Sandhoefer     : DKH picture change effects
   Avijit Sen             : IP-ROCIS
   Kantharuban Sivalingam : CASSCF convergence, NEVPT2, FIC-MRCI
   Bernardo de Souza      : ESD, SOC TD-DFT
   Georgi Stoychev        : AutoAux, RI-MP2 NMR
   Willem Van den Heuvel  : Paramagnetic NMR
   Boris Wezisla          : Elementary symmetry handling
   Frank Wennmohs         : Technical directorship


 We gratefully acknowledge several colleagues who have allowed us to
 interface, adapt or use parts of their codes:
   Stefan Grimme, W. Hujo, H. Kruse,             : VdW corrections, initial TS optimization,
                  C. Bannwarth                     DFT functionals, gCP, sTDA/sTD-DF
   Ed Valeev, F. Pavosevic, A. Kumar             : LibInt (2-el integral package), F12 methods
   Garnet Chan, S. Sharma, J. Yang, R. Olivares  : DMRG
   Ulf Ekstrom                                   : XCFun DFT Library
   Mihaly Kallay                                 : mrcc  (arbitrary order and MRCC methods)
   Andreas Klamt, Michael Diedenhofen            : otool_cosmo (COSMO solvation model)
   Jiri Pittner, Ondrej Demel                    : Mk-CCSD
   Frank Weinhold                                : gennbo (NPA and NBO analysis)
   Christopher J. Cramer and Donald G. Truhlar   : smd solvation model
   Lars Goerigk                                  : TD-DFT with DH, B97 family of functionals
   V. Asgeirsson, H. Jonsson                     : NEB implementation
   FAccTs GmbH                                   : IRC, NEB, NEB-TS, Multilevel, MM, QM/MM, CI optimization
   S Lehtola, MJT Oliveira, MAL Marques          : LibXC Library


 Your calculation uses the libint2 library for the computation of 2-el integrals
 For citations please refer to: http://libint.valeyev.net

 Your ORCA version has been built with support for libXC version: 4.2.3
 For citations please refer to: https://tddft.org/programs/libxc/

 This ORCA versions uses:
   CBLAS   interface :  Fast vector & matrix operations
   LAPACKE interface :  Fast linear algebra routines
   SCALAPACK package :  Parallel linear algebra routines


Your calculation utilizes the atom-pairwise dispersion correction
with the Becke-Johnson damping scheme (D3BJ)
Cite in your paper:
S.Grimme, S.Ehrlich, L.Goerigk, J Comput Chem, (2011), 32, 1456–1465 
S.Grimme, J.Antony, S.Ehrlich and H.Krieg, J.Chem.Phys., 132, (2010), 154104 
   

----- Orbital basis set information -----
Your calculation utilizes the basis: def2-TZVPPD
   F. Weigend and R. Ahlrichs, Phys. Chem. Chem. Phys. 7, 3297 (2005).
   D. Rappoport and F. Furche, J. Chem. Phys. 133 134105 (2010).

----- AuxJ basis set information -----
Your calculation utilizes the auxiliary basis: def2/J
   F. Weigend, Phys. Chem. Chem. Phys. 8, 1057 (2006).

cite the ECPs for Zr [Def2-ECP] as follows:
Ce-Yb(ecp-28): M. Dolg, H. Stoll, H.Preuss, J. Chem. Phys., 1989, 90, 1730-1734.
Y-Cd(ecp-28), Hf-Hg(ecp-46): D. Andrae,U. Haeussermann, M. Dolg, H. Stoll, H. Preuss, Theor. Chim. Acta, 1990, 77, 123-141.
In-Sb(ecp-28), Tl-Bi(ecp-46): B. Metz, H. Stoll, M. Dolg, J. Chem. Phys., 2000, 113, 2563-2569.
Te-Xe(ecp-28), Po-Rn(ecp-46): K. A. Peterson, D. Figgen, E. Goll, H. Stoll, M. Dolg, J. Chem. Phys., 2003, 119, 11113-11123.
Rb(ecp-28), Cs(ecp-46): T. Leininger, A. Nicklass, W. Kuechle, H. Stoll, M. Dolg, A. Bergner, Chem. Phys. Lett., 1996, 255, 274-280.
Sr(ecp-28), Ba(ecp-46): M. Kaupp, P. V. Schleyer, H. Stoll and H. Preuss, J. Chem. Phys., 1991, 94, 1360-1366.
La(ecp-46): M. Dolg, H. Stoll, A. Savin, H. Preuss, Theor. Chim. Acta, 1989, 75, 173-194.
Lu(ecp-28): X. Cao, M. Dolg, J. Chem. Phys., 2001, 115, 7348-7355.

ECP parameters for Zr [Def2-ECP] have been obtained from:
TURBOMOLE (7.0.2)

================================================================================
                                        WARNINGS
                       Please study these warnings very carefully!
================================================================================


WARNING: your system is open-shell and RHF/RKS was chosen
  ===> : WILL SWITCH to UHF/UKS


INFO   : the flag for use of LIBINT has been found!

================================================================================
                                       INPUT FILE
================================================================================
NAME = Zr.in
|  1> #
|  2> # Zr TPSS-D3BJ/Def2-TZVPPD
|  3> #
|  4> ! tpss d3bj def2-tzvppd def2/j grid4 nofinalgrid
|  5> 
|  6> *xyz 0 3
|  7> Zr         0.00000        0.00000        0.00000
|  8> *
|  9> 
| 10> %maxcore 5000
| 11> 
| 12> %pal
| 13> nprocs = 28
| 14> end
| 15> 
| 16> 
| 17>                          ****END OF INPUT****
================================================================================

                       ****************************
                       * Single Point Calculation *
                       ****************************

---------------------------------
CARTESIAN COORDINATES (ANGSTROEM)
---------------------------------
  Zr     0.000000    0.000000    0.000000

----------------------------
CARTESIAN COORDINATES (A.U.)
----------------------------
  NO LB      ZA    FRAG     MASS         X           Y           Z
   0 Zr   12.0000*   0    91.220    0.000000    0.000000    0.000000
* core charge reduced due to ECP

--------------------------------
INTERNAL COORDINATES (ANGSTROEM)
--------------------------------
 Zr     0   0   0     0.000000000000     0.00000000     0.00000000

---------------------------
INTERNAL COORDINATES (A.U.)
---------------------------
 Zr     0   0   0     0.000000000000     0.00000000     0.00000000

---------------------
BASIS SET INFORMATION
---------------------
There are 1 groups of distinct atoms

 Group   1 Type Zr  : 7s7p5d2f1g contracted to 6s4p3d2f1g pattern {211111/4111/311/11/1}

Atom   0Zr   basis set group =>   1
---------------------------------
AUXILIARY/J BASIS SET INFORMATION
---------------------------------
There are 1 groups of distinct atoms

 Group   1 Type Zr  : 11s5p5d3f3g contracted to 8s5p5d2f3g pattern {41111111/11111/11111/21/111}

Atom   0Zr   basis set group =>   1
-------------------------
ECP PARAMETER INFORMATION
-------------------------

 Group 1, Type Zr ECP Def2-ECP (replacing 28 core electrons, lmax=3)

Atom   0Zr   ECP group =>   1



           ************************************************************
           *        Program running with 28 parallel MPI-processes    *
           *              working on a common directory               *
           ************************************************************
------------------------------------------------------------------------------
                           ORCA GTO INTEGRAL CALCULATION
                           -- RI-GTO INTEGRALS CHOSEN --
------------------------------------------------------------------------------

                         BASIS SET STATISTICS AND STARTUP INFO

Gaussian basis set:
 # of primitive gaussian shells          ...   22
 # of primitive gaussian functions       ...   76
 # of contracted shells                  ...   16
 # of contracted basis functions         ...   56
 Highest angular momentum                ...    4
 Maximum contraction depth               ...    4
Auxiliary gaussian basis set:
 # of primitive gaussian shells          ...   27
 # of primitive gaussian functions       ...   99
 # of contracted shells                  ...   23
 # of contracted aux-basis functions     ...   89
 Highest angular momentum                ...    4
 Maximum contraction depth               ...    4
Ratio of auxiliary to basis functions    ...  1.59
Integral package used                  ... LIBINT
 One Electron integrals                  
   ECP integrals                         ... done
 Ordering auxiliary basis shells         ... done
 Integral threshhold             Thresh  ...  1.000e-10
 Primitive cut-off               TCut    ...  1.000e-11
 Pre-screening matrix                    ... done
 Shell pair data                         ... 
 Ordering of the shell pairs             ... done (   0.000 sec) 136 of 136 pairs
 Determination of significant pairs      ... done (   0.000 sec)
 Creation of shell pair data             ... done (   0.000 sec)
 Storage of shell pair data              ... done (   0.035 sec)
 Shell pair data done in (   0.035 sec)
 Computing two index integrals           ... done
 Cholesky decomposition of the V-matrix  ... done


Timings:
 Total evaluation time                   ...   0.543 sec (  0.009 min)
 One electron matrix time                ...   0.259 sec (  0.004 min) = 47.6%
 Schwartz matrix evaluation time         ...   0.116 sec (  0.002 min) = 21.3%
 Two index repulsion integral time       ...   0.024 sec (  0.000 min) =  4.4%
 Cholesky decomposition of V             ...   0.040 sec (  0.001 min) =  7.5%
 Three index repulsion integral time     ...   0.000 sec (  0.000 min) =  0.0%



           ************************************************************
           *        Program running with 28 parallel MPI-processes    *
           *              working on a common directory               *
           ************************************************************
-------------------------------------------------------------------------------
                                 ORCA SCF
-------------------------------------------------------------------------------

------------
SCF SETTINGS
------------
Hamiltonian:
 Density Functional     Method          .... DFT(GTOs)
 Exchange Functional    Exchange        .... TPSS
 Correlation Functional Correlation     .... TPSS
 LDA part of GGA corr.  LDAOpt          .... PW91-LDA
 Gradients option       PostSCFGGA      .... off
   Density functional embedding theory  .... OFF
   NL short-range parameter             ....  5.000000
 RI-approximation to the Coulomb term is turned on
   Number of auxiliary basis functions  .... 89


General Settings:
 Integral files         IntName         .... Zr
 Hartree-Fock type      HFTyp           .... UHF
 Total Charge           Charge          ....    0
 Multiplicity           Mult            ....    3
 Number of Electrons    NEL             ....   12
 Basis Dimension        Dim             ....   56
 Nuclear Repulsion      ENuc            ....      0.0000000000 Eh

Convergence Acceleration:
 DIIS                   CNVDIIS         .... on
   Start iteration      DIISMaxIt       ....    12
   Startup error        DIISStart       ....  0.200000
   # of expansion vecs  DIISMaxEq       ....     5
   Bias factor          DIISBfac        ....   1.050
   Max. coefficient     DIISMaxC        ....  10.000
 Newton-Raphson         CNVNR           .... off
 SOSCF                  CNVSOSCF        .... off
 Level Shifting         CNVShift        .... on
   Level shift para.    LevelShift      ....    0.2500
   Turn off err/grad.   ShiftErr        ....    0.0010
 Zerner damping         CNVZerner       .... off
 Static damping         CNVDamp         .... on
   Fraction old density DampFac         ....    0.7000
   Max. Damping (<1)    DampMax         ....    0.9800
   Min. Damping (>=0)   DampMin         ....    0.0000
   Turn off err/grad.   DampErr         ....    0.1000
 Fernandez-Rico         CNVRico         .... off

SCF Procedure:
 Maximum # iterations   MaxIter         ....   125
 SCF integral mode      SCFMode         .... Direct
   Integral package                     .... LIBINT
 Reset frequency        DirectResetFreq ....    20
 Integral Threshold     Thresh          ....  1.000e-10 Eh
 Primitive CutOff       TCut            ....  1.000e-11 Eh

Convergence Tolerance:
 Convergence Check Mode ConvCheckMode   .... Total+1el-Energy
 Convergence forced     ConvForced      .... 0
 Energy Change          TolE            ....  1.000e-06 Eh
 1-El. energy change                    ....  1.000e-03 Eh
 DIIS Error             TolErr          ....  1.000e-06


Diagonalization of the overlap matrix:
Smallest eigenvalue                        ... 2.006e-02
Time for diagonalization                   ...    0.001 sec
Threshold for overlap eigenvalues          ... 1.000e-08
Number of eigenvalues below threshold      ... 0
Time for construction of square roots      ...    0.068 sec
Total time needed                          ...    0.069 sec

-------------------
DFT GRID GENERATION
-------------------

General Integration Accuracy     IntAcc      ...  4.670
Radial Grid Type                 RadialGrid  ... Gauss-Chebyshev
Angular Grid (max. acc.)         AngularGrid ... Lebedev-302
Angular grid pruning method      GridPruning ... 3 (G Style)
Weight generation scheme         WeightScheme... Becke
Basis function cutoff            BFCut       ...    1.0000e-10
Integration weight cutoff        WCut        ...    1.0000e-14
Grids for H and He will be reduced by one unit

# of grid points (after initial pruning)     ...  10682 (   0.0 sec)
# of grid points (after weights+screening)   ...  10682 (   0.0 sec)
Grid point division into batches done        ...    0.1 sec
Reduced shell lists constructed in    0.1 sec

Total number of grid points                  ...    10682
Total number of batches                      ...      167
Average number of points per batch           ...       63
Average number of grid points per atom       ...    10682
Average number of shells per batch           ...     1.71 (10.71%)
Average number of basis functions per batch  ...     3.43 ( 6.12%)
Average number of large shells per batch     ...     1.71 (100.00%)
Average number of large basis fcns per batch ...     3.43 (100.00%)
Maximum spatial batch extension              ...  28.90, 28.90, 28.90 au
Average spatial batch extension              ...   0.91,  0.91,  0.88 au

Time for grid setup =    3.801 sec

------------------------------
INITIAL GUESS: MODEL POTENTIAL
------------------------------
Loading Hartree-Fock densities                     ... done
  calling /mnt/storage/software/apps/orca-4.2.0/orca_4_2_0_linux_x86-64_openmpi314/orca Zr_atom40.inp > Zr_atom40.out in order to generate an atomic fitting density for atom 0 (Zr with ECP) on-the-fly... 
    atom 0 (Zr), assumed electronic state with S=3: 1s2 2s2 2p6 3s2 3p6 4s2 3d10 4p6 4d2 5s2           ... done
Calculating cut-offs                               ... done
Setting up the integral package                    ... done
Initializing the effective Hamiltonian             ... done
Starting the Coulomb interaction                   ... done (   0.0 sec)
Reading the grid                                   ... done
Mapping shells                                     ... done
Starting the XC term evaluation                    ... done (   0.0 sec)
  promolecular density results
     # of electrons  =     40.000376052
     EX              =   -110.030627997
     EC              =     -1.969897395
     EX+EC           =   -112.000525392
Transforming the Hamiltonian                       ... done (   0.1 sec)
Diagonalizing the Hamiltonian                      ... done (   0.0 sec)
Back transforming the eigenvectors                 ... done (   0.0 sec)
Now organizing SCF variables                       ... done
                      ------------------
                      INITIAL GUESS DONE (  29.6 sec)
                      ------------------
--------------
SCF ITERATIONS
--------------
ITER       Energy         Delta-E        Max-DP      RMS-DP      [F,P]     Damp
               ***  Starting incremental Fock matrix formation  ***
  0    -46.3005630969   0.000000000000 0.39004712  0.00890382  0.5045557 0.7000
  1    -46.5934110111  -0.292847914222 0.21133037  0.00502154  0.3120830 0.7000
                               ***Turning on DIIS***
  2    -46.6958895913  -0.102478580141 0.08061202  0.00272220  0.1912142 0.7000
  3    -46.7435362763  -0.047646685078 0.09578722  0.00323493  0.1220170 0.7000
  4    -46.7814346763  -0.037898399930 0.45027522  0.01181554  0.0850252 0.0000
  5    -46.8820777631  -0.100643086870 0.12436906  0.00267698  0.0116081 0.0000
  6    -46.8843676587  -0.002289895516 0.05682131  0.00119549  0.0044544 0.0000
  7    -46.8849763299  -0.000608671258 0.02814823  0.00061784  0.0030852 0.0000
  8    -46.8852799536  -0.000303623708 0.01376060  0.00035213  0.0027560 0.0000
  9    -46.8854910186  -0.000211064980 0.00661633  0.00022136  0.0023342 0.0000
 10    -46.8856483458  -0.000157327179 0.00478302  0.00018388  0.0019425 0.0000
 11    -46.8857834578  -0.000135111983 0.00420376  0.00013697  0.0015665 0.0000
 12    -46.8858841836  -0.000100725824 0.00383451  0.00015376  0.0012919 0.0000
 13    -46.8859809646  -0.000096781038 0.00337886  0.00012784  0.0010929 0.0000
 14    -46.8860588821  -0.000077917462 0.02235953  0.00083877  0.0008812 0.0000
 15    -46.8864462390  -0.000387356906 0.00042455  0.00001498  0.0010556 0.0000
 16    -46.8864495030  -0.000003264036 0.00262865  0.00010676  0.0008509 0.0000
 17    -46.8864980450  -0.000048541968 0.00224623  0.00008060  0.0007216 0.0000
 18    -46.8865326435  -0.000034598517 0.00217442  0.00008169  0.0007890 0.0000
 19    -46.8865681104  -0.000035466887 0.00862038  0.00037915  0.0008050 0.0000
               *** Restarting incremental Fock matrix formation ***
                                   *** Resetting DIIS ***
 20    -46.8867537409  -0.000185630532 0.01067953  0.00043240  0.0007635 0.0000
 21    -46.8869679642  -0.000214223282 0.00655240  0.00029482  0.0006338 0.0000
 22    -46.8871123063  -0.000144342044 0.00602786  0.00027034  0.0006848 0.0000
 23    -46.8872387996  -0.000126493296 0.00651349  0.00031428  0.0006144 0.0000
 24    -46.8873755262  -0.000136726668 0.01678516  0.00082851  0.0005983 0.0000
 25    -46.8876390523  -0.000263526067 0.00750800  0.00034056  0.0004836 0.0000
 26    -46.8876901358  -0.000051083501 0.00333569  0.00015671  0.0004223 0.0000
 27    -46.8876991381  -0.000009002318 0.00166664  0.00006546  0.0003003 0.0000
 28    -46.8877009549  -0.000001816751 0.00052883  0.00001944  0.0000610 0.0000
                 **** Energy Check signals convergence ****

               *****************************************************
               *                     SUCCESS                       *
               *           SCF CONVERGED AFTER  29 CYCLES          *
               *****************************************************


----------------
TOTAL SCF ENERGY
----------------

Total Energy       :          -46.88770106 Eh           -1275.87921 eV

Components:
Nuclear Repulsion  :            0.00000000 Eh               0.00000 eV
Electronic Energy  :          -46.88770106 Eh           -1275.87921 eV
One Electron Energy:          -78.00251315 Eh           -2122.55629 eV
Two Electron Energy:           31.11481209 Eh             846.67708 eV

Virial components:
Potential Energy   :          -62.21161308 Eh           -1692.86406 eV
Kinetic Energy     :           15.32391202 Eh             416.98485 eV
Virial Ratio       :            4.05977357


DFT components:
N(Alpha)           :        6.999999975537 electrons
N(Beta)            :        5.000000034509 electrons
N(Total)           :       12.000000010046 electrons
E(X)               :       -5.402445941869 Eh       
E(C)               :       -0.394436989095 Eh       
E(XC)              :       -5.796882930964 Eh       
DFET-embed. en.    :        0.000000000000 Eh       

---------------
SCF CONVERGENCE
---------------

  Last Energy change         ...   -1.0095e-07  Tolerance :   1.0000e-06
  Last MAX-Density change    ...    1.6798e-04  Tolerance :   1.0000e-05
  Last RMS-Density change    ...    1.0465e-05  Tolerance :   1.0000e-06
  Last DIIS Error            ...    2.9940e-05  Tolerance :   1.0000e-06

             **** THE GBW FILE WAS UPDATED (Zr.gbw) ****
             **** DENSITY FILE WAS UPDATED (Zr.scfp) ****
             **** ENERGY FILE WAS UPDATED (Zr.en.tmp) ****
----------------------
UHF SPIN CONTAMINATION
----------------------

Warning: in a DFT calculation there is little theoretical justification to 
         calculate <S**2> as in Hartree-Fock theory. We will do it anyways
         but you should keep in mind that the values have only limited relevance

Expectation value of <S**2>     :     2.431762
Ideal value S*(S+1) for S=1.0   :     2.000000
Deviation                       :     0.431762

             **** THE GBW FILE WAS UPDATED (Zr.gbw) ****
             **** DENSITY FILE WAS UPDATED (Zr.scfp) ****
----------------
ORBITAL ENERGIES
----------------
                 SPIN UP ORBITALS
  NO   OCC          E(Eh)            E(eV) 
   0   1.0000      -2.044283       -55.6278 
   1   1.0000      -1.208609       -32.8879 
   2   1.0000      -1.208541       -32.8861 
   3   1.0000      -1.206837       -32.8397 
   4   1.0000      -0.166782        -4.5384 
   5   1.0000      -0.147574        -4.0157 
   6   1.0000      -0.147462        -4.0126 
   7   0.0000      -0.104732        -2.8499 
   8   0.0000      -0.104660        -2.8479 
   9   0.0000      -0.098756        -2.6873 
  10   0.0000      -0.055583        -1.5125 
  11   0.0000      -0.055566        -1.5120 
  12   0.0000      -0.040827        -1.1110 
  13   0.0000       0.051643         1.4053 
  14   0.0000       0.091587         2.4922 
  15   0.0000       0.091601         2.4926 
  16   0.0000       0.104087         2.8324 
  17   0.0000       0.122417         3.3311 
  18   0.0000       0.122464         3.3324 
  19   0.0000       0.135354         3.6832 
  20   0.0000       0.135391         3.6842 
  21   0.0000       0.137989         3.7549 
  22   0.0000       0.412040        11.2122 
  23   0.0000       0.415516        11.3068 
  24   0.0000       0.420011        11.4291 
  25   0.0000       0.420096        11.4314 
  26   0.0000       0.439572        11.9614 
  27   0.0000       0.439706        11.9650 
  28   0.0000       0.453140        12.3306 
  29   0.0000       0.757362        20.6089 
  30   0.0000       0.757433        20.6108 
  31   0.0000       0.784106        21.3366 
  32   0.0000       0.784160        21.3381 
  33   0.0000       0.786484        21.4013 
  34   0.0000       0.905032        24.6272 
  35   0.0000       0.905037        24.6273 
  36   0.0000       0.918827        25.0026 
  37   0.0000       1.028370        27.9834 
  38   0.0000       1.106430        30.1075 
  39   0.0000       1.106464        30.1084 
  40   0.0000       1.107749        30.1434 
  41   0.0000       1.113271        30.2936 
  42   0.0000       1.119151        30.4536 
  43   0.0000       1.119170        30.4542 
  44   0.0000       1.134364        30.8676 
  45   0.0000       1.134475        30.8706 
  46   0.0000       1.143185        31.1076 
  47   0.0000       1.499423        40.8014 
  48   0.0000       1.503642        40.9162 
  49   0.0000       1.503734        40.9187 
  50   0.0000       1.507842        41.0305 
  51   0.0000       1.517170        41.2843 
  52   0.0000       1.517223        41.2857 
  53   0.0000       1.531029        41.6614 
  54   0.0000      19.755093       537.5634 
  55   0.0000      72.324550      1968.0511 

                 SPIN DOWN ORBITALS
  NO   OCC          E(Eh)            E(eV) 
   0   1.0000      -2.014762       -54.8245 
   1   1.0000      -1.181191       -32.1418 
   2   1.0000      -1.165628       -31.7183 
   3   1.0000      -1.165486       -31.7145 
   4   1.0000      -0.145090        -3.9481 
   5   0.0000      -0.093438        -2.5426 
   6   0.0000      -0.085362        -2.3228 
   7   0.0000      -0.085196        -2.3183 
   8   0.0000      -0.063410        -1.7255 
   9   0.0000      -0.063383        -1.7247 
  10   0.0000      -0.050334        -1.3697 
  11   0.0000      -0.026086        -0.7098 
  12   0.0000      -0.025978        -0.7069 
  13   0.0000       0.064757         1.7621 
  14   0.0000       0.097440         2.6515 
  15   0.0000       0.117186         3.1888 
  16   0.0000       0.117288         3.1916 
  17   0.0000       0.139263         3.7895 
  18   0.0000       0.143683         3.9098 
  19   0.0000       0.143790         3.9127 
  20   0.0000       0.158693         4.3182 
  21   0.0000       0.158734         4.3194 
  22   0.0000       0.445367        12.1190 
  23   0.0000       0.447919        12.1885 
  24   0.0000       0.448072        12.1927 
  25   0.0000       0.466034        12.6814 
  26   0.0000       0.466054        12.6820 
  27   0.0000       0.476599        12.9689 
  28   0.0000       0.479502        13.0479 
  29   0.0000       0.788006        21.4427 
  30   0.0000       0.800278        21.7767 
  31   0.0000       0.800407        21.7802 
  32   0.0000       0.816110        22.2075 
  33   0.0000       0.816123        22.2078 
  34   0.0000       0.928105        25.2550 
  35   0.0000       0.949085        25.8259 
  36   0.0000       0.949204        25.8292 
  37   0.0000       1.064904        28.9775 
  38   0.0000       1.140088        31.0234 
  39   0.0000       1.143403        31.1136 
  40   0.0000       1.143519        31.1167 
  41   0.0000       1.150874        31.3169 
  42   0.0000       1.150887        31.3172 
  43   0.0000       1.161941        31.6180 
  44   0.0000       1.164699        31.6931 
  45   0.0000       1.164941        31.6996 
  46   0.0000       1.164952        31.7000 
  47   0.0000       1.532466        41.7005 
  48   0.0000       1.542371        41.9700 
  49   0.0000       1.542484        41.9731 
  50   0.0000       1.557437        42.3800 
  51   0.0000       1.557461        42.3807 
  52   0.0000       1.558885        42.4194 
  53   0.0000       1.566485        42.6262 
  54   0.0000      19.778985       538.2135 
  55   0.0000      72.337880      1968.4138 

                    ********************************
                    * MULLIKEN POPULATION ANALYSIS *
                    ********************************

--------------------------------------------
MULLIKEN ATOMIC CHARGES AND SPIN POPULATIONS
--------------------------------------------
   0 Zr:   -0.000000    2.000000
Sum of atomic charges         :   -0.0000000
Sum of atomic spin populations:    2.0000000

-----------------------------------------------------
MULLIKEN REDUCED ORBITAL CHARGES AND SPIN POPULATIONS
-----------------------------------------------------
CHARGE
  0 Zrs       :     3.736059  s :     3.736059
      pz      :     1.999840  p :     5.999459
      px      :     1.999812
      py      :     1.999807
      dz2     :     0.701412  d :     2.263096
      dxz     :     0.560940
      dyz     :     0.088717
      dx2y2   :     0.592651
      dxy     :     0.319377
      f0      :     0.000119  f :     0.000541
      f+1     :     0.000059
      f-1     :     0.000058
      f+2     :     0.000088
      f-2     :     0.000038
      f+3     :     0.000129
      f-3     :     0.000051
      g0      :     0.000100  g :     0.000845
      g+1     :     0.000178
      g-1     :     0.000039
      g+2     :     0.000075
      g-2     :     0.000049
      g+3     :     0.000131
      g-3     :     0.000044
      g+4     :     0.000084
      g-4     :     0.000146

SPIN
  0 Zrs       :     0.146476  s :     0.146476
      pz      :    -0.000059  p :    -0.000141
      px      :    -0.000043
      py      :    -0.000039
      dz2     :     0.667776  d :     1.852977
      dxz     :     0.490569
      dyz     :     0.008638
      dx2y2   :     0.591888
      dxy     :     0.094106
      f0      :     0.000029  f :     0.000141
      f+1     :     0.000033
      f-1     :     0.000028
      f+2     :     0.000039
      f-2     :    -0.000021
      f+3     :     0.000017
      f-3     :     0.000017
      g0      :     0.000093  g :     0.000547
      g+1     :     0.000101
      g-1     :     0.000013
      g+2     :     0.000069
      g-2     :     0.000049
      g+3     :     0.000097
      g-3     :    -0.000003
      g+4     :    -0.000008
      g-4     :     0.000136


                     *******************************
                     * LOEWDIN POPULATION ANALYSIS *
                     *******************************

-------------------------------------------
LOEWDIN ATOMIC CHARGES AND SPIN POPULATIONS
-------------------------------------------
   0 Zr:   -0.000000    2.000000

----------------------------------------------------
LOEWDIN REDUCED ORBITAL CHARGES AND SPIN POPULATIONS
----------------------------------------------------
CHARGE
  0 Zrs       :     3.736059  s :     3.736059
      pz      :     1.999840  p :     5.999459
      px      :     1.999812
      py      :     1.999807
      dz2     :     0.701412  d :     2.263096
      dxz     :     0.560940
      dyz     :     0.088717
      dx2y2   :     0.592651
      dxy     :     0.319377
      f0      :     0.000119  f :     0.000541
      f+1     :     0.000059
      f-1     :     0.000058
      f+2     :     0.000088
      f-2     :     0.000038
      f+3     :     0.000129
      f-3     :     0.000051
      g0      :     0.000100  g :     0.000845
      g+1     :     0.000178
      g-1     :     0.000039
      g+2     :     0.000075
      g-2     :     0.000049
      g+3     :     0.000131
      g-3     :     0.000044
      g+4     :     0.000084
      g-4     :     0.000146

SPIN
  0 Zrs       :     0.146476  s :     0.146476
      pz      :    -0.000059  p :    -0.000141
      px      :    -0.000043
      py      :    -0.000039
      dz2     :     0.667776  d :     1.852977
      dxz     :     0.490569
      dyz     :     0.008638
      dx2y2   :     0.591888
      dxy     :     0.094106
      f0      :     0.000029  f :     0.000141
      f+1     :     0.000033
      f-1     :     0.000028
      f+2     :     0.000039
      f-2     :    -0.000021
      f+3     :     0.000017
      f-3     :     0.000017
      g0      :     0.000093  g :     0.000547
      g+1     :     0.000101
      g-1     :     0.000013
      g+2     :     0.000069
      g-2     :     0.000049
      g+3     :     0.000097
      g-3     :    -0.000003
      g+4     :    -0.000008
      g-4     :     0.000136


                      *****************************
                      * MAYER POPULATION ANALYSIS *
                      *****************************

  NA   - Mulliken gross atomic population
  ZA   - Total nuclear charge
  QA   - Mulliken gross atomic charge
  VA   - Mayer's total valence
  BVA  - Mayer's bonded valence
  FA   - Mayer's free valence

  ATOM       NA         ZA         QA         VA         BVA        FA
  0 Zr    12.0000    12.0000    -0.0000     2.8635     0.0000     2.8635

  Mayer bond orders larger than 0.100000


-------
TIMINGS
-------

Total SCF time: 0 days 0 hours 5 min 17 sec 

Total time                  ....     317.215 sec
Sum of individual times     ....     316.002 sec  ( 99.6%)

Fock matrix formation       ....     282.302 sec  ( 89.0%)
  Split-RI-J                ....       3.100 sec  (  1.1% of F)
  XC integration            ....     273.901 sec  ( 97.0% of F)
    Basis function eval.    ....       0.016 sec  (  0.0% of XC)
    Density eval.           ....       0.049 sec  (  0.0% of XC)
    XC-Functional eval.     ....       0.045 sec  (  0.0% of XC)
    XC-Potential eval.      ....       0.066 sec  (  0.0% of XC)
Diagonalization             ....       3.522 sec  (  1.1%)
Density matrix formation    ....       0.010 sec  (  0.0%)
Population analysis         ....       0.238 sec  (  0.1%)
Initial guess               ....      25.848 sec  (  8.1%)
Orbital Transformation      ....       0.000 sec  (  0.0%)
Orbital Orthonormalization  ....       0.000 sec  (  0.0%)
DIIS solution               ....       0.281 sec  (  0.1%)
Grid generation             ....       3.801 sec  (  1.2%)


-------------------------------------------------------------------------------
                          DFT DISPERSION CORRECTION                            
                                                                               
                              DFTD3 V3.1  Rev 1                                
                          USING Becke-Johnson damping                          
-------------------------------------------------------------------------------
The TPSS functional is recognized
Active option DFTDOPT                   ...         4   

molecular C6(AA) [au] = 1822.717581 


            DFT-D V3
 parameters
 s6 scaling factor         :     1.0000 
 a1 scaling factor         :     0.4535 
 s8 scaling factor         :     1.9435 
 a2 scaling factor         :     4.4752 
 ad hoc parameters k1-k3   :    16.0000     1.3333    -4.0000 

 Edisp/kcal,au: -0.000000000000  -0.000000000000 
 E6   /kcal   :  -0.000000000 
 E8   /kcal   :  -0.000000000 
 % E8         :          -nan 

-------------------------   ----------------
Dispersion correction            0.000000000
-------------------------   ----------------


-------------------------   --------------------
FINAL SINGLE POINT ENERGY       -46.887701055809
-------------------------   --------------------


                            ***************************************
                            *     ORCA property calculations      *
                            ***************************************

                                    ---------------------
                                    Active property flags
                                    ---------------------
   (+) Dipole Moment


------------------------------------------------------------------------------
                       ORCA ELECTRIC PROPERTIES CALCULATION
------------------------------------------------------------------------------

Dipole Moment Calculation                       ... on
Quadrupole Moment Calculation                   ... off
Polarizability Calculation                      ... off
GBWName                                         ... Zr.gbw
Electron density file                           ... Zr.scfp
The origin for moment calculation is the CENTER OF MASS  = ( 0.000000,  0.000000  0.000000)

-------------
DIPOLE MOMENT
-------------
                                X             Y             Z
Electronic contribution:     -0.00000      -0.00000       0.00000
Nuclear contribution   :      0.00000       0.00000       0.00000
                        -----------------------------------------
Total Dipole Moment    :     -0.00000      -0.00000       0.00000
                        -----------------------------------------
Magnitude (a.u.)       :      0.00000
Magnitude (Debye)      :      0.00000



--------------------
Rotational spectrum 
--------------------
 
Rotational constants in cm-1:     0.000000     0.000000     0.000000 
Rotational constants in MHz :     0.000000     0.000000     0.000000 

 Dipole components along the rotational axes: 
x,y,z [a.u.] :    -0.000000    -0.000000     0.000000 
x,y,z [Debye]:    -0.000001    -0.000000     0.000001 

 

Timings for individual modules:

Sum of individual times         ...      324.026 sec (=   5.400 min)
GTO integral calculation        ...        6.179 sec (=   0.103 min)   1.9 %
SCF iterations                  ...      317.847 sec (=   5.297 min)  98.1 %
                             ****ORCA TERMINATED NORMALLY****
TOTAL RUN TIME: 0 days 0 hours 5 minutes 27 seconds 9 msec
