
    -----------------------------------------------------------------------
          Psi4: An Open-Source Ab Initio Electronic Structure Package
                               Psi4 1.4.1 release

                         Git: Rev {HEAD} cd00f19 


    D. G. A. Smith, L. A. Burns, A. C. Simmonett, R. M. Parrish,
    M. C. Schieber, R. Galvelis, P. Kraus, H. Kruse, R. Di Remigio,
    A. Alenaizan, A. M. James, S. Lehtola, J. P. Misiewicz, M. Scheurer,
    R. A. Shaw, J. B. Schriber, Y. Xie, Z. L. Glick, D. A. Sirianni,
    J. S. O'Brien, J. M. Waldrop, A. Kumar, E. G. Hohenstein,
    B. P. Pritchard, B. R. Brooks, H. F. Schaefer III, A. Yu. Sokolov,
    K. Patkowski, A. E. DePrince III, U. Bozkaya, R. A. King,
    F. A. Evangelista, J. M. Turney, T. D. Crawford, C. D. Sherrill,
    J. Chem. Phys. 152(18) 184108 (2020). https://doi.org/10.1063/5.0006002

                            Additional Code Authors
    E. T. Seidl, C. L. Janssen, E. F. Valeev, M. L. Leininger,
    J. F. Gonthier, R. M. Richard, H. R. McAlexander, M. Saitow, X. Wang,
    P. Verma, and M. H. Lechner

             Previous Authors, Complete List of Code Contributors,
                       and Citations for Specific Modules
    https://github.com/psi4/psi4/blob/master/codemeta.json
    https://github.com/psi4/psi4/graphs/contributors
    http://psicode.org/psi4manual/master/introduction.html#citing-psifour

    -----------------------------------------------------------------------


    Psi4 started on: Sunday, 07 November 2021 05:05AM

    Process ID: 7832
    Host:       compute476.bc4.acrc.priv
    PSIDATADIR: /mnt/storage/home/zw18965/.conda/envs/p4env/share/psi4
    Memory:     500.0 MiB
    Threads:    28
    
  ==> Input File <==

--------------------------------------------------------------------------
memory 120 GB

molecule {
0 2
B          0.00000        0.00000        0.00000
 }

set reference uks
set dynamic_level 1
set basis Def2-TZVPPD

energy("MN15-D3BJ")
--------------------------------------------------------------------------

  Memory set to 111.759 GiB by Python driver.

Scratch directory: /tmp/

*** tstart() called on compute476.bc4.acrc.priv
*** at Sun Nov  7 05:05:21 2021

   => Loading Basis Set <=

    Name: DEF2-TZVPPD
    Role: ORBITAL
    Keyword: BASIS
    atoms 1 entry B          line   107 file /mnt/storage/home/zw18965/.conda/envs/p4env/share/psi4/basis/def2-tzvppd.gbs 

   => MN15-D3(BJ): Empirical Dispersion <=

    Grimme's -D3 (BJ-damping) Dispersion Correction
    Grimme S.; Ehrlich S.; Goerigk L. (2011), J. Comput. Chem., 32: 1456
    Parametrisation from:    L. Goerigk, A. Hansen, C. Bauer, S. Ehrlich, A. Najibi, S. Grimme, Phys. Chem. Chem. Phys. 19, 32184-32215, 2017

        s6 =       1.000000
        s8 =       2.097100
        a1 =       0.786200
        a2 =       7.592300


         ---------------------------------------------------------
                                   SCF
               by Justin Turney, Rob Parrish, Andy Simmonett
                          and Daniel G. A. Smith
                              UKS Reference
                       28 Threads, 114440 MiB Core
         ---------------------------------------------------------

  ==> Geometry <==

    Molecular point group: d2h
    Geometry (in Angstrom), charge = 0, multiplicity = 2:

       Center              X                  Y                   Z               Mass       
    ------------   -----------------  -----------------  -----------------  -----------------
         B            0.000000000000     0.000000000000     0.000000000000    11.009305360000

  Running in d2h symmetry.

  Rotational constants: A = ************  B = ************  C = ************ [cm^-1]
  Rotational constants: A = ************  B = ************  C = ************ [MHz]
  Nuclear repulsion =    0.000000000000000

  Charge       = 0
  Multiplicity = 2
  Electrons    = 5
  Nalpha       = 3
  Nbeta        = 2

  ==> Algorithm <==

  SCF Algorithm Type is DF.
  DIIS enabled.
  MOM disabled.
  Fractional occupation disabled.
  Guess Type is CORE.
  Energy threshold   = 1.00e-06
  Density threshold  = 1.00e-06
  Integral threshold = 1.00e-12

  ==> Primary Basis <==

  Basis Set: DEF2-TZVPPD
    Blend: DEF2-TZVPPD
    Number of shells: 13
    Number of basis functions: 37
    Number of Cartesian functions: 43
    Spherical Harmonics?: true
    Max angular momentum: 3

  ==> DFT Potential <==

   => Composite Functional: MN15-D3BJ <= 

   MN15 Hybrid Meta-GGA Exchange-Correlation Functional

    H. S. Yu, X. He, S. L. Li, and D. G. Truhlar, Chem. Sci. 7, 5032-5051, 2016


    Deriv               =              1
    GGA                 =           TRUE
    Meta                =           TRUE

    Exchange Hybrid     =           TRUE
    MP2 Hybrid          =          FALSE

   => Exchange Functionals <=

    1.0000   XC_HYB_MGGA_X_MN15

   => Exact (HF) Exchange <=

    0.4400               HF 

   => Correlation Functionals <=

    1.0000   XC_MGGA_C_MN15

   => LibXC Density Thresholds  <==

    XC_MGGA_C_MN15:  1.00E-15 
    XC_HYB_MGGA_X_MN15:  1.00E-15 

   => Molecular Quadrature <=

    Radial Scheme          =       TREUTLER
    Pruning Scheme         =           NONE
    Nuclear Scheme         =       TREUTLER

    BS radius alpha        =              1
    Pruning alpha          =              1
    Radial Points          =             75
    Spherical Points       =            302
    Total Points           =          22348
    Total Blocks           =            236
    Max Points             =            252
    Max Functions          =             37
    Weights Tolerance      =       1.00E-15

   => Loading Basis Set <=

    Name: (DEF2-TZVPPD AUX)
    Role: JKFIT
    Keyword: DF_BASIS_SCF
    atoms 1 entry B          line   138 file /mnt/storage/home/zw18965/.conda/envs/p4env/share/psi4/basis/def2-universal-jkfit.gbs 

  ==> Integral Setup <==

  DFHelper Memory: AOs need 0.001 GiB; user supplied 83.761 GiB. Using in-core AOs.

  ==> MemDFJK: Density-Fitted J/K Matrices <==

    J tasked:                   Yes
    K tasked:                   Yes
    wK tasked:                   No
    OpenMP threads:              28
    Memory [MiB]:             85771
    Algorithm:                 Core
    Schwarz Cutoff:           1E-12
    Mask sparsity (%):       0.0000
    Fitting Condition:        1E-10

   => Auxiliary Basis Set <=

  Basis Set: (DEF2-TZVPPD AUX)
    Blend: DEF2-UNIVERSAL-JKFIT
    Number of shells: 25
    Number of basis functions: 75
    Number of Cartesian functions: 89
    Spherical Harmonics?: true
    Max angular momentum: 4

  Cached 100.0% of DFT collocation blocks in 0.058 [GiB].

  Minimum eigenvalue in the overlap matrix is 7.9670122663E-03.
  Reciprocal condition number of the overlap matrix is 2.3780472251E-03.
    Using symmetric orthogonalization.

  ==> Pre-Iterations <==

  SCF Guess: Core (One-Electron) Hamiltonian.

   -------------------------------------------------------
    Irrep   Nso     Nmo     Nalpha   Nbeta   Ndocc  Nsocc
   -------------------------------------------------------
     Ag        12      12       2       2       2       0
     B1g        3       3       0       0       0       0
     B2g        3       3       0       0       0       0
     B3g        3       3       0       0       0       0
     Au         1       1       0       0       0       0
     B1u        5       5       0       0       0       0
     B2u        5       5       1       0       0       1
     B3u        5       5       0       0       0       0
   -------------------------------------------------------
    Total      37      37       3       2       2       1
   -------------------------------------------------------

  ==> Iterations <==

                           Total Energy        Delta E     RMS |[F,P]|

    Occupation by irrep:
             Ag   B1g   B2g   B3g    Au   B1u   B2u   B3u 
    DOCC [     2,    0,    0,    0,    0,    0,    0,    0 ]
    SOCC [     1,    0,    0,    0,    0,    0,    0,    0 ]

   @DF-UKS iter   1:   -23.49868595810239   -2.34987e+01   1.39152e-01 DIIS
    Occupation by irrep:
             Ag   B1g   B2g   B3g    Au   B1u   B2u   B3u 
    DOCC [     2,    0,    0,    0,    0,    0,    0,    0 ]
    SOCC [     0,    0,    0,    0,    0,    0,    1,    0 ]

   @DF-UKS iter   2:   -23.62224240640376   -1.23556e-01   3.91225e-02 DIIS
   @DF-UKS iter   3:   -23.65282447971325   -3.05821e-02   2.87852e-02 DIIS
   @DF-UKS iter   4:   -24.19264904269988   -5.39825e-01   3.09115e-02 DIIS
   @DF-UKS iter   5:   -24.45410631299612   -2.61457e-01   2.89643e-02 DIIS
   @DF-UKS iter   6:   -24.27805368032928    1.76053e-01   3.39318e-02 DIIS
   @DF-UKS iter   7:   -23.58911568147932    6.88938e-01   4.64391e-02 DIIS
   @DF-UKS iter   8:   -23.67460668571559   -8.54910e-02   5.25792e-02 DIIS
   @DF-UKS iter   9:   -23.87565624994618   -2.01050e-01   4.11112e-02 DIIS
   @DF-UKS iter  10:   -24.19928006977617   -3.23624e-01   4.36609e-02 DIIS
   @DF-UKS iter  11:   -24.29656695887089   -9.72869e-02   4.22045e-02 DIIS
   @DF-UKS iter  12:   -24.22187569631320    7.46913e-02   4.54216e-02 DIIS
   @DF-UKS iter  13:   -24.14240784650610    7.94678e-02   4.85800e-02 DIIS
   @DF-UKS iter  14:   -24.27578121515657   -1.33373e-01   3.73021e-02 DIIS
   @DF-UKS iter  15:   -24.35390131761910   -7.81201e-02   3.70345e-02 DIIS
   @DF-UKS iter  16:   -24.43489530905345   -8.09940e-02   2.91136e-02 DIIS
   @DF-UKS iter  17:   -24.46017265704953   -2.52773e-02   2.82498e-02 DIIS
   @DF-UKS iter  18:   -24.38244922816179    7.77234e-02   1.89653e-02 DIIS
   @DF-UKS iter  19:   -24.60268696739560   -2.20238e-01   9.26153e-03 DIIS
   @DF-UKS iter  20:   -24.62365162987560   -2.09647e-02   4.28612e-03 DIIS
   @DF-UKS iter  21:   -24.62492490867032   -1.27328e-03   4.20254e-03 DIIS
   @DF-UKS iter  22:   -24.62488807227417    3.68364e-05   4.47506e-03 DIIS
   @DF-UKS iter  23:   -24.62370390570333    1.18417e-03   5.20122e-03 DIIS
   @DF-UKS iter  24:   -24.62699080973936   -3.28690e-03   1.57971e-03 DIIS
   @DF-UKS iter  25:   -24.62745107022111   -4.60260e-04   3.09956e-04 DIIS
   @DF-UKS iter  26:   -24.62746944006255   -1.83698e-05   5.32653e-05 DIIS
   @DF-UKS iter  27:   -24.62747024243629   -8.02374e-07   6.04911e-06 DIIS
   @DF-UKS iter  28:   -24.62747025216030   -9.72401e-09   6.46081e-07 DIIS
  Energy and wave function converged.


  ==> Post-Iterations <==

   Electrons on quadrature grid:
      Nalpha   =    3.0000000000 ; deviation = -1.822e-11
      Nbeta    =    2.0000000000 ; deviation = -1.829e-11
      Ntotal   =    5.0000000000 ; deviation = -3.651e-11 

   @Spin Contamination Metric:   1.327579501E-03
   @S^2 Expected:                7.500000000E-01
   @S^2 Observed:                7.513275795E-01
   @S   Expected:                5.000000000E-01
   @S   Observed:                5.000000000E-01

    Orbital Energies [Eh]
    ---------------------

    Alpha Occupied:                                                       

       1Ag    -6.796973     2Ag    -0.422346     1B2u   -0.204400  

    Alpha Virtual:                                                        

       1B3u   -0.066820     1B1u   -0.066820     3Ag     0.048933  
       1B1g    0.157452     1B3g    0.157452     2B2u    0.161947  
       4Ag     0.164605     1B2g    0.175778     5Ag     0.175778  
       2B3u    0.195522     2B1u    0.195522     6Ag     0.244647  
       2B3g    0.551214     2B1g    0.551214     7Ag     0.555933  
       2B2g    0.560249     8Ag     0.560250     3B2u    0.844831  
       9Ag     0.892903     3B3u    0.907159     3B1u    0.907159  
       4B2u    1.629583     4B3u    1.637952     4B1u    1.637952  
       1Au     1.655290     5B2u    1.655290     5B1u    1.702869  
       5B3u    1.702869     3B1g    1.764821     3B3g    1.764821  
      10Ag     1.794361    11Ag     1.844003     3B2g    1.844003  
      12Ag    12.933690  

    Beta Occupied:                                                        

       1Ag    -6.790212     2Ag    -0.378831  

    Beta Virtual:                                                         

       1B1u   -0.054569     1B3u   -0.054569     1B2u   -0.037064  
       3Ag     0.061589     4Ag     0.174489     1B2g    0.174492  
       1B3g    0.189652     1B1g    0.189652     5Ag     0.191789  
       2B3u    0.203607     2B1u    0.203607     2B2u    0.228213  
       6Ag     0.251479     7Ag     0.550508     2B2g    0.550509  
       2B1g    0.585699     2B3g    0.585699     8Ag     0.590208  
       3B3u    0.820170     3B1u    0.820170     9Ag     0.863773  
       3B2u    0.935994     4B1u    1.548884     4B3u    1.548884  
       4B2u    1.649713     1Au     1.649713    10Ag     1.684876  
       3B2g    1.684876     5B1u    1.693418     5B3u    1.693418  
       5B2u    1.715060     3B1g    1.792499     3B3g    1.792499  
      11Ag     1.819566    12Ag    12.975330  

    Final Occupation by Irrep:
             Ag   B1g   B2g   B3g    Au   B1u   B2u   B3u 
    DOCC [     2,    0,    0,    0,    0,    0,    0,    0 ]
    SOCC [     0,    0,    0,    0,    0,    0,    1,    0 ]

  @DF-UKS Final Energy:   -24.62747025216030

   => Energetics <=

    Nuclear Repulsion Energy =              0.0000000000000000
    One-Electron Energy =                 -32.3805538601464846
    Two-Electron Energy =                   9.9520382614051996
    DFT Exchange-Correlation Energy =      -2.1989546534190128
    Empirical Dispersion Energy =           0.0000000000000000
    VV10 Nonlocal Energy =                  0.0000000000000000
    Total Energy =                        -24.6274702521602968

  UHF NO Occupations:
  HONO-2 :    1 Ag 1.9999985
  HONO-1 :    2 Ag 1.9993374
  HONO-0 :    1B2u 1.0000000
  LUNO+0 :    3 Ag 0.0006626
  LUNO+1 :    4 Ag 0.0000015
  LUNO+2 :    5 Ag 0.0000000
  LUNO+3 :    6 Ag 0.0000000


Computation Completed


Properties will be evaluated at   0.000000,   0.000000,   0.000000 [a0]

Properties computed using the SCF density matrix

  Nuclear Dipole Moment: [e a0]
     X:     0.0000      Y:     0.0000      Z:     0.0000

  Electronic Dipole Moment: [e a0]
     X:     0.0000      Y:     0.0000      Z:     0.0000

  Dipole Moment: [e a0]
     X:     0.0000      Y:     0.0000      Z:     0.0000     Total:     0.0000

  Dipole Moment: [D]
     X:     0.0000      Y:     0.0000      Z:     0.0000     Total:     0.0000


*** tstop() called on compute476.bc4.acrc.priv at Sun Nov  7 05:05:27 2021
Module time:
	user time   =     127.74 seconds =       2.13 minutes
	system time =       4.50 seconds =       0.07 minutes
	total time  =          6 seconds =       0.10 minutes
Total time:
	user time   =     127.74 seconds =       2.13 minutes
	system time =       4.50 seconds =       0.07 minutes
	total time  =          6 seconds =       0.10 minutes

    Psi4 stopped on: Sunday, 07 November 2021 05:05AM
    Psi4 wall time for execution: 0:00:06.23

*** Psi4 exiting successfully. Buy a developer a beer!
