
    -----------------------------------------------------------------------
          Psi4: An Open-Source Ab Initio Electronic Structure Package
                               Psi4 1.4.1 release

                         Git: Rev {HEAD} cd00f19 


    D. G. A. Smith, L. A. Burns, A. C. Simmonett, R. M. Parrish,
    M. C. Schieber, R. Galvelis, P. Kraus, H. Kruse, R. Di Remigio,
    A. Alenaizan, A. M. James, S. Lehtola, J. P. Misiewicz, M. Scheurer,
    R. A. Shaw, J. B. Schriber, Y. Xie, Z. L. Glick, D. A. Sirianni,
    J. S. O'Brien, J. M. Waldrop, A. Kumar, E. G. Hohenstein,
    B. P. Pritchard, B. R. Brooks, H. F. Schaefer III, A. Yu. Sokolov,
    K. Patkowski, A. E. DePrince III, U. Bozkaya, R. A. King,
    F. A. Evangelista, J. M. Turney, T. D. Crawford, C. D. Sherrill,
    J. Chem. Phys. 152(18) 184108 (2020). https://doi.org/10.1063/5.0006002

                            Additional Code Authors
    E. T. Seidl, C. L. Janssen, E. F. Valeev, M. L. Leininger,
    J. F. Gonthier, R. M. Richard, H. R. McAlexander, M. Saitow, X. Wang,
    P. Verma, and M. H. Lechner

             Previous Authors, Complete List of Code Contributors,
                       and Citations for Specific Modules
    https://github.com/psi4/psi4/blob/master/codemeta.json
    https://github.com/psi4/psi4/graphs/contributors
    http://psicode.org/psi4manual/master/introduction.html#citing-psifour

    -----------------------------------------------------------------------


    Psi4 started on: Sunday, 07 November 2021 05:05AM

    Process ID: 23441
    Host:       compute500.bc4.acrc.priv
    PSIDATADIR: /mnt/storage/home/zw18965/.conda/envs/p4env/share/psi4
    Memory:     500.0 MiB
    Threads:    28
    
  ==> Input File <==

--------------------------------------------------------------------------
memory 120 GB

molecule {
0 3
B          0.00000        0.00000        0.80705
B          0.00000        0.00000       -0.80705
 }

set reference uks
set dynamic_level 1
set basis Def2-TZVPPD

energy("MN15-D3BJ")
--------------------------------------------------------------------------

  Memory set to 111.759 GiB by Python driver.

Scratch directory: /tmp/

*** tstart() called on compute500.bc4.acrc.priv
*** at Sun Nov  7 05:05:36 2021

   => Loading Basis Set <=

    Name: DEF2-TZVPPD
    Role: ORBITAL
    Keyword: BASIS
    atoms 1-2 entry B          line   107 file /mnt/storage/home/zw18965/.conda/envs/p4env/share/psi4/basis/def2-tzvppd.gbs 

   => MN15-D3(BJ): Empirical Dispersion <=

    Grimme's -D3 (BJ-damping) Dispersion Correction
    Grimme S.; Ehrlich S.; Goerigk L. (2011), J. Comput. Chem., 32: 1456
    Parametrisation from:    L. Goerigk, A. Hansen, C. Bauer, S. Ehrlich, A. Najibi, S. Grimme, Phys. Chem. Chem. Phys. 19, 32184-32215, 2017

        s6 =       1.000000
        s8 =       2.097100
        a1 =       0.786200
        a2 =       7.592300


         ---------------------------------------------------------
                                   SCF
               by Justin Turney, Rob Parrish, Andy Simmonett
                          and Daniel G. A. Smith
                              UKS Reference
                       28 Threads, 114440 MiB Core
         ---------------------------------------------------------

  ==> Geometry <==

    Molecular point group: d2h
    Full point group: D_inf_h

    Geometry (in Angstrom), charge = 0, multiplicity = 3:

       Center              X                  Y                   Z               Mass       
    ------------   -----------------  -----------------  -----------------  -----------------
         B            0.000000000000     0.000000000000     0.807050000000    11.009305360000
         B            0.000000000000     0.000000000000    -0.807050000000    11.009305360000

  Running in d2h symmetry.

  Rotational constants: A = ************  B =      1.17545  C =      1.17545 [cm^-1]
  Rotational constants: A = ************  B =  35239.22935  C =  35239.22935 [MHz]
  Nuclear repulsion =    8.196165210798585

  Charge       = 0
  Multiplicity = 3
  Electrons    = 10
  Nalpha       = 6
  Nbeta        = 4

  ==> Algorithm <==

  SCF Algorithm Type is DF.
  DIIS enabled.
  MOM disabled.
  Fractional occupation disabled.
  Guess Type is SAD.
  Energy threshold   = 1.00e-06
  Density threshold  = 1.00e-06
  Integral threshold = 1.00e-12

  ==> Primary Basis <==

  Basis Set: DEF2-TZVPPD
    Blend: DEF2-TZVPPD
    Number of shells: 26
    Number of basis functions: 74
    Number of Cartesian functions: 86
    Spherical Harmonics?: true
    Max angular momentum: 3

  ==> DFT Potential <==

   => Composite Functional: MN15-D3BJ <= 

   MN15 Hybrid Meta-GGA Exchange-Correlation Functional

    H. S. Yu, X. He, S. L. Li, and D. G. Truhlar, Chem. Sci. 7, 5032-5051, 2016


    Deriv               =              1
    GGA                 =           TRUE
    Meta                =           TRUE

    Exchange Hybrid     =           TRUE
    MP2 Hybrid          =          FALSE

   => Exchange Functionals <=

    1.0000   XC_HYB_MGGA_X_MN15

   => Exact (HF) Exchange <=

    0.4400               HF 

   => Correlation Functionals <=

    1.0000   XC_MGGA_C_MN15

   => LibXC Density Thresholds  <==

    XC_MGGA_C_MN15:  1.00E-15 
    XC_HYB_MGGA_X_MN15:  1.00E-15 

   => Molecular Quadrature <=

    Radial Scheme          =       TREUTLER
    Pruning Scheme         =           NONE
    Nuclear Scheme         =       TREUTLER

    BS radius alpha        =              1
    Pruning alpha          =              1
    Radial Points          =             75
    Spherical Points       =            302
    Total Points           =          44638
    Total Blocks           =            418
    Max Points             =            255
    Max Functions          =             74
    Weights Tolerance      =       1.00E-15

   => Loading Basis Set <=

    Name: (DEF2-TZVPPD AUX)
    Role: JKFIT
    Keyword: DF_BASIS_SCF
    atoms 1-2 entry B          line   138 file /mnt/storage/home/zw18965/.conda/envs/p4env/share/psi4/basis/def2-universal-jkfit.gbs 

  ==> Integral Setup <==

  DFHelper Memory: AOs need 0.009 GiB; user supplied 83.593 GiB. Using in-core AOs.

  ==> MemDFJK: Density-Fitted J/K Matrices <==

    J tasked:                   Yes
    K tasked:                   Yes
    wK tasked:                   No
    OpenMP threads:              28
    Memory [MiB]:             85599
    Algorithm:                 Core
    Schwarz Cutoff:           1E-12
    Mask sparsity (%):       0.0365
    Fitting Condition:        1E-10

   => Auxiliary Basis Set <=

  Basis Set: (DEF2-TZVPPD AUX)
    Blend: DEF2-UNIVERSAL-JKFIT
    Number of shells: 50
    Number of basis functions: 150
    Number of Cartesian functions: 178
    Spherical Harmonics?: true
    Max angular momentum: 4

  Cached 100.0% of DFT collocation blocks in 0.226 [GiB].

  Minimum eigenvalue in the overlap matrix is 3.7401735022E-05.
  Reciprocal condition number of the overlap matrix is 6.8935837383E-06.
    Using symmetric orthogonalization.

  ==> Pre-Iterations <==

  SCF Guess: Superposition of Atomic Densities via on-the-fly atomic UHF (no occupation information).

   -------------------------
    Irrep   Nso     Nmo    
   -------------------------
     Ag        17      17 
     B1g        4       4 
     B2g        8       8 
     B3g        8       8 
     Au         4       4 
     B1u       17      17 
     B2u        8       8 
     B3u        8       8 
   -------------------------
    Total      74      74
   -------------------------

  ==> Iterations <==

                           Total Energy        Delta E     RMS |[F,P]|

   @DF-UKS iter SAD:   -48.73748057399671   -4.87375e+01   0.00000e+00 
   @DF-UKS iter   1:   -49.30328217559124   -5.65802e-01   7.91917e-03 DIIS
   @DF-UKS iter   2:   -49.33683116182047   -3.35490e-02   4.48256e-03 DIIS
   @DF-UKS iter   3:   -49.34922017792858   -1.23890e-02   3.35704e-04 DIIS
   @DF-UKS iter   4:   -49.34932005899635   -9.98811e-05   9.94235e-05 DIIS
   @DF-UKS iter   5:   -49.34933485535370   -1.47964e-05   2.57386e-05 DIIS
   @DF-UKS iter   6:   -49.34933588109867   -1.02574e-06   4.82162e-06 DIIS
   @DF-UKS iter   7:   -49.34933592871527   -4.76166e-08   9.74619e-07 DIIS
  Energy and wave function converged.


  ==> Post-Iterations <==

   Electrons on quadrature grid:
      Nalpha   =    6.0000000150 ; deviation = 1.503e-08
      Nbeta    =    3.9999999349 ; deviation = -6.507e-08
      Ntotal   =    9.9999999500 ; deviation = -5.005e-08 

   @Spin Contamination Metric:   3.363885758E-03
   @S^2 Expected:                2.000000000E+00
   @S^2 Observed:                2.003363886E+00
   @S   Expected:                1.000000000E+00
   @S   Observed:                1.000000000E+00

    Orbital Energies [Eh]
    ---------------------

    Alpha Occupied:                                                       

       1Ag    -6.789432     1B1u   -6.788633     2Ag    -0.598085  
       2B1u   -0.325442     1B3u   -0.272054     1B2u   -0.272054  

    Alpha Virtual:                                                        

       3Ag    -0.151432     1B3g   -0.000441     1B2g   -0.000441  
       4Ag     0.051784     3B1u    0.072504     5Ag     0.126629  
       6Ag     0.138989     1B1g    0.138989     2B3u    0.144009  
       2B2u    0.144009     2B3g    0.176325     2B2g    0.176325  
       4B1u    0.183688     5B1u    0.228869     1Au     0.228869  
       3B2u    0.231562     3B3u    0.231562     6B1u    0.239512  
       7Ag     0.245399     8Ag     0.331256     7B1u    0.345258  
       3B3g    0.371080     3B2g    0.371080     9Ag     0.477640  
       2B1g    0.477641     8B1u    0.519394     4B3u    0.551246  
       4B2u    0.551246     2Au     0.639772     9B1u    0.639772  
      10Ag     0.663311     4B3g    0.732458     4B2g    0.732458  
      10B1u    0.851923     5B2u    0.871628     5B3u    0.871628  
      11Ag     0.915666    11B1u    1.020456     5B3g    1.109082  
       5B2g    1.109082    12Ag     1.177582    12B1u    1.316827  
      13Ag     1.497202     3B1g    1.497220     6B3u    1.514445  
       6B2u    1.514445     7B2u    1.552572     7B3u    1.552572  
      14Ag     1.703409     6B2g    1.723714     6B3g    1.723714  
      15Ag     1.764790     4B1g    1.764800    13B1u    1.824607  
       3Au     1.824622     7B3g    1.865780     7B2g    1.865780  
       8B2u    2.082234     8B3u    2.082234    14B1u    2.101084  
       4Au     2.101099    15B1u    2.137998    16Ag     2.681091  
       8B3g    2.694462     8B2g    2.694462    16B1u    2.800020  
      17Ag    13.047682    17B1u   13.482692  

    Beta Occupied:                                                        

       1B1u   -6.785988     1Ag    -6.785525     2Ag    -0.518694  
       2B1u   -0.291883  

    Beta Virtual:                                                         

       3Ag    -0.120390     1B3u   -0.118040     1B2u   -0.118040  
       1B3g    0.041608     1B2g    0.041608     4Ag     0.066268  
       3B1u    0.072445     5Ag     0.145190     2B3u    0.166887  
       2B2u    0.166887     1B1g    0.178202     6Ag     0.178202  
       4B1u    0.182394     2B3g    0.188044     2B2g    0.188044  
       5B1u    0.238316     1Au     0.241875     6B1u    0.241880  
       7Ag     0.250126     3B3u    0.265457     3B2u    0.265457  
       7B1u    0.317811     8Ag     0.357435     3B3g    0.393253  
       3B2g    0.393253     8B1u    0.470259     9Ag     0.528107  
       2B1g    0.528108     4B3u    0.568102     4B2u    0.568102  
      10Ag     0.681110     9B1u    0.681639     2Au     0.681639  
       4B3g    0.746966     4B2g    0.746966    10B1u    0.789293  
      11Ag     0.889861     5B2u    0.914221     5B3u    0.914221  
      11B1u    0.995721     5B3g    1.163936     5B2g    1.163936  
      12Ag     1.171146    12B1u    1.288304     6B2u    1.426938  
       6B3u    1.426938     3B1g    1.535602    13Ag     1.535616  
      14Ag     1.640705     7B3u    1.653197     7B2u    1.653197  
       6B3g    1.803589     6B2g    1.803589    15Ag     1.844713  
       4B1g    1.844764     7B2g    1.874198     7B3g    1.874198  
      13B1u    1.900346     3Au     1.900407    14B1u    2.057319  
       8B2u    2.066864     8B3u    2.066864     4Au     2.189968  
      15B1u    2.189972    16B1u    2.446188    16Ag     2.460056  
       8B3g    2.645172     8B2g    2.645172    17Ag    13.077715  
      17B1u   13.475928  

    Final Occupation by Irrep:
             Ag   B1g   B2g   B3g    Au   B1u   B2u   B3u 
    DOCC [     2,    0,    0,    0,    0,    2,    0,    0 ]
    SOCC [     0,    0,    0,    0,    0,    0,    1,    1 ]

  @DF-UKS Final Energy:   -49.34933592871527

   => Energetics <=

    Nuclear Repulsion Energy =              8.1961652107985845
    One-Electron Energy =                 -81.0495142063276575
    Two-Electron Energy =                  27.9760719609449104
    DFT Exchange-Correlation Energy =      -4.4720294741311006
    Empirical Dispersion Energy =          -0.0000294200000000
    VV10 Nonlocal Energy =                  0.0000000000000000
    Total Energy =                        -49.3493359287152629

  UHF NO Occupations:
  HONO-2 :    2 Ag 1.9991604
  HONO-1 :    1B2u 1.0000000
  HONO-0 :    1B3u 1.0000000
  LUNO+0 :    3 Ag 0.0008396
  LUNO+1 :    3B1u 0.0008348
  LUNO+2 :    4B1u 0.0000074
  LUNO+3 :    4 Ag 0.0000009


Computation Completed


Properties will be evaluated at   0.000000,   0.000000,   0.000000 [a0]

Properties computed using the SCF density matrix

  Nuclear Dipole Moment: [e a0]
     X:     0.0000      Y:     0.0000      Z:     0.0000

  Electronic Dipole Moment: [e a0]
     X:     0.0000      Y:     0.0000      Z:     0.0000

  Dipole Moment: [e a0]
     X:     0.0000      Y:     0.0000      Z:     0.0000     Total:     0.0000

  Dipole Moment: [D]
     X:     0.0000      Y:     0.0000      Z:     0.0000     Total:     0.0000


*** tstop() called on compute500.bc4.acrc.priv at Sun Nov  7 05:05:42 2021
Module time:
	user time   =     105.43 seconds =       1.76 minutes
	system time =       5.05 seconds =       0.08 minutes
	total time  =          6 seconds =       0.10 minutes
Total time:
	user time   =     105.43 seconds =       1.76 minutes
	system time =       5.05 seconds =       0.08 minutes
	total time  =          6 seconds =       0.10 minutes

    Psi4 stopped on: Sunday, 07 November 2021 05:05AM
    Psi4 wall time for execution: 0:00:06.86

*** Psi4 exiting successfully. Buy a developer a beer!
