
    -----------------------------------------------------------------------
          Psi4: An Open-Source Ab Initio Electronic Structure Package
                               Psi4 1.4.1 release

                         Git: Rev {HEAD} cd00f19 


    D. G. A. Smith, L. A. Burns, A. C. Simmonett, R. M. Parrish,
    M. C. Schieber, R. Galvelis, P. Kraus, H. Kruse, R. Di Remigio,
    A. Alenaizan, A. M. James, S. Lehtola, J. P. Misiewicz, M. Scheurer,
    R. A. Shaw, J. B. Schriber, Y. Xie, Z. L. Glick, D. A. Sirianni,
    J. S. O'Brien, J. M. Waldrop, A. Kumar, E. G. Hohenstein,
    B. P. Pritchard, B. R. Brooks, H. F. Schaefer III, A. Yu. Sokolov,
    K. Patkowski, A. E. DePrince III, U. Bozkaya, R. A. King,
    F. A. Evangelista, J. M. Turney, T. D. Crawford, C. D. Sherrill,
    J. Chem. Phys. 152(18) 184108 (2020). https://doi.org/10.1063/5.0006002

                            Additional Code Authors
    E. T. Seidl, C. L. Janssen, E. F. Valeev, M. L. Leininger,
    J. F. Gonthier, R. M. Richard, H. R. McAlexander, M. Saitow, X. Wang,
    P. Verma, and M. H. Lechner

             Previous Authors, Complete List of Code Contributors,
                       and Citations for Specific Modules
    https://github.com/psi4/psi4/blob/master/codemeta.json
    https://github.com/psi4/psi4/graphs/contributors
    http://psicode.org/psi4manual/master/introduction.html#citing-psifour

    -----------------------------------------------------------------------


    Psi4 started on: Sunday, 07 November 2021 05:05AM

    Process ID: 11622
    Host:       compute311.bc4.acrc.priv
    PSIDATADIR: /mnt/storage/home/zw18965/.conda/envs/p4env/share/psi4
    Memory:     500.0 MiB
    Threads:    28
    
  ==> Input File <==

--------------------------------------------------------------------------
memory 120 GB

molecule {
0 3
C          0.00000        0.00000        0.00000
 }

set reference uks
set dynamic_level 1
set basis Def2-TZVPPD

energy("MN15-D3BJ")
--------------------------------------------------------------------------

  Memory set to 111.759 GiB by Python driver.

Scratch directory: /tmp/

*** tstart() called on compute311.bc4.acrc.priv
*** at Sun Nov  7 05:05:36 2021

   => Loading Basis Set <=

    Name: DEF2-TZVPPD
    Role: ORBITAL
    Keyword: BASIS
    atoms 1 entry C          line   144 file /mnt/storage/home/zw18965/.conda/envs/p4env/share/psi4/basis/def2-tzvppd.gbs 

   => MN15-D3(BJ): Empirical Dispersion <=

    Grimme's -D3 (BJ-damping) Dispersion Correction
    Grimme S.; Ehrlich S.; Goerigk L. (2011), J. Comput. Chem., 32: 1456
    Parametrisation from:    L. Goerigk, A. Hansen, C. Bauer, S. Ehrlich, A. Najibi, S. Grimme, Phys. Chem. Chem. Phys. 19, 32184-32215, 2017

        s6 =       1.000000
        s8 =       2.097100
        a1 =       0.786200
        a2 =       7.592300


         ---------------------------------------------------------
                                   SCF
               by Justin Turney, Rob Parrish, Andy Simmonett
                          and Daniel G. A. Smith
                              UKS Reference
                       28 Threads, 114440 MiB Core
         ---------------------------------------------------------

  ==> Geometry <==

    Molecular point group: d2h
    Geometry (in Angstrom), charge = 0, multiplicity = 3:

       Center              X                  Y                   Z               Mass       
    ------------   -----------------  -----------------  -----------------  -----------------
         C            0.000000000000     0.000000000000     0.000000000000    12.000000000000

  Running in d2h symmetry.

  Rotational constants: A = ************  B = ************  C = ************ [cm^-1]
  Rotational constants: A = ************  B = ************  C = ************ [MHz]
  Nuclear repulsion =    0.000000000000000

  Charge       = 0
  Multiplicity = 3
  Electrons    = 6
  Nalpha       = 4
  Nbeta        = 2

  ==> Algorithm <==

  SCF Algorithm Type is DF.
  DIIS enabled.
  MOM disabled.
  Fractional occupation disabled.
  Guess Type is CORE.
  Energy threshold   = 1.00e-06
  Density threshold  = 1.00e-06
  Integral threshold = 1.00e-12

  ==> Primary Basis <==

  Basis Set: DEF2-TZVPPD
    Blend: DEF2-TZVPPD
    Number of shells: 13
    Number of basis functions: 37
    Number of Cartesian functions: 43
    Spherical Harmonics?: true
    Max angular momentum: 3

  ==> DFT Potential <==

   => Composite Functional: MN15-D3BJ <= 

   MN15 Hybrid Meta-GGA Exchange-Correlation Functional

    H. S. Yu, X. He, S. L. Li, and D. G. Truhlar, Chem. Sci. 7, 5032-5051, 2016


    Deriv               =              1
    GGA                 =           TRUE
    Meta                =           TRUE

    Exchange Hybrid     =           TRUE
    MP2 Hybrid          =          FALSE

   => Exchange Functionals <=

    1.0000   XC_HYB_MGGA_X_MN15

   => Exact (HF) Exchange <=

    0.4400               HF 

   => Correlation Functionals <=

    1.0000   XC_MGGA_C_MN15

   => LibXC Density Thresholds  <==

    XC_MGGA_C_MN15:  1.00E-15 
    XC_HYB_MGGA_X_MN15:  1.00E-15 

   => Molecular Quadrature <=

    Radial Scheme          =       TREUTLER
    Pruning Scheme         =           NONE
    Nuclear Scheme         =       TREUTLER

    BS radius alpha        =              1
    Pruning alpha          =              1
    Radial Points          =             75
    Spherical Points       =            302
    Total Points           =          22348
    Total Blocks           =            230
    Max Points             =            252
    Max Functions          =             37
    Weights Tolerance      =       1.00E-15

   => Loading Basis Set <=

    Name: (DEF2-TZVPPD AUX)
    Role: JKFIT
    Keyword: DF_BASIS_SCF
    atoms 1 entry C          line   198 file /mnt/storage/home/zw18965/.conda/envs/p4env/share/psi4/basis/def2-universal-jkfit.gbs 

  ==> Integral Setup <==

  DFHelper Memory: AOs need 0.001 GiB; user supplied 83.761 GiB. Using in-core AOs.

  ==> MemDFJK: Density-Fitted J/K Matrices <==

    J tasked:                   Yes
    K tasked:                   Yes
    wK tasked:                   No
    OpenMP threads:              28
    Memory [MiB]:             85771
    Algorithm:                 Core
    Schwarz Cutoff:           1E-12
    Mask sparsity (%):       0.0000
    Fitting Condition:        1E-10

   => Auxiliary Basis Set <=

  Basis Set: (DEF2-TZVPPD AUX)
    Blend: DEF2-UNIVERSAL-JKFIT
    Number of shells: 25
    Number of basis functions: 75
    Number of Cartesian functions: 89
    Spherical Harmonics?: true
    Max angular momentum: 4

  Cached 100.0% of DFT collocation blocks in 0.058 [GiB].

  Minimum eigenvalue in the overlap matrix is 8.7534601221E-03.
  Reciprocal condition number of the overlap matrix is 2.6221839881E-03.
    Using symmetric orthogonalization.

  ==> Pre-Iterations <==

  SCF Guess: Core (One-Electron) Hamiltonian.

   -------------------------------------------------------
    Irrep   Nso     Nmo     Nalpha   Nbeta   Ndocc  Nsocc
   -------------------------------------------------------
     Ag        12      12       2       2       2       0
     B1g        3       3       0       0       0       0
     B2g        3       3       0       0       0       0
     B3g        3       3       0       0       0       0
     Au         1       1       0       0       0       0
     B1u        5       5       0       0       0       0
     B2u        5       5       1       0       0       1
     B3u        5       5       1       0       0       1
   -------------------------------------------------------
    Total      37      37       4       2       2       2
   -------------------------------------------------------

  ==> Iterations <==

                           Total Energy        Delta E     RMS |[F,P]|

    Occupation by irrep:
             Ag   B1g   B2g   B3g    Au   B1u   B2u   B3u 
    DOCC [     2,    0,    0,    0,    0,    0,    0,    0 ]
    SOCC [     1,    0,    0,    0,    0,    0,    1,    0 ]

   @DF-UKS iter   1:   -35.66412053159115   -3.56641e+01   1.89330e-01 DIIS
    Occupation by irrep:
             Ag   B1g   B2g   B3g    Au   B1u   B2u   B3u 
    DOCC [     2,    0,    0,    0,    0,    0,    0,    0 ]
    SOCC [     0,    0,    0,    0,    0,    0,    1,    1 ]

   @DF-UKS iter   2:   -36.05958307119644   -3.95463e-01   6.87907e-02 DIIS
   @DF-UKS iter   3:   -36.60589314672018   -5.46310e-01   6.38041e-02 DIIS
   @DF-UKS iter   4:   -37.10480809311447   -4.98915e-01   5.12376e-02 DIIS
   @DF-UKS iter   5:   -36.11622637485729    9.88582e-01   7.53752e-02 DIIS
   @DF-UKS iter   6:   -36.76163004003879   -6.45404e-01   7.61321e-02 DIIS
   @DF-UKS iter   7:   -37.46596048739619   -7.04330e-01   5.04536e-02 DIIS
   @DF-UKS iter   8:   -37.75532714133703   -2.89367e-01   1.66236e-02 DIIS
   @DF-UKS iter   9:   -37.73736352457840    1.79636e-02   2.85951e-02 DIIS
   @DF-UKS iter  10:   -37.06941840728983    6.67945e-01   2.27624e-02 DIIS
   @DF-UKS iter  11:   -37.10103660754295   -3.16182e-02   2.04780e-02 DIIS
   @DF-UKS iter  12:   -37.10773919364696   -6.70259e-03   2.04723e-02 DIIS
   @DF-UKS iter  13:   -37.79041438709057   -6.82675e-01   1.03088e-02 DIIS
   @DF-UKS iter  14:   -37.80562752097919   -1.52131e-02   5.51728e-03 DIIS
   @DF-UKS iter  15:   -37.80799822812514   -2.37071e-03   4.35964e-03 DIIS
   @DF-UKS iter  16:   -37.80973452429787   -1.73630e-03   1.15903e-03 DIIS
   @DF-UKS iter  17:   -37.80981614812561   -8.16238e-05   8.51498e-04 DIIS
   @DF-UKS iter  18:   -37.80989429868005   -7.81506e-05   3.09581e-04 DIIS
   @DF-UKS iter  19:   -37.80990287488048   -8.57620e-06   1.20893e-04 DIIS
   @DF-UKS iter  20:   -37.80990536606470   -2.49118e-06   2.89129e-05 DIIS
   @DF-UKS iter  21:   -37.80990551189766   -1.45833e-07   1.56901e-06 DIIS
   @DF-UKS iter  22:   -37.80990551235180   -4.54143e-10   1.40425e-07 DIIS
  Energy and wave function converged.


  ==> Post-Iterations <==

   Electrons on quadrature grid:
      Nalpha   =    4.0000000000 ; deviation = -2.896e-11
      Nbeta    =    2.0000000000 ; deviation = -2.911e-11
      Ntotal   =    5.9999999999 ; deviation = -5.807e-11 

   @Spin Contamination Metric:   1.906726274E-03
   @S^2 Expected:                2.000000000E+00
   @S^2 Observed:                2.001906726E+00
   @S   Expected:                1.000000000E+00
   @S   Observed:                1.000000000E+00

    Orbital Energies [Eh]
    ---------------------

    Alpha Occupied:                                                       

       1Ag   -10.168581     2Ag    -0.621300     1B2u   -0.300142  
       1B3u   -0.300142  

    Alpha Virtual:                                                        

       1B1u   -0.114659     3Ag     0.070290     1B1g    0.240875  
       4Ag     0.240875     1B2g    0.246346     1B3g    0.246346  
       2B3u    0.253612     2B2u    0.253612     5Ag     0.258032  
       2B1u    0.283994     6Ag     0.382826     2B2g    0.861834  
       2B3g    0.861834     7Ag     0.862193     2B1g    0.862193  
       8Ag     0.870629     3B2u    1.366945     3B3u    1.366945  
       3B1u    1.395245     9Ag     1.449468     4B1u    2.583760  
       1Au     2.583760     4B3u    2.584917     4B2u    2.584917  
       5B3u    2.594281     5B2u    2.594281     5B1u    2.603335  
       3B3g    2.947878     3B2g    2.947878    10Ag     2.948213  
       3B1g    2.948213    11Ag     2.979310    12Ag    20.606384  

    Beta Occupied:                                                        

       1Ag   -10.150628     2Ag    -0.513906  

    Beta Virtual:                                                         

       1B1u   -0.083578     1B3u   -0.042230     1B2u   -0.042230  
       3Ag     0.096777     4Ag     0.273744     1B2g    0.280653  
       1B3g    0.280653     5Ag     0.296493     1B1g    0.296493  
       2B1u    0.304189     2B3u    0.340917     2B2u    0.340917  
       6Ag     0.407093     7Ag     0.890520     2B3g    0.912514  
       2B2g    0.912514     2B1g    0.951925     8Ag     0.951925  
       3B1u    1.323681     3B2u    1.436788     3B3u    1.436788  
       9Ag     1.452259     4B1u    2.543784     4B2u    2.573243  
       4B3u    2.573243     1Au     2.629230     5B1u    2.629230  
       5B3u    2.711051     5B2u    2.711051    10Ag     2.851632  
       3B3g    2.911967     3B2g    2.911967     3B1g    3.008307  
      11Ag     3.008307    12Ag    20.694968  

    Final Occupation by Irrep:
             Ag   B1g   B2g   B3g    Au   B1u   B2u   B3u 
    DOCC [     2,    0,    0,    0,    0,    0,    0,    0 ]
    SOCC [     0,    0,    0,    0,    0,    0,    1,    1 ]

  @DF-UKS Final Energy:   -37.80990551235180

   => Energetics <=

    Nuclear Repulsion Energy =              0.0000000000000000
    One-Electron Energy =                 -50.4527492061839595
    Two-Electron Energy =                  15.5935143491582480
    DFT Exchange-Correlation Energy =      -2.9506706553260926
    Empirical Dispersion Energy =           0.0000000000000000
    VV10 Nonlocal Energy =                  0.0000000000000000
    Total Energy =                        -37.8099055123518042

  UHF NO Occupations:
  HONO-2 :    2 Ag 1.9990471
  HONO-1 :    1B2u 1.0000000
  HONO-0 :    1B3u 1.0000000
  LUNO+0 :    3 Ag 0.0009529
  LUNO+1 :    4 Ag 0.0000009
  LUNO+2 :    2B2u 0.0000000
  LUNO+3 :    5 Ag 0.0000000


Computation Completed


Properties will be evaluated at   0.000000,   0.000000,   0.000000 [a0]

Properties computed using the SCF density matrix

  Nuclear Dipole Moment: [e a0]
     X:     0.0000      Y:     0.0000      Z:     0.0000

  Electronic Dipole Moment: [e a0]
     X:     0.0000      Y:     0.0000      Z:     0.0000

  Dipole Moment: [e a0]
     X:     0.0000      Y:     0.0000      Z:     0.0000     Total:     0.0000

  Dipole Moment: [D]
     X:     0.0000      Y:     0.0000      Z:     0.0000     Total:     0.0000


*** tstop() called on compute311.bc4.acrc.priv at Sun Nov  7 05:05:42 2021
Module time:
	user time   =      99.84 seconds =       1.66 minutes
	system time =       3.65 seconds =       0.06 minutes
	total time  =          6 seconds =       0.10 minutes
Total time:
	user time   =      99.84 seconds =       1.66 minutes
	system time =       3.65 seconds =       0.06 minutes
	total time  =          6 seconds =       0.10 minutes

    Psi4 stopped on: Sunday, 07 November 2021 05:05AM
    Psi4 wall time for execution: 0:00:06.57

*** Psi4 exiting successfully. Buy a developer a beer!
