
    -----------------------------------------------------------------------
          Psi4: An Open-Source Ab Initio Electronic Structure Package
                               Psi4 1.4.1 release

                         Git: Rev {HEAD} cd00f19 


    D. G. A. Smith, L. A. Burns, A. C. Simmonett, R. M. Parrish,
    M. C. Schieber, R. Galvelis, P. Kraus, H. Kruse, R. Di Remigio,
    A. Alenaizan, A. M. James, S. Lehtola, J. P. Misiewicz, M. Scheurer,
    R. A. Shaw, J. B. Schriber, Y. Xie, Z. L. Glick, D. A. Sirianni,
    J. S. O'Brien, J. M. Waldrop, A. Kumar, E. G. Hohenstein,
    B. P. Pritchard, B. R. Brooks, H. F. Schaefer III, A. Yu. Sokolov,
    K. Patkowski, A. E. DePrince III, U. Bozkaya, R. A. King,
    F. A. Evangelista, J. M. Turney, T. D. Crawford, C. D. Sherrill,
    J. Chem. Phys. 152(18) 184108 (2020). https://doi.org/10.1063/5.0006002

                            Additional Code Authors
    E. T. Seidl, C. L. Janssen, E. F. Valeev, M. L. Leininger,
    J. F. Gonthier, R. M. Richard, H. R. McAlexander, M. Saitow, X. Wang,
    P. Verma, and M. H. Lechner

             Previous Authors, Complete List of Code Contributors,
                       and Citations for Specific Modules
    https://github.com/psi4/psi4/blob/master/codemeta.json
    https://github.com/psi4/psi4/graphs/contributors
    http://psicode.org/psi4manual/master/introduction.html#citing-psifour

    -----------------------------------------------------------------------


    Psi4 started on: Sunday, 07 November 2021 05:05AM

    Process ID: 1798
    Host:       compute319.bc4.acrc.priv
    PSIDATADIR: /mnt/storage/home/zw18965/.conda/envs/p4env/share/psi4
    Memory:     500.0 MiB
    Threads:    28
    
  ==> Input File <==

--------------------------------------------------------------------------
memory 120 GB

molecule {
0 3
C          0.00000        0.00000        0.00000
H          0.00000        0.00000        1.07672
H          0.77665        0.00000       -0.74575
 }

set reference uks
set dynamic_level 1
set basis Def2-TZVPPD

energy("MN15-D3BJ")
--------------------------------------------------------------------------

  Memory set to 111.759 GiB by Python driver.

Scratch directory: /tmp/

*** tstart() called on compute319.bc4.acrc.priv
*** at Sun Nov  7 05:05:21 2021

   => Loading Basis Set <=

    Name: DEF2-TZVPPD
    Role: ORBITAL
    Keyword: BASIS
    atoms 1   entry C          line   144 file /mnt/storage/home/zw18965/.conda/envs/p4env/share/psi4/basis/def2-tzvppd.gbs 
    atoms 2-3 entry H          line    14 file /mnt/storage/home/zw18965/.conda/envs/p4env/share/psi4/basis/def2-tzvppd.gbs 

   => MN15-D3(BJ): Empirical Dispersion <=

    Grimme's -D3 (BJ-damping) Dispersion Correction
    Grimme S.; Ehrlich S.; Goerigk L. (2011), J. Comput. Chem., 32: 1456
    Parametrisation from:    L. Goerigk, A. Hansen, C. Bauer, S. Ehrlich, A. Najibi, S. Grimme, Phys. Chem. Chem. Phys. 19, 32184-32215, 2017

        s6 =       1.000000
        s8 =       2.097100
        a1 =       0.786200
        a2 =       7.592300


         ---------------------------------------------------------
                                   SCF
               by Justin Turney, Rob Parrish, Andy Simmonett
                          and Daniel G. A. Smith
                              UKS Reference
                       28 Threads, 114440 MiB Core
         ---------------------------------------------------------

  ==> Geometry <==

    Molecular point group: cs
    Full point group: Cs

    Geometry (in Angstrom), charge = 0, multiplicity = 3:

       Center              X                  Y                   Z               Mass       
    ------------   -----------------  -----------------  -----------------  -----------------
         C            0.055846664813    -0.023799099534     0.000000000000    12.000000000000
         H            0.055846664813     1.052920900466     0.000000000000     1.007825032230
         H           -0.720803335187    -0.769549099534     0.000000000000     1.007825032230

  Running in cs symmetry.

  Rotational constants: A =     54.82145  B =      8.52409  C =      7.37704 [cm^-1]
  Rotational constants: A = 1643505.75863  B = 255545.73237  C = 221158.23859 [MHz]
  Nuclear repulsion =    6.164774012406175

  Charge       = 0
  Multiplicity = 3
  Electrons    = 8
  Nalpha       = 5
  Nbeta        = 3

  ==> Algorithm <==

  SCF Algorithm Type is DF.
  DIIS enabled.
  MOM disabled.
  Fractional occupation disabled.
  Guess Type is SAD.
  Energy threshold   = 1.00e-06
  Density threshold  = 1.00e-06
  Integral threshold = 1.00e-12

  ==> Primary Basis <==

  Basis Set: DEF2-TZVPPD
    Blend: DEF2-TZVPPD
    Number of shells: 27
    Number of basis functions: 71
    Number of Cartesian functions: 79
    Spherical Harmonics?: true
    Max angular momentum: 3

  ==> DFT Potential <==

   => Composite Functional: MN15-D3BJ <= 

   MN15 Hybrid Meta-GGA Exchange-Correlation Functional

    H. S. Yu, X. He, S. L. Li, and D. G. Truhlar, Chem. Sci. 7, 5032-5051, 2016


    Deriv               =              1
    GGA                 =           TRUE
    Meta                =           TRUE

    Exchange Hybrid     =           TRUE
    MP2 Hybrid          =          FALSE

   => Exchange Functionals <=

    1.0000   XC_HYB_MGGA_X_MN15

   => Exact (HF) Exchange <=

    0.4400               HF 

   => Correlation Functionals <=

    1.0000   XC_MGGA_C_MN15

   => LibXC Density Thresholds  <==

    XC_MGGA_C_MN15:  1.00E-15 
    XC_HYB_MGGA_X_MN15:  1.00E-15 

   => Molecular Quadrature <=

    Radial Scheme          =       TREUTLER
    Pruning Scheme         =           NONE
    Nuclear Scheme         =       TREUTLER

    BS radius alpha        =              1
    Pruning alpha          =              1
    Radial Points          =             75
    Spherical Points       =            302
    Total Points           =          66756
    Total Blocks           =            559
    Max Points             =            251
    Max Functions          =             71
    Weights Tolerance      =       1.00E-15

   => Loading Basis Set <=

    Name: (DEF2-TZVPPD AUX)
    Role: JKFIT
    Keyword: DF_BASIS_SCF
    atoms 1   entry C          line   198 file /mnt/storage/home/zw18965/.conda/envs/p4env/share/psi4/basis/def2-universal-jkfit.gbs 
    atoms 2-3 entry H          line    18 file /mnt/storage/home/zw18965/.conda/envs/p4env/share/psi4/basis/def2-universal-jkfit.gbs 

  ==> Integral Setup <==

  DFHelper Memory: AOs need 0.006 GiB; user supplied 83.484 GiB. Using in-core AOs.

  ==> MemDFJK: Density-Fitted J/K Matrices <==

    J tasked:                   Yes
    K tasked:                   Yes
    wK tasked:                   No
    OpenMP threads:              28
    Memory [MiB]:             85487
    Algorithm:                 Core
    Schwarz Cutoff:           1E-12
    Mask sparsity (%):       0.0000
    Fitting Condition:        1E-10

   => Auxiliary Basis Set <=

  Basis Set: (DEF2-TZVPPD AUX)
    Blend: DEF2-UNIVERSAL-JKFIT
    Number of shells: 37
    Number of basis functions: 111
    Number of Cartesian functions: 129
    Spherical Harmonics?: true
    Max angular momentum: 4

  Cached 100.0% of DFT collocation blocks in 0.335 [GiB].

  Minimum eigenvalue in the overlap matrix is 1.0167975771E-04.
  Reciprocal condition number of the overlap matrix is 1.5978122319E-05.
    Using symmetric orthogonalization.

  ==> Pre-Iterations <==

  SCF Guess: Superposition of Atomic Densities via on-the-fly atomic UHF (no occupation information).

   -------------------------
    Irrep   Nso     Nmo    
   -------------------------
     A'        49      49 
     A"        22      22 
   -------------------------
    Total      71      71
   -------------------------

  ==> Iterations <==

                           Total Energy        Delta E     RMS |[F,P]|

   @DF-UKS iter SAD:   -38.57187750510668   -3.85719e+01   0.00000e+00 
   @DF-UKS iter   1:   -39.05680034525594   -4.84923e-01   5.64699e-03 DIIS
   @DF-UKS iter   2:   -39.08221303684005   -2.54127e-02   3.96348e-03 DIIS
   @DF-UKS iter   3:   -39.10602597502396   -2.38129e-02   2.79092e-04 DIIS
   @DF-UKS iter   4:   -39.10622771049086   -2.01735e-04   8.29650e-05 DIIS
   @DF-UKS iter   5:   -39.10624922579945   -2.15153e-05   2.44817e-05 DIIS
   @DF-UKS iter   6:   -39.10625213612928   -2.91033e-06   5.20827e-06 DIIS
   @DF-UKS iter   7:   -39.10625224762094   -1.11492e-07   6.10485e-07 DIIS
  Energy and wave function converged.


  ==> Post-Iterations <==

   Electrons on quadrature grid:
      Nalpha   =    5.0000001920 ; deviation = 1.920e-07
      Nbeta    =    3.0000001669 ; deviation = 1.669e-07
      Ntotal   =    8.0000003589 ; deviation = 3.589e-07 

   @Spin Contamination Metric:   7.995123844E-03
   @S^2 Expected:                2.000000000E+00
   @S^2 Observed:                2.007995124E+00
   @S   Expected:                1.000000000E+00
   @S   Observed:                1.000000000E+00

    Orbital Energies [Eh]
    ---------------------

    Alpha Occupied:                                                       

       1Ap   -10.087360     2Ap    -0.723515     3Ap    -0.505004  
       4Ap    -0.315762     1App   -0.281127  

    Alpha Virtual:                                                        

       5Ap     0.056133     6Ap     0.134055     7Ap     0.147401  
       8Ap     0.182695     9Ap     0.203550     2App    0.208122  
       3App    0.216971    10Ap     0.236765     4App    0.238348  
      11Ap     0.282009    12Ap     0.345337    13Ap     0.359154  
      14Ap     0.365645     5App    0.386499     6App    0.431040  
      15Ap     0.440846    16Ap     0.491721    17Ap     0.540824  
      18Ap     0.742986     7App    0.771559    19Ap     0.779307  
       8App    0.829291    20Ap     0.829631    21Ap     0.873872  
      22Ap     0.972019     9App    1.039648    23Ap     1.185891  
      10App    1.297164    24Ap     1.299615    25Ap     1.491008  
      26Ap     1.493783    11App    1.528112    27Ap     1.636157  
      28Ap     1.710220    29Ap     1.775002    12App    2.496677  
      30Ap     2.516283    31Ap     2.553746    13App    2.635841  
      32Ap     2.640893    33Ap     2.748228    14App    2.807403  
      34Ap     2.888526    15App    2.909428    35Ap     2.911968  
      16App    2.945746    36Ap     3.039940    37Ap     3.325888  
      38Ap     3.452405    17App    3.489799    18App    3.560322  
      39Ap     3.658077    40Ap     3.664626    41Ap     3.911594  
      19App    3.937327    20App    3.976197    42Ap     4.014807  
      43Ap     4.492721    21App    4.757769    44Ap     4.781992  
      22App    4.791792    45Ap     4.973913    46Ap     5.135664  
      47Ap     5.537544    48Ap     5.578056    49Ap    21.854075  

    Beta Occupied:                                                        

       1Ap   -10.073240     2Ap    -0.640156     3Ap    -0.470333  

    Beta Virtual:                                                         

       4Ap    -0.042916     1App   -0.023620     5Ap     0.075008  
       6Ap     0.141001     7Ap     0.162547     8Ap     0.221121  
       9Ap     0.227387     2App    0.236865     3App    0.259115  
      10Ap     0.290583    11Ap     0.305753     4App    0.307129  
      12Ap     0.347055    13Ap     0.380499    14Ap     0.391483  
       5App    0.410990    15Ap     0.470251     6App    0.498593  
      16Ap     0.506797    17Ap     0.584709    18Ap     0.729110  
      19Ap     0.746255     7App    0.795547    20Ap     0.877170  
      21Ap     0.912392     8App    0.923661    22Ap     1.037617  
       9App    1.084874    23Ap     1.228926    10App    1.347844  
      24Ap     1.348894    25Ap     1.475533    26Ap     1.576060  
      11App    1.671989    27Ap     1.689188    28Ap     1.759593  
      29Ap     1.775575    30Ap     2.461267    12App    2.545114  
      31Ap     2.569965    32Ap     2.593716    13App    2.671106  
      33Ap     2.759595    14App    2.807405    34Ap     2.835172  
      15App    2.930899    35Ap     3.117984    36Ap     3.135945  
      16App    3.188578    37Ap     3.265270    38Ap     3.400864  
      17App    3.501361    18App    3.576781    39Ap     3.648709  
      40Ap     3.722492    41Ap     3.850574    19App    3.910031  
      20App    3.938185    42Ap     3.950673    43Ap     4.439543  
      44Ap     4.607231    45Ap     4.659234    21App    4.710447  
      22App    4.750785    46Ap     4.911632    47Ap     5.077277  
      48Ap     5.374477    49Ap    21.890936  

    Final Occupation by Irrep:
             Ap   App 
    DOCC [     3,    0 ]
    SOCC [     1,    1 ]

  @DF-UKS Final Energy:   -39.10625224762094

   => Energetics <=

    Nuclear Repulsion Energy =              6.1647740124061752
    One-Electron Energy =                 -63.9426369529026672
    Two-Electron Energy =                  22.1201941188717441
    DFT Exchange-Correlation Energy =      -3.4485659359961929
    Empirical Dispersion Energy =          -0.0000174900000000
    VV10 Nonlocal Energy =                  0.0000000000000000
    Total Energy =                        -39.1062522476209367

  UHF NO Occupations:
  HONO-2 :    3 Ap 1.9979686
  HONO-1 :    4 Ap 1.0000000
  HONO-0 :    1App 1.0000000
  LUNO+0 :    5 Ap 0.0020314
  LUNO+1 :    6 Ap 0.0019653
  LUNO+2 :    7 Ap 0.0000049
  LUNO+3 :    8 Ap 0.0000000


Computation Completed


Properties will be evaluated at   0.000000,   0.000000,   0.000000 [a0]

Properties computed using the SCF density matrix

  Nuclear Dipole Moment: [e a0]
     X:    -0.6234      Y:     0.2657      Z:     0.0000

  Electronic Dipole Moment: [e a0]
     X:     0.4191      Y:    -0.1786      Z:     0.0000

  Dipole Moment: [e a0]
     X:    -0.2042      Y:     0.0870      Z:     0.0000     Total:     0.2220

  Dipole Moment: [D]
     X:    -0.5191      Y:     0.2212      Z:     0.0000     Total:     0.5643


*** tstop() called on compute319.bc4.acrc.priv at Sun Nov  7 05:05:29 2021
Module time:
	user time   =     144.78 seconds =       2.41 minutes
	system time =       6.88 seconds =       0.11 minutes
	total time  =          8 seconds =       0.13 minutes
Total time:
	user time   =     144.78 seconds =       2.41 minutes
	system time =       6.88 seconds =       0.11 minutes
	total time  =          8 seconds =       0.13 minutes

    Psi4 stopped on: Sunday, 07 November 2021 05:05AM
    Psi4 wall time for execution: 0:00:07.19

*** Psi4 exiting successfully. Buy a developer a beer!
