
    -----------------------------------------------------------------------
          Psi4: An Open-Source Ab Initio Electronic Structure Package
                               Psi4 1.4.1 release

                         Git: Rev {HEAD} cd00f19 


    D. G. A. Smith, L. A. Burns, A. C. Simmonett, R. M. Parrish,
    M. C. Schieber, R. Galvelis, P. Kraus, H. Kruse, R. Di Remigio,
    A. Alenaizan, A. M. James, S. Lehtola, J. P. Misiewicz, M. Scheurer,
    R. A. Shaw, J. B. Schriber, Y. Xie, Z. L. Glick, D. A. Sirianni,
    J. S. O'Brien, J. M. Waldrop, A. Kumar, E. G. Hohenstein,
    B. P. Pritchard, B. R. Brooks, H. F. Schaefer III, A. Yu. Sokolov,
    K. Patkowski, A. E. DePrince III, U. Bozkaya, R. A. King,
    F. A. Evangelista, J. M. Turney, T. D. Crawford, C. D. Sherrill,
    J. Chem. Phys. 152(18) 184108 (2020). https://doi.org/10.1063/5.0006002

                            Additional Code Authors
    E. T. Seidl, C. L. Janssen, E. F. Valeev, M. L. Leininger,
    J. F. Gonthier, R. M. Richard, H. R. McAlexander, M. Saitow, X. Wang,
    P. Verma, and M. H. Lechner

             Previous Authors, Complete List of Code Contributors,
                       and Citations for Specific Modules
    https://github.com/psi4/psi4/blob/master/codemeta.json
    https://github.com/psi4/psi4/graphs/contributors
    http://psicode.org/psi4manual/master/introduction.html#citing-psifour

    -----------------------------------------------------------------------


    Psi4 started on: Sunday, 07 November 2021 05:05AM

    Process ID: 16836
    Host:       compute423.bc4.acrc.priv
    PSIDATADIR: /mnt/storage/home/zw18965/.conda/envs/p4env/share/psi4
    Memory:     500.0 MiB
    Threads:    28
    
  ==> Input File <==

--------------------------------------------------------------------------
memory 120 GB

molecule {
0 1
Cl         0.00000        0.00000        1.02117
Cl         0.00000        0.00000       -1.02117
 }

set dynamic_level 1
set basis Def2-TZVPPD

energy("MN15-D3BJ")
--------------------------------------------------------------------------

  Memory set to 111.759 GiB by Python driver.

Scratch directory: /tmp/

*** tstart() called on compute423.bc4.acrc.priv
*** at Sun Nov  7 05:05:21 2021

   => Loading Basis Set <=

    Name: DEF2-TZVPPD
    Role: ORBITAL
    Keyword: BASIS
    atoms 1-2 entry CL         line   607 file /mnt/storage/home/zw18965/.conda/envs/p4env/share/psi4/basis/def2-tzvppd.gbs 

   => MN15-D3(BJ): Empirical Dispersion <=

    Grimme's -D3 (BJ-damping) Dispersion Correction
    Grimme S.; Ehrlich S.; Goerigk L. (2011), J. Comput. Chem., 32: 1456
    Parametrisation from:    L. Goerigk, A. Hansen, C. Bauer, S. Ehrlich, A. Najibi, S. Grimme, Phys. Chem. Chem. Phys. 19, 32184-32215, 2017

        s6 =       1.000000
        s8 =       2.097100
        a1 =       0.786200
        a2 =       7.592300


         ---------------------------------------------------------
                                   SCF
               by Justin Turney, Rob Parrish, Andy Simmonett
                          and Daniel G. A. Smith
                              RKS Reference
                       28 Threads, 114440 MiB Core
         ---------------------------------------------------------

  ==> Geometry <==

    Molecular point group: d2h
    Full point group: D_inf_h

    Geometry (in Angstrom), charge = 0, multiplicity = 1:

       Center              X                  Y                   Z               Mass       
    ------------   -----------------  -----------------  -----------------  -----------------
         CL           0.000000000000     0.000000000000     1.021170000000    34.968852682000
         CL           0.000000000000     0.000000000000    -1.021170000000    34.968852682000

  Running in d2h symmetry.

  Rotational constants: A = ************  B =      0.23115  C =      0.23115 [cm^-1]
  Rotational constants: A = ************  B =   6929.62487  C =   6929.62487 [MHz]
  Nuclear repulsion =   74.880878738912273

  Charge       = 0
  Multiplicity = 1
  Electrons    = 34
  Nalpha       = 17
  Nbeta        = 17

  ==> Algorithm <==

  SCF Algorithm Type is DF.
  DIIS enabled.
  MOM disabled.
  Fractional occupation disabled.
  Guess Type is SAD.
  Energy threshold   = 1.00e-06
  Density threshold  = 1.00e-06
  Integral threshold = 1.00e-12

  ==> Primary Basis <==

  Basis Set: DEF2-TZVPPD
    Blend: DEF2-TZVPPD
    Number of shells: 34
    Number of basis functions: 102
    Number of Cartesian functions: 116
    Spherical Harmonics?: true
    Max angular momentum: 3

  ==> DFT Potential <==

   => Composite Functional: MN15-D3BJ <= 

   MN15 Hybrid Meta-GGA Exchange-Correlation Functional

    H. S. Yu, X. He, S. L. Li, and D. G. Truhlar, Chem. Sci. 7, 5032-5051, 2016


    Deriv               =              1
    GGA                 =           TRUE
    Meta                =           TRUE

    Exchange Hybrid     =           TRUE
    MP2 Hybrid          =          FALSE

   => Exchange Functionals <=

    1.0000   XC_HYB_MGGA_X_MN15

   => Exact (HF) Exchange <=

    0.4400               HF 

   => Correlation Functionals <=

    1.0000   XC_MGGA_C_MN15

   => LibXC Density Thresholds  <==

    XC_MGGA_C_MN15:  1.00E-15 
    XC_HYB_MGGA_X_MN15:  1.00E-15 

   => Molecular Quadrature <=

    Radial Scheme          =       TREUTLER
    Pruning Scheme         =           NONE
    Nuclear Scheme         =       TREUTLER

    BS radius alpha        =              1
    Pruning alpha          =              1
    Radial Points          =             75
    Spherical Points       =            302
    Total Points           =          44038
    Total Blocks           =            422
    Max Points             =            256
    Max Functions          =            100
    Weights Tolerance      =       1.00E-15

   => Loading Basis Set <=

    Name: (DEF2-TZVPPD AUX)
    Role: JKFIT
    Keyword: DF_BASIS_SCF
    atoms 1-2 entry CL         line   986 file /mnt/storage/home/zw18965/.conda/envs/p4env/share/psi4/basis/def2-universal-jkfit.gbs 

  ==> Integral Setup <==

  DFHelper Memory: AOs need 0.024 GiB; user supplied 83.566 GiB. Using in-core AOs.

  ==> MemDFJK: Density-Fitted J/K Matrices <==

    J tasked:                   Yes
    K tasked:                   Yes
    wK tasked:                   No
    OpenMP threads:              28
    Memory [MiB]:             85571
    Algorithm:                 Core
    Schwarz Cutoff:           1E-12
    Mask sparsity (%):       2.4414
    Fitting Condition:        1E-10

   => Auxiliary Basis Set <=

  Basis Set: (DEF2-TZVPPD AUX)
    Blend: DEF2-UNIVERSAL-JKFIT
    Number of shells: 76
    Number of basis functions: 256
    Number of Cartesian functions: 310
    Spherical Harmonics?: true
    Max angular momentum: 4

  Cached 100.0% of DFT collocation blocks in 0.253 [GiB].

  Minimum eigenvalue in the overlap matrix is 3.7925076998E-03.
  Reciprocal condition number of the overlap matrix is 8.8801590429E-04.
    Using symmetric orthogonalization.

  ==> Pre-Iterations <==

  SCF Guess: Superposition of Atomic Densities via on-the-fly atomic UHF (no occupation information).

   -------------------------
    Irrep   Nso     Nmo    
   -------------------------
     Ag        22      22 
     B1g        5       5 
     B2g       12      12 
     B3g       12      12 
     Au         5       5 
     B1u       22      22 
     B2u       12      12 
     B3u       12      12 
   -------------------------
    Total     102     102
   -------------------------

  ==> Iterations <==

                           Total Energy        Delta E     RMS |[F,P]|

   @DF-RKS iter SAD:  -919.99824987200100   -9.19998e+02   0.00000e+00 
   @DF-RKS iter   1:  -920.17653869508956   -1.78289e-01   9.91310e-03 DIIS
   @DF-RKS iter   2:  -920.19179202591124   -1.52533e-02   5.20059e-03 DIIS
   @DF-RKS iter   3:  -920.19775658813182   -5.96456e-03   2.97462e-04 DIIS
   @DF-RKS iter   4:  -920.19779699382491   -4.04057e-05   1.27527e-04 DIIS
   @DF-RKS iter   5:  -920.19780617449430   -9.18067e-06   1.69525e-05 DIIS
   @DF-RKS iter   6:  -920.19780641698776   -2.42493e-07   2.40156e-06 DIIS
   @DF-RKS iter   7:  -920.19780642171850   -4.73074e-09   2.63492e-07 DIIS
  Energy and wave function converged.


  ==> Post-Iterations <==

   Electrons on quadrature grid:
      Ntotal   =   34.0000004022 ; deviation = 4.022e-07 

    Orbital Energies [Eh]
    ---------------------

    Doubly Occupied:                                                      

       1B1u -100.404408     1Ag  -100.404376     2Ag    -9.223420  
       2B1u   -9.223390     3Ag    -7.250755     3B1u   -7.250706  
       1B3g   -7.228916     1B2g   -7.228916     1B2u   -7.228895  
       1B3u   -7.228895     4Ag    -0.958021     4B1u   -0.803397  
       5Ag    -0.501150     2B3u   -0.453492     2B2u   -0.453492  
       2B2g   -0.356463     2B3g   -0.356463  

    Virtual:                                                              

       5B1u   -0.102525     6B1u    0.071674     6Ag     0.080559  
       3B2u    0.093307     3B3u    0.093307     7Ag     0.102451  
       3B3g    0.119354     3B2g    0.119354     8Ag     0.175793  
       1B1g    0.175793     4B2u    0.204450     4B3u    0.204450  
       7B1u    0.226091     8B1u    0.279148     1Au     0.279149  
       9Ag     0.280552     9B1u    0.312448     4B3g    0.336332  
       4B2g    0.336332     5B2u    0.465935     5B3u    0.465935  
      10Ag     0.533394     6B2u    0.543565     6B3u    0.543565  
      11Ag     0.592949     2B1g    0.592962     5B3g    0.623071  
       5B2g    0.623071    12Ag     0.628842    10B1u    0.640219  
       2Au     0.640231     6B3g    0.703098     6B2g    0.703098  
      11B1u    0.708462    12B1u    0.779785    13Ag     0.890455  
      13B1u    1.305607     7B2u    1.746641     7B3u    1.746641  
       3B1g    1.795168    14Ag     1.795207    15Ag     1.844111  
       7B3g    1.886108     7B2g    1.886108    14B1u    1.889129  
       3Au     1.891184    15B1u    1.891295     8B2u    1.914167  
       8B3u    1.914167     4B1g    1.941635    16Ag     1.941651  
       9B2u    2.036019     9B3u    2.036019     8B3g    2.068891  
       8B2g    2.068891    16B1u    2.173260     4Au     2.173335  
      17Ag     2.203436    10B2u    2.225099    10B3u    2.225099  
      18Ag     2.283315     9B3g    2.299908     9B2g    2.299908  
      17B1u    2.351235    10B3g    2.639696    10B2g    2.639696  
      18B1u    3.598376     5B1g    7.975355    19Ag     7.975382  
      11B2u    7.997361    11B3u    7.997361     5Au     8.011003  
      19B1u    8.011031    20B1u    8.029636    11B3g    8.036339  
      11B2g    8.036339    20Ag     8.142510    12B2u   10.260569  
      12B3u   10.260569    12B3g   10.374414    12B2g   10.374414  
      21Ag    10.391561    21B1u   10.788046    22Ag    24.172572  
      22B1u   24.807718  

    Final Occupation by Irrep:
             Ag   B1g   B2g   B3g    Au   B1u   B2u   B3u 
    DOCC [     5,    0,    2,    2,    0,    4,    2,    2 ]

  @DF-RKS Final Energy:  -920.19780642171850

   => Energetics <=

    Nuclear Repulsion Energy =             74.8808787389122728
    One-Electron Energy =               -1419.9611505171483259
    Two-Electron Energy =                 456.9913922653854570
    DFT Exchange-Correlation Energy =     -32.1088931588678221
    Empirical Dispersion Energy =          -0.0000337500000000
    VV10 Nonlocal Energy =                  0.0000000000000000
    Total Energy =                       -920.1978064217182691

Computation Completed


Properties will be evaluated at   0.000000,   0.000000,   0.000000 [a0]

Properties computed using the SCF density matrix

  Nuclear Dipole Moment: [e a0]
     X:     0.0000      Y:     0.0000      Z:     0.0000

  Electronic Dipole Moment: [e a0]
     X:     0.0000      Y:     0.0000      Z:     0.0000

  Dipole Moment: [e a0]
     X:     0.0000      Y:     0.0000      Z:     0.0000     Total:     0.0000

  Dipole Moment: [D]
     X:     0.0000      Y:     0.0000      Z:     0.0000     Total:     0.0000


*** tstop() called on compute423.bc4.acrc.priv at Sun Nov  7 05:05:24 2021
Module time:
	user time   =      20.73 seconds =       0.35 minutes
	system time =       1.29 seconds =       0.02 minutes
	total time  =          3 seconds =       0.05 minutes
Total time:
	user time   =      20.73 seconds =       0.35 minutes
	system time =       1.29 seconds =       0.02 minutes
	total time  =          3 seconds =       0.05 minutes

    Psi4 stopped on: Sunday, 07 November 2021 05:05AM
    Psi4 wall time for execution: 0:00:02.48

*** Psi4 exiting successfully. Buy a developer a beer!
