
    -----------------------------------------------------------------------
          Psi4: An Open-Source Ab Initio Electronic Structure Package
                               Psi4 1.4.1 release

                         Git: Rev {HEAD} cd00f19 


    D. G. A. Smith, L. A. Burns, A. C. Simmonett, R. M. Parrish,
    M. C. Schieber, R. Galvelis, P. Kraus, H. Kruse, R. Di Remigio,
    A. Alenaizan, A. M. James, S. Lehtola, J. P. Misiewicz, M. Scheurer,
    R. A. Shaw, J. B. Schriber, Y. Xie, Z. L. Glick, D. A. Sirianni,
    J. S. O'Brien, J. M. Waldrop, A. Kumar, E. G. Hohenstein,
    B. P. Pritchard, B. R. Brooks, H. F. Schaefer III, A. Yu. Sokolov,
    K. Patkowski, A. E. DePrince III, U. Bozkaya, R. A. King,
    F. A. Evangelista, J. M. Turney, T. D. Crawford, C. D. Sherrill,
    J. Chem. Phys. 152(18) 184108 (2020). https://doi.org/10.1063/5.0006002

                            Additional Code Authors
    E. T. Seidl, C. L. Janssen, E. F. Valeev, M. L. Leininger,
    J. F. Gonthier, R. M. Richard, H. R. McAlexander, M. Saitow, X. Wang,
    P. Verma, and M. H. Lechner

             Previous Authors, Complete List of Code Contributors,
                       and Citations for Specific Modules
    https://github.com/psi4/psi4/blob/master/codemeta.json
    https://github.com/psi4/psi4/graphs/contributors
    http://psicode.org/psi4manual/master/introduction.html#citing-psifour

    -----------------------------------------------------------------------


    Psi4 started on: Sunday, 07 November 2021 05:05AM

    Process ID: 12139
    Host:       compute350.bc4.acrc.priv
    PSIDATADIR: /mnt/storage/home/zw18965/.conda/envs/p4env/share/psi4
    Memory:     500.0 MiB
    Threads:    28
    
  ==> Input File <==

--------------------------------------------------------------------------
memory 120 GB

molecule {
0 1
O          0.00000        0.00000        0.64242
Cl         1.40117        0.00000       -0.32121
Cl        -1.40117        0.00000       -0.32121
 }

set dynamic_level 1
set basis Def2-TZVPPD

energy("MN15-D3BJ")
--------------------------------------------------------------------------

  Memory set to 111.759 GiB by Python driver.

Scratch directory: /tmp/

*** tstart() called on compute350.bc4.acrc.priv
*** at Sun Nov  7 05:05:21 2021

   => Loading Basis Set <=

    Name: DEF2-TZVPPD
    Role: ORBITAL
    Keyword: BASIS
    atoms 1   entry O          line   218 file /mnt/storage/home/zw18965/.conda/envs/p4env/share/psi4/basis/def2-tzvppd.gbs 
    atoms 2-3 entry CL         line   607 file /mnt/storage/home/zw18965/.conda/envs/p4env/share/psi4/basis/def2-tzvppd.gbs 

   => MN15-D3(BJ): Empirical Dispersion <=

    Grimme's -D3 (BJ-damping) Dispersion Correction
    Grimme S.; Ehrlich S.; Goerigk L. (2011), J. Comput. Chem., 32: 1456
    Parametrisation from:    L. Goerigk, A. Hansen, C. Bauer, S. Ehrlich, A. Najibi, S. Grimme, Phys. Chem. Chem. Phys. 19, 32184-32215, 2017

        s6 =       1.000000
        s8 =       2.097100
        a1 =       0.786200
        a2 =       7.592300


         ---------------------------------------------------------
                                   SCF
               by Justin Turney, Rob Parrish, Andy Simmonett
                          and Daniel G. A. Smith
                              RKS Reference
                       28 Threads, 114440 MiB Core
         ---------------------------------------------------------

  ==> Geometry <==

    Molecular point group: c2v
    Full point group: C2v

    Geometry (in Angstrom), charge = 0, multiplicity = 1:

       Center              X                  Y                   Z               Mass       
    ------------   -----------------  -----------------  -----------------  -----------------
         O            0.000000000000    -0.000000000000     0.784266452400    15.994914619570
         CL           1.401170000000     0.000000000000    -0.179363547600    34.968852682000
         CL          -1.401170000000    -0.000000000000    -0.179363547600    34.968852682000

  Running in c2v symmetry.

  Rotational constants: A =      1.39457  B =      0.12277  C =      0.11284 [cm^-1]
  Rotational constants: A =  41808.18585  B =   3680.64693  C =   3382.83402 [MHz]
  Nuclear repulsion =  139.214158846700684

  Charge       = 0
  Multiplicity = 1
  Electrons    = 42
  Nalpha       = 21
  Nbeta        = 21

  ==> Algorithm <==

  SCF Algorithm Type is DF.
  DIIS enabled.
  MOM disabled.
  Fractional occupation disabled.
  Guess Type is SAD.
  Energy threshold   = 1.00e-06
  Density threshold  = 1.00e-06
  Integral threshold = 1.00e-12

  ==> Primary Basis <==

  Basis Set: DEF2-TZVPPD
    Blend: DEF2-TZVPPD
    Number of shells: 48
    Number of basis functions: 142
    Number of Cartesian functions: 162
    Spherical Harmonics?: true
    Max angular momentum: 3

  ==> DFT Potential <==

   => Composite Functional: MN15-D3BJ <= 

   MN15 Hybrid Meta-GGA Exchange-Correlation Functional

    H. S. Yu, X. He, S. L. Li, and D. G. Truhlar, Chem. Sci. 7, 5032-5051, 2016


    Deriv               =              1
    GGA                 =           TRUE
    Meta                =           TRUE

    Exchange Hybrid     =           TRUE
    MP2 Hybrid          =          FALSE

   => Exchange Functionals <=

    1.0000   XC_HYB_MGGA_X_MN15

   => Exact (HF) Exchange <=

    0.4400               HF 

   => Correlation Functionals <=

    1.0000   XC_MGGA_C_MN15

   => LibXC Density Thresholds  <==

    XC_MGGA_C_MN15:  1.00E-15 
    XC_HYB_MGGA_X_MN15:  1.00E-15 

   => Molecular Quadrature <=

    Radial Scheme          =       TREUTLER
    Pruning Scheme         =           NONE
    Nuclear Scheme         =       TREUTLER

    BS radius alpha        =              1
    Pruning alpha          =              1
    Radial Points          =             75
    Spherical Points       =            302
    Total Points           =          66136
    Total Blocks           =            580
    Max Points             =            256
    Max Functions          =            136
    Weights Tolerance      =       1.00E-15

   => Loading Basis Set <=

    Name: (DEF2-TZVPPD AUX)
    Role: JKFIT
    Keyword: DF_BASIS_SCF
    atoms 1   entry O          line   318 file /mnt/storage/home/zw18965/.conda/envs/p4env/share/psi4/basis/def2-universal-jkfit.gbs 
    atoms 2-3 entry CL         line   986 file /mnt/storage/home/zw18965/.conda/envs/p4env/share/psi4/basis/def2-universal-jkfit.gbs 

  ==> Integral Setup <==

  DFHelper Memory: AOs need 0.058 GiB; user supplied 83.287 GiB. Using in-core AOs.

  ==> MemDFJK: Density-Fitted J/K Matrices <==

    J tasked:                   Yes
    K tasked:                   Yes
    wK tasked:                   No
    OpenMP threads:              28
    Memory [MiB]:             85285
    Algorithm:                 Core
    Schwarz Cutoff:           1E-12
    Mask sparsity (%):       2.3507
    Fitting Condition:        1E-10

   => Auxiliary Basis Set <=

  Basis Set: (DEF2-TZVPPD AUX)
    Blend: DEF2-UNIVERSAL-JKFIT
    Number of shells: 101
    Number of basis functions: 333
    Number of Cartesian functions: 403
    Spherical Harmonics?: true
    Max angular momentum: 4

  Cached 100.0% of DFT collocation blocks in 0.532 [GiB].

  Minimum eigenvalue in the overlap matrix is 8.0363001160E-04.
  Reciprocal condition number of the overlap matrix is 1.3966442850E-04.
    Using symmetric orthogonalization.

  ==> Pre-Iterations <==

  SCF Guess: Superposition of Atomic Densities via on-the-fly atomic UHF (no occupation information).

   -------------------------
    Irrep   Nso     Nmo    
   -------------------------
     A1        52      52 
     A2        21      21 
     B1        43      43 
     B2        26      26 
   -------------------------
    Total     142     142
   -------------------------

  ==> Iterations <==

                           Total Energy        Delta E     RMS |[F,P]|

   @DF-RKS iter SAD:  -995.00309960333607   -9.95003e+02   0.00000e+00 
   @DF-RKS iter   1:  -995.25118505967896   -2.48085e-01   6.05262e-03 DIIS
   @DF-RKS iter   2:  -995.26070095273985   -9.51589e-03   4.27965e-03 DIIS
   @DF-RKS iter   3:  -995.27613540160178   -1.54344e-02   2.64184e-03 DIIS
   @DF-RKS iter   4:  -995.28969127137771   -1.35559e-02   1.34482e-04 DIIS
   @DF-RKS iter   5:  -995.28972707022865   -3.57989e-05   5.08269e-05 DIIS
   @DF-RKS iter   6:  -995.28973264502929   -5.57480e-06   1.18747e-05 DIIS
   @DF-RKS iter   7:  -995.28973298495703   -3.39928e-07   2.17529e-06 DIIS
   @DF-RKS iter   8:  -995.28973300946404   -2.45070e-08   7.71072e-07 DIIS
  Energy and wave function converged.


  ==> Post-Iterations <==

   Electrons on quadrature grid:
      Ntotal   =   42.0000208112 ; deviation = 2.081e-05 

    Orbital Energies [Eh]
    ---------------------

    Doubly Occupied:                                                      

       1B1  -100.414072     1A1  -100.414063     2A1   -18.956086  
       2B1    -9.232494     3A1    -9.232471     4A1    -7.261254  
       3B1    -7.261237     4B1    -7.237737     5A1    -7.237722  
       1A2    -7.236912     1B2    -7.236909     6A1    -1.152463  
       5B1    -0.903215     7A1    -0.801027     6B1    -0.567482  
       8A1    -0.532986     2B2    -0.522299     2A2    -0.401101  
       9A1    -0.393127     7B1    -0.381937     3B2    -0.339879  

    Virtual:                                                              

      10A1    -0.095722     8B1    -0.025437     9B1     0.070368  
      11A1     0.071880    12A1     0.086128     4B2     0.086719  
      10B1     0.108986    13A1     0.111646     3A2     0.116852  
      14A1     0.156435     5B2     0.163422    11B1     0.177741  
       6B2     0.198236    15A1     0.200625    12B1     0.233913  
       4A2     0.236876    16A1     0.257815    13B1     0.269311  
       7B2     0.290601    17A1     0.293092    14B1     0.301020  
       5A2     0.307912    18A1     0.343796    15B1     0.349907  
      19A1     0.459041    16B1     0.468472     8B2     0.478556  
      20A1     0.488200     9B2     0.497222     6A2     0.500786  
      21A1     0.531248     7A2     0.552627    22A1     0.593674  
      17B1     0.620438    10B2     0.625451    11B2     0.634665  
       8A2     0.637444    18B1     0.657652    23A1     0.668098  
      19B1     0.681283    24A1     0.710006    20B1     0.733819  
      25A1     0.756209     9A2     0.758501    21B1     0.790640  
      12B2     0.846003    26A1     0.888851    27A1     0.970722  
      22B1     0.979188    23B1     1.230170    28A1     1.312055  
      29A1     1.581503    10A2     1.608025    13B2     1.639110  
      30A1     1.821773    31A1     1.830626    14B2     1.845838  
      24B1     1.849410    11A2     1.871107    32A1     1.881870  
      25B1     1.884079    15B2     1.888960    26B1     1.905320  
      12A2     1.905899    33A1     1.956719    27B1     1.960620  
      16B2     2.022878    17B2     2.050799    13A2     2.055074  
      34A1     2.056805    28B1     2.059947    14A2     2.073803  
      35A1     2.110633    29B1     2.198168    18B2     2.232100  
      30B1     2.232586    36A1     2.243001    15A2     2.261604  
      19B2     2.321799    37A1     2.333025    31B1     2.365274  
      32B1     2.405003    16A2     2.472958    38A1     2.627547  
      33B1     2.706909    39A1     2.750425    20B2     2.830686  
      40A1     3.086814    41A1     3.764498    34B1     3.881685  
      21B2     4.984800    42A1     5.045226    17A2     5.158766  
      22B2     5.179562    35B1     5.202159    36B1     5.256497  
      43A1     5.467784    23B2     6.258350    44A1     6.327984  
      18A2     6.344097    45A1     6.607037    37B1     6.745177  
      46A1     7.978676    24B2     7.984362    38B1     7.998560  
      19A2     8.000594    25B2     8.020591    20A2     8.021593  
      47A1     8.036244    39B1     8.074303    48A1     8.155861  
      40B1     8.215584    26B2    10.297101    21A2    10.308734  
      49A1    10.319493    41B1    10.387942    42B1    10.673737  
      50A1    10.761719    51A1    24.651567    43B1    24.818624  
      52A1    41.894408  

    Final Occupation by Irrep:
             A1    A2    B1    B2 
    DOCC [     9,    2,    7,    3 ]

  @DF-RKS Final Energy:  -995.28973300946404

   => Energetics <=

    Nuclear Repulsion Energy =            139.2141588467006841
    One-Electron Energy =               -1651.3245463327093603
    Two-Electron Energy =                 553.8085821413066014
    DFT Exchange-Correlation Energy =     -36.9878628447618851
    Empirical Dispersion Energy =          -0.0000648200000000
    VV10 Nonlocal Energy =                  0.0000000000000000
    Total Energy =                       -995.2897330094640438

Computation Completed


Properties will be evaluated at   0.000000,   0.000000,   0.000000 [a0]

Properties computed using the SCF density matrix

  Nuclear Dipole Moment: [e a0]
     X:    -0.0000      Y:    -0.0000      Z:     0.3322

  Electronic Dipole Moment: [e a0]
     X:     0.0000      Y:     0.0000      Z:    -0.5604

  Dipole Moment: [e a0]
     X:    -0.0000      Y:    -0.0000      Z:    -0.2282     Total:     0.2282

  Dipole Moment: [D]
     X:    -0.0000      Y:    -0.0000      Z:    -0.5801     Total:     0.5801


*** tstop() called on compute350.bc4.acrc.priv at Sun Nov  7 05:05:24 2021
Module time:
	user time   =      30.44 seconds =       0.51 minutes
	system time =       2.18 seconds =       0.04 minutes
	total time  =          3 seconds =       0.05 minutes
Total time:
	user time   =      30.44 seconds =       0.51 minutes
	system time =       2.18 seconds =       0.04 minutes
	total time  =          3 seconds =       0.05 minutes

    Psi4 stopped on: Sunday, 07 November 2021 05:05AM
    Psi4 wall time for execution: 0:00:03.01

*** Psi4 exiting successfully. Buy a developer a beer!
