
    -----------------------------------------------------------------------
          Psi4: An Open-Source Ab Initio Electronic Structure Package
                               Psi4 1.4.1 release

                         Git: Rev {HEAD} cd00f19 


    D. G. A. Smith, L. A. Burns, A. C. Simmonett, R. M. Parrish,
    M. C. Schieber, R. Galvelis, P. Kraus, H. Kruse, R. Di Remigio,
    A. Alenaizan, A. M. James, S. Lehtola, J. P. Misiewicz, M. Scheurer,
    R. A. Shaw, J. B. Schriber, Y. Xie, Z. L. Glick, D. A. Sirianni,
    J. S. O'Brien, J. M. Waldrop, A. Kumar, E. G. Hohenstein,
    B. P. Pritchard, B. R. Brooks, H. F. Schaefer III, A. Yu. Sokolov,
    K. Patkowski, A. E. DePrince III, U. Bozkaya, R. A. King,
    F. A. Evangelista, J. M. Turney, T. D. Crawford, C. D. Sherrill,
    J. Chem. Phys. 152(18) 184108 (2020). https://doi.org/10.1063/5.0006002

                            Additional Code Authors
    E. T. Seidl, C. L. Janssen, E. F. Valeev, M. L. Leininger,
    J. F. Gonthier, R. M. Richard, H. R. McAlexander, M. Saitow, X. Wang,
    P. Verma, and M. H. Lechner

             Previous Authors, Complete List of Code Contributors,
                       and Citations for Specific Modules
    https://github.com/psi4/psi4/blob/master/codemeta.json
    https://github.com/psi4/psi4/graphs/contributors
    http://psicode.org/psi4manual/master/introduction.html#citing-psifour

    -----------------------------------------------------------------------


    Psi4 started on: Sunday, 07 November 2021 05:05AM

    Process ID: 3922
    Host:       compute399.bc4.acrc.priv
    PSIDATADIR: /mnt/storage/home/zw18965/.conda/envs/p4env/share/psi4
    Memory:     500.0 MiB
    Threads:    28
    
  ==> Input File <==

--------------------------------------------------------------------------
memory 120 GB

molecule {
0 1
O          0.00000        0.00000        0.00000
C          0.00000        0.00000        1.12961
 }

set dynamic_level 1
set basis Def2-TZVPPD

energy("MN15-D3BJ")
--------------------------------------------------------------------------

  Memory set to 111.759 GiB by Python driver.

Scratch directory: /tmp/

*** tstart() called on compute399.bc4.acrc.priv
*** at Sun Nov  7 05:05:20 2021

   => Loading Basis Set <=

    Name: DEF2-TZVPPD
    Role: ORBITAL
    Keyword: BASIS
    atoms 1 entry O          line   218 file /mnt/storage/home/zw18965/.conda/envs/p4env/share/psi4/basis/def2-tzvppd.gbs 
    atoms 2 entry C          line   144 file /mnt/storage/home/zw18965/.conda/envs/p4env/share/psi4/basis/def2-tzvppd.gbs 

   => MN15-D3(BJ): Empirical Dispersion <=

    Grimme's -D3 (BJ-damping) Dispersion Correction
    Grimme S.; Ehrlich S.; Goerigk L. (2011), J. Comput. Chem., 32: 1456
    Parametrisation from:    L. Goerigk, A. Hansen, C. Bauer, S. Ehrlich, A. Najibi, S. Grimme, Phys. Chem. Chem. Phys. 19, 32184-32215, 2017

        s6 =       1.000000
        s8 =       2.097100
        a1 =       0.786200
        a2 =       7.592300


         ---------------------------------------------------------
                                   SCF
               by Justin Turney, Rob Parrish, Andy Simmonett
                          and Daniel G. A. Smith
                              RKS Reference
                       28 Threads, 114440 MiB Core
         ---------------------------------------------------------

  ==> Geometry <==

    Molecular point group: c2v
    Full point group: C_inf_v

    Geometry (in Angstrom), charge = 0, multiplicity = 1:

       Center              X                  Y                   Z               Mass       
    ------------   -----------------  -----------------  -----------------  -----------------
         O            0.000000000000     0.000000000000    -0.484206513369    15.994914619570
         C            0.000000000000     0.000000000000     0.645403486631    12.000000000000

  Running in c2v symmetry.

  Rotational constants: A = ************  B =      1.92688  C =      1.92688 [cm^-1]
  Rotational constants: A = ************  B =  57766.50834  C =  57766.50834 [MHz]
  Nuclear repulsion =   22.486084677154064

  Charge       = 0
  Multiplicity = 1
  Electrons    = 14
  Nalpha       = 7
  Nbeta        = 7

  ==> Algorithm <==

  SCF Algorithm Type is DF.
  DIIS enabled.
  MOM disabled.
  Fractional occupation disabled.
  Guess Type is SAD.
  Energy threshold   = 1.00e-06
  Density threshold  = 1.00e-06
  Integral threshold = 1.00e-12

  ==> Primary Basis <==

  Basis Set: DEF2-TZVPPD
    Blend: DEF2-TZVPPD
    Number of shells: 27
    Number of basis functions: 77
    Number of Cartesian functions: 89
    Spherical Harmonics?: true
    Max angular momentum: 3

  ==> DFT Potential <==

   => Composite Functional: MN15-D3BJ <= 

   MN15 Hybrid Meta-GGA Exchange-Correlation Functional

    H. S. Yu, X. He, S. L. Li, and D. G. Truhlar, Chem. Sci. 7, 5032-5051, 2016


    Deriv               =              1
    GGA                 =           TRUE
    Meta                =           TRUE

    Exchange Hybrid     =           TRUE
    MP2 Hybrid          =          FALSE

   => Exchange Functionals <=

    1.0000   XC_HYB_MGGA_X_MN15

   => Exact (HF) Exchange <=

    0.4400               HF 

   => Correlation Functionals <=

    1.0000   XC_MGGA_C_MN15

   => LibXC Density Thresholds  <==

    XC_MGGA_C_MN15:  1.00E-15 
    XC_HYB_MGGA_X_MN15:  1.00E-15 

   => Molecular Quadrature <=

    Radial Scheme          =       TREUTLER
    Pruning Scheme         =           NONE
    Nuclear Scheme         =       TREUTLER

    BS radius alpha        =              1
    Pruning alpha          =              1
    Radial Points          =             75
    Spherical Points       =            302
    Total Points           =          44635
    Total Blocks           =            414
    Max Points             =            256
    Max Functions          =             77
    Weights Tolerance      =       1.00E-15

   => Loading Basis Set <=

    Name: (DEF2-TZVPPD AUX)
    Role: JKFIT
    Keyword: DF_BASIS_SCF
    atoms 1 entry O          line   318 file /mnt/storage/home/zw18965/.conda/envs/p4env/share/psi4/basis/def2-universal-jkfit.gbs 
    atoms 2 entry C          line   198 file /mnt/storage/home/zw18965/.conda/envs/p4env/share/psi4/basis/def2-universal-jkfit.gbs 

  ==> Integral Setup <==

  DFHelper Memory: AOs need 0.009 GiB; user supplied 83.588 GiB. Using in-core AOs.

  ==> MemDFJK: Density-Fitted J/K Matrices <==

    J tasked:                   Yes
    K tasked:                   Yes
    wK tasked:                   No
    OpenMP threads:              28
    Memory [MiB]:             85593
    Algorithm:                 Core
    Schwarz Cutoff:           1E-12
    Mask sparsity (%):       0.0337
    Fitting Condition:        1E-10

   => Auxiliary Basis Set <=

  Basis Set: (DEF2-TZVPPD AUX)
    Blend: DEF2-UNIVERSAL-JKFIT
    Number of shells: 50
    Number of basis functions: 152
    Number of Cartesian functions: 182
    Spherical Harmonics?: true
    Max angular momentum: 4

  Cached 100.0% of DFT collocation blocks in 0.232 [GiB].

  Minimum eigenvalue in the overlap matrix is 2.1708435403E-04.
  Reciprocal condition number of the overlap matrix is 3.7690338944E-05.
    Using symmetric orthogonalization.

  ==> Pre-Iterations <==

  SCF Guess: Superposition of Atomic Densities via on-the-fly atomic UHF (no occupation information).

   -------------------------
    Irrep   Nso     Nmo    
   -------------------------
     A1        35      35 
     A2         8       8 
     B1        17      17 
     B2        17      17 
   -------------------------
    Total      77      77
   -------------------------

  ==> Iterations <==

                           Total Energy        Delta E     RMS |[F,P]|

   @DF-RKS iter SAD:  -112.64069383127551   -1.12641e+02   0.00000e+00 
   @DF-RKS iter   1:  -113.18421240059551   -5.43519e-01   1.02234e-02 DIIS
   @DF-RKS iter   2:  -113.07760101087969    1.06611e-01   1.63266e-02 DIIS
   @DF-RKS iter   3:  -113.23975559503333   -1.62155e-01   2.38930e-03 DIIS
   @DF-RKS iter   4:  -113.24413361410748   -4.37802e-03   1.76851e-04 DIIS
   @DF-RKS iter   5:  -113.24415278949031   -1.91754e-05   3.94083e-05 DIIS
   @DF-RKS iter   6:  -113.24415384128520   -1.05179e-06   4.33021e-06 DIIS
   @DF-RKS iter   7:  -113.24415385420136   -1.29162e-08   3.28833e-07 DIIS
  Energy and wave function converged.


  ==> Post-Iterations <==

   Electrons on quadrature grid:
      Ntotal   =   13.9999997612 ; deviation = -2.388e-07 

    Orbital Energies [Eh]
    ---------------------

    Doubly Occupied:                                                      

       1A1   -18.920830     2A1   -10.160616     3A1    -1.201806  
       4A1    -0.623611     1B2    -0.526161     1B1    -0.526161  
       5A1    -0.427348  

    Virtual:                                                              

       2B2     0.004587     2B1     0.004587     6A1     0.074462  
       3B1     0.115976     3B2     0.115976     7A1     0.116463  
       8A1     0.163948     1A2     0.249056     9A1     0.249056  
       4B2     0.298508     4B1     0.298508    10A1     0.314772  
       5B1     0.366315     5B2     0.366315    11A1     0.394658  
      12A1     0.417511    13A1     0.488308     2A2     0.501270  
      14A1     0.501270     6B2     0.530423     6B1     0.530423  
      15A1     0.770298    16A1     0.843925     7B2     0.861450  
       7B1     0.861450     3A2     0.871142    17A1     0.871142  
      18A1     1.051085     8B2     1.060150     8B1     1.060150  
      19A1     1.307970    20A1     1.528560     9B2     1.575002  
       9B1     1.575002    21A1     1.720820     4A2     1.720821  
      22A1     1.895293    10B1     1.947157    10B2     1.947157  
      23A1     2.304961    11B2     2.585663    11B1     2.585663  
      12B1     2.751574    12B2     2.751574     5A2     2.789990  
      24A1     2.789996     6A2     2.972601    25A1     2.972617  
      26A1     3.037112    13B2     3.116853    13B1     3.116853  
      27A1     3.179957    14B1     3.601590    14B2     3.601590  
      28A1     4.046196    29A1     4.213637    15B2     4.979356  
      15B1     4.979356     7A2     5.383135    30A1     5.383144  
      16B1     6.052084    16B2     6.052084    31A1     6.207588  
       8A2     6.207686    32A1     6.343676    17B1     6.555250  
      17B2     6.555250    33A1     6.957203    34A1    21.268462  
      35A1    42.025494  

    Final Occupation by Irrep:
             A1    A2    B1    B2 
    DOCC [     5,    0,    1,    1 ]

  @DF-RKS Final Energy:  -113.24415385420136

   => Energetics <=

    Nuclear Repulsion Energy =             22.4860846771540643
    One-Electron Energy =                -198.3438679112725254
    Two-Electron Energy =                  70.5323153693151994
    DFT Exchange-Correlation Energy =      -7.9186722193980721
    Empirical Dispersion Energy =          -0.0000137700000000
    VV10 Nonlocal Energy =                  0.0000000000000000
    Total Energy =                       -113.2441538542013433

Computation Completed


Properties will be evaluated at   0.000000,   0.000000,   0.000000 [a0]

Properties computed using the SCF density matrix

  Nuclear Dipole Moment: [e a0]
     X:     0.0000      Y:     0.0000      Z:    -0.0023

  Electronic Dipole Moment: [e a0]
     X:     0.0000      Y:     0.0000      Z:    -0.0111

  Dipole Moment: [e a0]
     X:     0.0000      Y:     0.0000      Z:    -0.0134     Total:     0.0134

  Dipole Moment: [D]
     X:     0.0000      Y:     0.0000      Z:    -0.0341     Total:     0.0341


*** tstop() called on compute399.bc4.acrc.priv at Sun Nov  7 05:05:23 2021
Module time:
	user time   =      19.40 seconds =       0.32 minutes
	system time =       1.36 seconds =       0.02 minutes
	total time  =          3 seconds =       0.05 minutes
Total time:
	user time   =      19.40 seconds =       0.32 minutes
	system time =       1.36 seconds =       0.02 minutes
	total time  =          3 seconds =       0.05 minutes

    Psi4 stopped on: Sunday, 07 November 2021 05:05AM
    Psi4 wall time for execution: 0:00:02.27

*** Psi4 exiting successfully. Buy a developer a beer!
