
    -----------------------------------------------------------------------
          Psi4: An Open-Source Ab Initio Electronic Structure Package
                               Psi4 1.4.1 release

                         Git: Rev {HEAD} cd00f19 


    D. G. A. Smith, L. A. Burns, A. C. Simmonett, R. M. Parrish,
    M. C. Schieber, R. Galvelis, P. Kraus, H. Kruse, R. Di Remigio,
    A. Alenaizan, A. M. James, S. Lehtola, J. P. Misiewicz, M. Scheurer,
    R. A. Shaw, J. B. Schriber, Y. Xie, Z. L. Glick, D. A. Sirianni,
    J. S. O'Brien, J. M. Waldrop, A. Kumar, E. G. Hohenstein,
    B. P. Pritchard, B. R. Brooks, H. F. Schaefer III, A. Yu. Sokolov,
    K. Patkowski, A. E. DePrince III, U. Bozkaya, R. A. King,
    F. A. Evangelista, J. M. Turney, T. D. Crawford, C. D. Sherrill,
    J. Chem. Phys. 152(18) 184108 (2020). https://doi.org/10.1063/5.0006002

                            Additional Code Authors
    E. T. Seidl, C. L. Janssen, E. F. Valeev, M. L. Leininger,
    J. F. Gonthier, R. M. Richard, H. R. McAlexander, M. Saitow, X. Wang,
    P. Verma, and M. H. Lechner

             Previous Authors, Complete List of Code Contributors,
                       and Citations for Specific Modules
    https://github.com/psi4/psi4/blob/master/codemeta.json
    https://github.com/psi4/psi4/graphs/contributors
    http://psicode.org/psi4manual/master/introduction.html#citing-psifour

    -----------------------------------------------------------------------


    Psi4 started on: Sunday, 07 November 2021 05:05AM

    Process ID: 14045
    Host:       compute191.bc4.acrc.priv
    PSIDATADIR: /mnt/storage/home/zw18965/.conda/envs/p4env/share/psi4
    Memory:     500.0 MiB
    Threads:    28
    
  ==> Input File <==

--------------------------------------------------------------------------
memory 120 GB

molecule {
0 7
Cr         0.00000        0.00000        0.00000
 }

set reference uks
set dynamic_level 1
set basis Def2-TZVPPD

energy("MN15-D3BJ")
--------------------------------------------------------------------------

  Memory set to 111.759 GiB by Python driver.

Scratch directory: /tmp/

*** tstart() called on compute191.bc4.acrc.priv
*** at Sun Nov  7 05:05:24 2021

   => Loading Basis Set <=

    Name: DEF2-TZVPPD
    Role: ORBITAL
    Keyword: BASIS
    atoms 1 entry CR         line   985 file /mnt/storage/home/zw18965/.conda/envs/p4env/share/psi4/basis/def2-tzvppd.gbs 

   => MN15-D3(BJ): Empirical Dispersion <=

    Grimme's -D3 (BJ-damping) Dispersion Correction
    Grimme S.; Ehrlich S.; Goerigk L. (2011), J. Comput. Chem., 32: 1456
    Parametrisation from:    L. Goerigk, A. Hansen, C. Bauer, S. Ehrlich, A. Najibi, S. Grimme, Phys. Chem. Chem. Phys. 19, 32184-32215, 2017

        s6 =       1.000000
        s8 =       2.097100
        a1 =       0.786200
        a2 =       7.592300


         ---------------------------------------------------------
                                   SCF
               by Justin Turney, Rob Parrish, Andy Simmonett
                          and Daniel G. A. Smith
                              UKS Reference
                       28 Threads, 114440 MiB Core
         ---------------------------------------------------------

  ==> Geometry <==

    Molecular point group: d2h
    Geometry (in Angstrom), charge = 0, multiplicity = 7:

       Center              X                  Y                   Z               Mass       
    ------------   -----------------  -----------------  -----------------  -----------------
         CR           0.000000000000     0.000000000000     0.000000000000    51.940506230000

  Running in d2h symmetry.

  Rotational constants: A = ************  B = ************  C = ************ [cm^-1]
  Rotational constants: A = ************  B = ************  C = ************ [MHz]
  Nuclear repulsion =    0.000000000000000

  Charge       = 0
  Multiplicity = 7
  Electrons    = 24
  Nalpha       = 15
  Nbeta        = 9

  ==> Algorithm <==

  SCF Algorithm Type is DF.
  DIIS enabled.
  MOM disabled.
  Fractional occupation disabled.
  Guess Type is CORE.
  Energy threshold   = 1.00e-06
  Density threshold  = 1.00e-06
  Integral threshold = 1.00e-12

  ==> Primary Basis <==

  Basis Set: DEF2-TZVPPD
    Blend: DEF2-TZVPPD
    Number of shells: 19
    Number of basis functions: 67
    Number of Cartesian functions: 83
    Spherical Harmonics?: true
    Max angular momentum: 4

  ==> DFT Potential <==

   => Composite Functional: MN15-D3BJ <= 

   MN15 Hybrid Meta-GGA Exchange-Correlation Functional

    H. S. Yu, X. He, S. L. Li, and D. G. Truhlar, Chem. Sci. 7, 5032-5051, 2016


    Deriv               =              1
    GGA                 =           TRUE
    Meta                =           TRUE

    Exchange Hybrid     =           TRUE
    MP2 Hybrid          =          FALSE

   => Exchange Functionals <=

    1.0000   XC_HYB_MGGA_X_MN15

   => Exact (HF) Exchange <=

    0.4400               HF 

   => Correlation Functionals <=

    1.0000   XC_MGGA_C_MN15

   => LibXC Density Thresholds  <==

    XC_MGGA_C_MN15:  1.00E-15 
    XC_HYB_MGGA_X_MN15:  1.00E-15 

   => Molecular Quadrature <=

    Radial Scheme          =       TREUTLER
    Pruning Scheme         =           NONE
    Nuclear Scheme         =       TREUTLER

    BS radius alpha        =              1
    Pruning alpha          =              1
    Radial Points          =             75
    Spherical Points       =            302
    Total Points           =          21738
    Total Blocks           =            247
    Max Points             =            245
    Max Functions          =             67
    Weights Tolerance      =       1.00E-15

   => Loading Basis Set <=

    Name: (DEF2-TZVPPD AUX)
    Role: JKFIT
    Keyword: DF_BASIS_SCF
    atoms 1 entry CR         line  1726 file /mnt/storage/home/zw18965/.conda/envs/p4env/share/psi4/basis/def2-universal-jkfit.gbs 

  ==> Integral Setup <==

  DFHelper Memory: AOs need 0.012 GiB; user supplied 83.729 GiB. Using in-core AOs.

  ==> MemDFJK: Density-Fitted J/K Matrices <==

    J tasked:                   Yes
    K tasked:                   Yes
    wK tasked:                   No
    OpenMP threads:              28
    Memory [MiB]:             85738
    Algorithm:                 Core
    Schwarz Cutoff:           1E-12
    Mask sparsity (%):       0.0000
    Fitting Condition:        1E-10

   => Auxiliary Basis Set <=

  Basis Set: (DEF2-TZVPPD AUX)
    Blend: DEF2-UNIVERSAL-JKFIT
    Number of shells: 58
    Number of basis functions: 264
    Number of Cartesian functions: 377
    Spherical Harmonics?: true
    Max angular momentum: 6

  Cached 100.0% of DFT collocation blocks in 0.090 [GiB].

  Minimum eigenvalue in the overlap matrix is 4.1662433519E-02.
  Reciprocal condition number of the overlap matrix is 1.4972218160E-02.
    Using symmetric orthogonalization.

  ==> Pre-Iterations <==

  SCF Guess: Core (One-Electron) Hamiltonian.

   -------------------------------------------------------
    Irrep   Nso     Nmo     Nalpha   Nbeta   Ndocc  Nsocc
   -------------------------------------------------------
     Ag        17      17       5       3       3       2
     B1g        6       6       1       0       0       1
     B2g        6       6       1       0       0       1
     B3g        6       6       1       0       0       1
     Au         2       2       0       0       0       0
     B1u       10      10       3       2       2       1
     B2u       10      10       2       2       2       0
     B3u       10      10       2       2       2       0
   -------------------------------------------------------
    Total      67      67      15       9       9       6
   -------------------------------------------------------

  ==> Iterations <==

                           Total Energy        Delta E     RMS |[F,P]|

    Occupation by irrep:
             Ag   B1g   B2g   B3g    Au   B1u   B2u   B3u 
    DOCC [     3,    0,    0,    0,    0,    2,    2,    2 ]
    SOCC [     2,    1,    0,    0,    0,    1,    1,    1 ]

   @DF-UKS iter   1: -1022.17076313655809   -1.02217e+03   2.18797e-01 DIIS
    Occupation by irrep:
             Ag   B1g   B2g   B3g    Au   B1u   B2u   B3u 
    DOCC [     3,    0,    0,    0,    0,    2,    2,    2 ]
    SOCC [     3,    1,    1,    1,    0,    0,    0,    0 ]

   @DF-UKS iter   2:  -998.59477252103329    2.35760e+01   2.90121e-01 DIIS
   @DF-UKS iter   3: -1044.02198907635170   -4.54272e+01   3.43141e-02 DIIS
   @DF-UKS iter   4: -1044.34765541301067   -3.25666e-01   2.59333e-02 DIIS
   @DF-UKS iter   5: -1044.44547171949944   -9.78163e-02   9.60796e-03 DIIS
   @DF-UKS iter   6: -1044.46274776651558   -1.72760e-02   2.69846e-04 DIIS
   @DF-UKS iter   7: -1044.46278741563265   -3.96491e-05   2.15737e-04 DIIS
   @DF-UKS iter   8: -1044.46280098073521   -1.35651e-05   5.23883e-05 DIIS
   @DF-UKS iter   9: -1044.46280209350175   -1.11277e-06   6.94477e-06 DIIS
   @DF-UKS iter  10: -1044.46280210328564   -9.78389e-09   3.32559e-07 DIIS
  Energy and wave function converged.


  ==> Post-Iterations <==

   Electrons on quadrature grid:
      Nalpha   =   15.0000001122 ; deviation = 1.122e-07
      Nbeta    =    9.0000001121 ; deviation = 1.121e-07
      Ntotal   =   24.0000002243 ; deviation = 2.243e-07 

   @Spin Contamination Metric:   7.148220604E-04
   @S^2 Expected:                1.200000000E+01
   @S^2 Observed:                1.200071482E+01
   @S   Expected:                3.000000000E+00
   @S   Observed:                3.000000000E+00

    Orbital Energies [Eh]
    ---------------------

    Alpha Occupied:                                                       

       1Ag  -213.788159     2Ag   -23.930674     1B3u  -20.705874  
       1B1u  -20.705874     1B2u  -20.705874     3Ag    -2.746845  
       2B2u   -1.815380     2B3u   -1.815380     2B1u   -1.815380  
       4Ag    -0.226980     1B1g   -0.226980     5Ag    -0.226980  
       1B3g   -0.226980     1B2g   -0.226980     6Ag    -0.189031  

    Alpha Virtual:                                                        

       3B2u   -0.004089     3B3u   -0.004089     3B1u   -0.004089  
       4B3u    0.117039     4B1u    0.117039     4B2u    0.117039  
       7Ag     0.117800     2B3g    0.135657     8Ag     0.135657  
       2B1g    0.135657     2B2g    0.135657     9Ag     0.135657  
       5B1u    0.451712     5B3u    0.451712     5B2u    0.451712  
       3B2g    0.561428     3B3g    0.561428    10Ag     0.561428  
       3B1g    0.561428    11Ag     0.561428     6B1u    1.541967  
       1Au     1.541967     6B3u    1.541967     6B2u    1.541967  
       7B3u    1.541967     7B2u    1.541967     7B1u    1.541967  
       8B3u    1.806815     8B1u    1.806815     8B2u    1.806815  
      12Ag     1.993354     4B3g    2.088773     4B2g    2.088773  
      13Ag     2.088773     4B1g    2.088773    14Ag     2.088773  
       5B2g    5.513618     5B3g    5.513618    15Ag     5.513618  
       5B1g    5.513618    16Ag     5.513618     6B3g    5.513618  
       6B1g    5.513618     6B2g    5.513618    17Ag     5.513618  
       9B1u    6.169308     2Au     6.169308     9B2u    6.169308  
       9B3u    6.169308    10B2u    6.169308    10B3u    6.169308  
      10B1u    6.169308  

    Beta Occupied:                                                        

       1Ag  -213.790585     2Ag   -23.908382     1B3u  -20.675789  
       1B2u  -20.675789     1B1u  -20.675789     3Ag    -2.647030  
       2B3u   -1.671976     2B2u   -1.671976     2B1u   -1.671976  

    Beta Virtual:                                                         

       3B1u    0.078635     3B3u    0.078635     3B2u    0.078636  
       4Ag     0.094128     1B2g    0.138195     5Ag     0.138195  
       1B3g    0.138195     1B1g    0.138195     6Ag     0.138195  
       7Ag     0.210409     4B1u    0.255310     4B3u    0.255310  
       4B2u    0.255310     8Ag     0.269642     2B2g    0.269642  
       2B3g    0.269642     2B1g    0.269642     9Ag     0.269642  
       5B1u    0.565990     5B3u    0.565990     5B2u    0.565991  
      10Ag     0.694083     3B2g    0.694084     3B3g    0.694084  
       3B1g    0.694084    11Ag     0.694084     6B1u    1.668514  
       6B3u    1.668514     1Au     1.668514     6B2u    1.668514  
       7B1u    1.668514     7B3u    1.668514     7B2u    1.668514  
       8B1u    1.898055     8B3u    1.898055     8B2u    1.898055  
      12Ag     2.099621     4B2g    2.200076    13Ag     2.200076  
       4B3g    2.200076     4B1g    2.200076    14Ag     2.200076  
       5B2g    5.666444     5B3g    5.666444    15Ag     5.666444  
       5B1g    5.666444     6B2g    5.666444     6B3g    5.666444  
      16Ag     5.666444     6B1g    5.666444    17Ag     5.666444  
       9B1u    6.257489     2Au     6.257489     9B3u    6.257489  
       9B2u    6.257489    10B3u    6.257489    10B2u    6.257489  
      10B1u    6.257489  

    Final Occupation by Irrep:
             Ag   B1g   B2g   B3g    Au   B1u   B2u   B3u 
    DOCC [     3,    0,    0,    0,    0,    2,    2,    2 ]
    SOCC [     3,    1,    1,    1,    0,    0,    0,    0 ]

  @DF-UKS Final Energy: -1044.46280210328564

   => Energetics <=

    Nuclear Repulsion Energy =              0.0000000000000000
    One-Electron Energy =               -1438.9338336516595973
    Two-Electron Energy =                 422.3143471240744020
    DFT Exchange-Correlation Energy =     -27.8433155757005117
    Empirical Dispersion Energy =           0.0000000000000000
    VV10 Nonlocal Energy =                  0.0000000000000000
    Total Energy =                      -1044.4628021032856395

  UHF NO Occupations:
  HONO-2 :    1B2g 1.0000000
  HONO-1 :    1B1g 1.0000000
  HONO-0 :    6 Ag 1.0000000
  LUNO+0 :    3B2u 0.0001057
  LUNO+1 :    3B3u 0.0001057
  LUNO+2 :    3B1u 0.0001057
  LUNO+3 :    7 Ag 0.0000403


Computation Completed


Properties will be evaluated at   0.000000,   0.000000,   0.000000 [a0]

Properties computed using the SCF density matrix

  Nuclear Dipole Moment: [e a0]
     X:     0.0000      Y:     0.0000      Z:     0.0000

  Electronic Dipole Moment: [e a0]
     X:     0.0000      Y:     0.0000      Z:     0.0000

  Dipole Moment: [e a0]
     X:     0.0000      Y:     0.0000      Z:     0.0000     Total:     0.0000

  Dipole Moment: [D]
     X:     0.0000      Y:     0.0000      Z:     0.0000     Total:     0.0000


*** tstop() called on compute191.bc4.acrc.priv at Sun Nov  7 05:05:28 2021
Module time:
	user time   =      61.01 seconds =       1.02 minutes
	system time =       2.47 seconds =       0.04 minutes
	total time  =          4 seconds =       0.07 minutes
Total time:
	user time   =      61.01 seconds =       1.02 minutes
	system time =       2.47 seconds =       0.04 minutes
	total time  =          4 seconds =       0.07 minutes

    Psi4 stopped on: Sunday, 07 November 2021 05:05AM
    Psi4 wall time for execution: 0:00:03.87

*** Psi4 exiting successfully. Buy a developer a beer!
