
    -----------------------------------------------------------------------
          Psi4: An Open-Source Ab Initio Electronic Structure Package
                               Psi4 1.4.1 release

                         Git: Rev {HEAD} cd00f19 


    D. G. A. Smith, L. A. Burns, A. C. Simmonett, R. M. Parrish,
    M. C. Schieber, R. Galvelis, P. Kraus, H. Kruse, R. Di Remigio,
    A. Alenaizan, A. M. James, S. Lehtola, J. P. Misiewicz, M. Scheurer,
    R. A. Shaw, J. B. Schriber, Y. Xie, Z. L. Glick, D. A. Sirianni,
    J. S. O'Brien, J. M. Waldrop, A. Kumar, E. G. Hohenstein,
    B. P. Pritchard, B. R. Brooks, H. F. Schaefer III, A. Yu. Sokolov,
    K. Patkowski, A. E. DePrince III, U. Bozkaya, R. A. King,
    F. A. Evangelista, J. M. Turney, T. D. Crawford, C. D. Sherrill,
    J. Chem. Phys. 152(18) 184108 (2020). https://doi.org/10.1063/5.0006002

                            Additional Code Authors
    E. T. Seidl, C. L. Janssen, E. F. Valeev, M. L. Leininger,
    J. F. Gonthier, R. M. Richard, H. R. McAlexander, M. Saitow, X. Wang,
    P. Verma, and M. H. Lechner

             Previous Authors, Complete List of Code Contributors,
                       and Citations for Specific Modules
    https://github.com/psi4/psi4/blob/master/codemeta.json
    https://github.com/psi4/psi4/graphs/contributors
    http://psicode.org/psi4manual/master/introduction.html#citing-psifour

    -----------------------------------------------------------------------


    Psi4 started on: Sunday, 07 November 2021 05:05AM

    Process ID: 27016
    Host:       compute303.bc4.acrc.priv
    PSIDATADIR: /mnt/storage/home/zw18965/.conda/envs/p4env/share/psi4
    Memory:     500.0 MiB
    Threads:    28
    
  ==> Input File <==

--------------------------------------------------------------------------
memory 120 GB

molecule {
0 1
Cr         0.00000        0.00000        0.00000
Cr         0.00000        0.00000        1.68000
 }

set dynamic_level 1
set basis Def2-TZVPPD

energy("MN15-D3BJ")
--------------------------------------------------------------------------

  Memory set to 111.759 GiB by Python driver.

Scratch directory: /tmp/

*** tstart() called on compute303.bc4.acrc.priv
*** at Sun Nov  7 05:05:24 2021

   => Loading Basis Set <=

    Name: DEF2-TZVPPD
    Role: ORBITAL
    Keyword: BASIS
    atoms 1-2 entry CR         line   985 file /mnt/storage/home/zw18965/.conda/envs/p4env/share/psi4/basis/def2-tzvppd.gbs 

   => MN15-D3(BJ): Empirical Dispersion <=

    Grimme's -D3 (BJ-damping) Dispersion Correction
    Grimme S.; Ehrlich S.; Goerigk L. (2011), J. Comput. Chem., 32: 1456
    Parametrisation from:    L. Goerigk, A. Hansen, C. Bauer, S. Ehrlich, A. Najibi, S. Grimme, Phys. Chem. Chem. Phys. 19, 32184-32215, 2017

        s6 =       1.000000
        s8 =       2.097100
        a1 =       0.786200
        a2 =       7.592300


         ---------------------------------------------------------
                                   SCF
               by Justin Turney, Rob Parrish, Andy Simmonett
                          and Daniel G. A. Smith
                              RKS Reference
                       28 Threads, 114440 MiB Core
         ---------------------------------------------------------

  ==> Geometry <==

    Molecular point group: d2h
    Full point group: D_inf_h

    Geometry (in Angstrom), charge = 0, multiplicity = 1:

       Center              X                  Y                   Z               Mass       
    ------------   -----------------  -----------------  -----------------  -----------------
         CR           0.000000000000     0.000000000000    -0.840000000000    51.940506230000
         CR           0.000000000000     0.000000000000     0.840000000000    51.940506230000

  Running in d2h symmetry.

  Rotational constants: A = ************  B =      0.22999  C =      0.22999 [cm^-1]
  Rotational constants: A = ************  B =   6894.81239  C =   6894.81239 [MHz]
  Nuclear repulsion =  181.432186515428612

  Charge       = 0
  Multiplicity = 1
  Electrons    = 48
  Nalpha       = 24
  Nbeta        = 24

  ==> Algorithm <==

  SCF Algorithm Type is DF.
  DIIS enabled.
  MOM disabled.
  Fractional occupation disabled.
  Guess Type is SAD.
  Energy threshold   = 1.00e-06
  Density threshold  = 1.00e-06
  Integral threshold = 1.00e-12

  ==> Primary Basis <==

  Basis Set: DEF2-TZVPPD
    Blend: DEF2-TZVPPD
    Number of shells: 38
    Number of basis functions: 134
    Number of Cartesian functions: 166
    Spherical Harmonics?: true
    Max angular momentum: 4

  ==> DFT Potential <==

   => Composite Functional: MN15-D3BJ <= 

   MN15 Hybrid Meta-GGA Exchange-Correlation Functional

    H. S. Yu, X. He, S. L. Li, and D. G. Truhlar, Chem. Sci. 7, 5032-5051, 2016


    Deriv               =              1
    GGA                 =           TRUE
    Meta                =           TRUE

    Exchange Hybrid     =           TRUE
    MP2 Hybrid          =          FALSE

   => Exchange Functionals <=

    1.0000   XC_HYB_MGGA_X_MN15

   => Exact (HF) Exchange <=

    0.4400               HF 

   => Correlation Functionals <=

    1.0000   XC_MGGA_C_MN15

   => LibXC Density Thresholds  <==

    XC_MGGA_C_MN15:  1.00E-15 
    XC_HYB_MGGA_X_MN15:  1.00E-15 

   => Molecular Quadrature <=

    Radial Scheme          =       TREUTLER
    Pruning Scheme         =           NONE
    Nuclear Scheme         =       TREUTLER

    BS radius alpha        =              1
    Pruning alpha          =              1
    Radial Points          =             75
    Spherical Points       =            302
    Total Points           =          43692
    Total Blocks           =            436
    Max Points             =            255
    Max Functions          =            133
    Weights Tolerance      =       1.00E-15

   => Loading Basis Set <=

    Name: (DEF2-TZVPPD AUX)
    Role: JKFIT
    Keyword: DF_BASIS_SCF
    atoms 1-2 entry CR         line  1726 file /mnt/storage/home/zw18965/.conda/envs/p4env/share/psi4/basis/def2-universal-jkfit.gbs 

  ==> Integral Setup <==

  DFHelper Memory: AOs need 0.081 GiB; user supplied 83.479 GiB. Using in-core AOs.

  ==> MemDFJK: Density-Fitted J/K Matrices <==

    J tasked:                   Yes
    K tasked:                   Yes
    wK tasked:                   No
    OpenMP threads:              28
    Memory [MiB]:             85482
    Algorithm:                 Core
    Schwarz Cutoff:           1E-12
    Mask sparsity (%):       0.2896
    Fitting Condition:        1E-10

   => Auxiliary Basis Set <=

  Basis Set: (DEF2-TZVPPD AUX)
    Blend: DEF2-UNIVERSAL-JKFIT
    Number of shells: 116
    Number of basis functions: 528
    Number of Cartesian functions: 754
    Spherical Harmonics?: true
    Max angular momentum: 6

  Cached 100.0% of DFT collocation blocks in 0.340 [GiB].

  Minimum eigenvalue in the overlap matrix is 1.6223487494E-04.
  Reciprocal condition number of the overlap matrix is 3.0882737450E-05.
    Using symmetric orthogonalization.

  ==> Pre-Iterations <==

  SCF Guess: Superposition of Atomic Densities via on-the-fly atomic UHF (no occupation information).

   -------------------------
    Irrep   Nso     Nmo    
   -------------------------
     Ag        27      27 
     B1g        8       8 
     B2g       16      16 
     B3g       16      16 
     Au         8       8 
     B1u       27      27 
     B2u       16      16 
     B3u       16      16 
   -------------------------
    Total     134     134
   -------------------------

  ==> Iterations <==

                           Total Energy        Delta E     RMS |[F,P]|

   @DF-RKS iter SAD: -2087.92172940557020   -2.08792e+03   0.00000e+00 
    Occupation by irrep:
             Ag   B1g   B2g   B3g    Au   B1u   B2u   B3u 
    DOCC [     6,    0,    3,    3,    0,    6,    3,    3 ]

   @DF-RKS iter   1: -2086.64989984942895    1.27183e+00   5.00771e-02 DIIS
    Occupation by irrep:
             Ag   B1g   B2g   B3g    Au   B1u   B2u   B3u 
    DOCC [     7,    1,    2,    2,    1,    5,    3,    3 ]

   @DF-RKS iter   2: -2063.63747944124452    2.30124e+01   1.07716e-01 DIIS
    Occupation by irrep:
             Ag   B1g   B2g   B3g    Au   B1u   B2u   B3u 
    DOCC [     7,    1,    2,    2,    0,    6,    3,    3 ]

   @DF-RKS iter   3: -2088.06223734712876   -2.44248e+01   2.15534e-02 DIIS
    Occupation by irrep:
             Ag   B1g   B2g   B3g    Au   B1u   B2u   B3u 
    DOCC [     8,    1,    2,    2,    0,    5,    3,    3 ]

   @DF-RKS iter   4: -2086.19353276960646    1.86870e+00   4.49783e-02 DIIS
   @DF-RKS iter   5: -2088.53472793979336   -2.34120e+00   1.84440e-02 DIIS
   @DF-RKS iter   6: -2088.70146975747912   -1.66742e-01   1.16706e-02 DIIS
   @DF-RKS iter   7: -2088.82897340235604   -1.27504e-01   1.66050e-03 DIIS
   @DF-RKS iter   8: -2088.83065025887163   -1.67686e-03   1.21723e-03 DIIS
   @DF-RKS iter   9: -2088.83194706572931   -1.29681e-03   1.25647e-04 DIIS
   @DF-RKS iter  10: -2088.83199736248616   -5.02968e-05   7.31298e-05 DIIS
   @DF-RKS iter  11: -2088.83200470124893   -7.33876e-06   4.69225e-06 DIIS
   @DF-RKS iter  12: -2088.83200481677522   -1.15526e-07   1.41984e-06 DIIS
   @DF-RKS iter  13: -2088.83200482069788   -3.92265e-09   1.32964e-07 DIIS
  Energy and wave function converged.


  ==> Post-Iterations <==

   Electrons on quadrature grid:
      Ntotal   =   48.0000123616 ; deviation = 1.236e-05 

    Orbital Energies [Eh]
    ---------------------

    Doubly Occupied:                                                      

       1B1u -213.915884     1Ag  -213.915847     2B1u  -24.060046  
       2Ag   -24.059482     1B2u  -20.828701     1B3u  -20.828701  
       1B3g  -20.828560     1B2g  -20.828560     3Ag   -20.826030  
       3B1u  -20.825885     4Ag    -2.859078     4B1u   -2.789521  
       5Ag    -1.966851     2B2u   -1.878138     2B3u   -1.878138  
       2B3g   -1.837586     2B2g   -1.837586     5B1u   -1.774419  
       3B3u   -0.310793     3B2u   -0.310793     6Ag    -0.300230  
       1B1g   -0.228790     7Ag    -0.228774     8Ag    -0.209410  

    Virtual:                                                              

       6B1u   -0.068693     1Au    -0.036648     7B1u   -0.036627  
       4B2u   -0.032622     4B3u   -0.032622     3B3g   -0.008001  
       3B2g   -0.008001     8B1u    0.023895     9Ag     0.042916  
       9B1u    0.059931     4B3g    0.075291     4B2g    0.075291  
      10Ag     0.099820     5B2u    0.103991     5B3u    0.103991  
       2B1g    0.118528    11Ag     0.118531    12Ag     0.137239  
       5B3g    0.155041     5B2g    0.155041     6B3u    0.171658  
       6B2u    0.171658    10B1u    0.180884     2Au     0.182163  
      11B1u    0.182164    12B1u    0.185257     6B2g    0.274701  
       6B3g    0.274701    13Ag     0.281492     7B2u    0.408701  
       7B3u    0.408701    13B1u    0.428859    14Ag     0.499880  
       3B1g    0.516395    15Ag     0.516409     7B2g    0.549767  
       7B3g    0.549767     8B2u    0.595052     8B3u    0.595052  
      14B1u    0.600470     3Au     0.611032    15B1u    0.611039  
      16Ag     0.627540     8B2g    0.708182     8B3g    0.708182  
      16B1u    0.870179    17Ag     1.350145     4B1g    1.350208  
       9B2u    1.465051     9B3u    1.465051    10B2u    1.484160  
      10B3u    1.484160     9B3g    1.637598     9B2g    1.637598  
      17B1u    1.651324    18Ag     1.660352    19Ag     1.696777  
      11B3u    1.843031    11B2u    1.843031    10B2g    1.912446  
      10B3g    1.912446    18B1u    1.928381     4Au     1.928397  
      11B3g    1.975903    11B2g    1.975903    19B1u    1.996533  
      20Ag     2.032531     5B1g    2.032593    12B2u    2.042242  
      12B3u    2.042242    20B1u    2.138858     5Au     2.138969  
      21Ag     2.155575    21B1u    2.457987    22Ag     2.798111  
      12B2g    2.831393    12B3g    2.831393    22B1u    4.015936  
      13B3u    5.119069    13B2u    5.119069    23Ag     5.181418  
       6B1g    5.209337    24Ag     5.209348    14B3u    5.402076  
      14B2u    5.402076    25Ag     5.495056     7B1g    5.495312  
      23B1u    5.511468     6Au     5.511722    13B2g    5.572530  
      13B3g    5.572530    24B1u    5.810161     7Au     5.810183  
      15B3u    6.093554    15B2u    6.093554    26Ag     6.094697  
       8B1g    6.094755    14B2g    6.097937    14B3g    6.097937  
      25B1u    6.102580    15B2g    6.156395    15B3g    6.156395  
      16B3u    6.342200    16B2u    6.342200    26B1u    6.367942  
       8Au     6.367960    27B1u    6.650893    27Ag     6.714700  
      16B2g    6.880268    16B3g    6.880268  

    Final Occupation by Irrep:
             Ag   B1g   B2g   B3g    Au   B1u   B2u   B3u 
    DOCC [     8,    1,    2,    2,    0,    5,    3,    3 ]

  @DF-RKS Final Energy: -2088.83200482069788

   => Energetics <=

    Nuclear Repulsion Energy =            181.4321865154286115
    One-Electron Energy =               -3235.5399550707547860
    Two-Electron Energy =                1020.9931518998565707
    DFT Exchange-Correlation Energy =     -55.7173339352280124
    Empirical Dispersion Energy =          -0.0000542300000000
    VV10 Nonlocal Energy =                  0.0000000000000000
    Total Energy =                      -2088.8320048206978754

Computation Completed


Properties will be evaluated at   0.000000,   0.000000,   0.000000 [a0]

Properties computed using the SCF density matrix

  Nuclear Dipole Moment: [e a0]
     X:     0.0000      Y:     0.0000      Z:    -0.0000

  Electronic Dipole Moment: [e a0]
     X:     0.0000      Y:     0.0000      Z:     0.0000

  Dipole Moment: [e a0]
     X:     0.0000      Y:     0.0000      Z:    -0.0000     Total:     0.0000

  Dipole Moment: [D]
     X:     0.0000      Y:     0.0000      Z:    -0.0000     Total:     0.0000


*** tstop() called on compute303.bc4.acrc.priv at Sun Nov  7 05:05:28 2021
Module time:
	user time   =      49.09 seconds =       0.82 minutes
	system time =       2.78 seconds =       0.05 minutes
	total time  =          4 seconds =       0.07 minutes
Total time:
	user time   =      49.09 seconds =       0.82 minutes
	system time =       2.78 seconds =       0.05 minutes
	total time  =          4 seconds =       0.07 minutes

    Psi4 stopped on: Sunday, 07 November 2021 05:05AM
    Psi4 wall time for execution: 0:00:04.01

*** Psi4 exiting successfully. Buy a developer a beer!
