
    -----------------------------------------------------------------------
          Psi4: An Open-Source Ab Initio Electronic Structure Package
                               Psi4 1.4.1 release

                         Git: Rev {HEAD} cd00f19 


    D. G. A. Smith, L. A. Burns, A. C. Simmonett, R. M. Parrish,
    M. C. Schieber, R. Galvelis, P. Kraus, H. Kruse, R. Di Remigio,
    A. Alenaizan, A. M. James, S. Lehtola, J. P. Misiewicz, M. Scheurer,
    R. A. Shaw, J. B. Schriber, Y. Xie, Z. L. Glick, D. A. Sirianni,
    J. S. O'Brien, J. M. Waldrop, A. Kumar, E. G. Hohenstein,
    B. P. Pritchard, B. R. Brooks, H. F. Schaefer III, A. Yu. Sokolov,
    K. Patkowski, A. E. DePrince III, U. Bozkaya, R. A. King,
    F. A. Evangelista, J. M. Turney, T. D. Crawford, C. D. Sherrill,
    J. Chem. Phys. 152(18) 184108 (2020). https://doi.org/10.1063/5.0006002

                            Additional Code Authors
    E. T. Seidl, C. L. Janssen, E. F. Valeev, M. L. Leininger,
    J. F. Gonthier, R. M. Richard, H. R. McAlexander, M. Saitow, X. Wang,
    P. Verma, and M. H. Lechner

             Previous Authors, Complete List of Code Contributors,
                       and Citations for Specific Modules
    https://github.com/psi4/psi4/blob/master/codemeta.json
    https://github.com/psi4/psi4/graphs/contributors
    http://psicode.org/psi4manual/master/introduction.html#citing-psifour

    -----------------------------------------------------------------------


    Psi4 started on: Sunday, 07 November 2021 05:05AM

    Process ID: 20734
    Host:       compute270.bc4.acrc.priv
    PSIDATADIR: /mnt/storage/home/zw18965/.conda/envs/p4env/share/psi4
    Memory:     500.0 MiB
    Threads:    28
    
  ==> Input File <==

--------------------------------------------------------------------------
memory 120 GB

molecule {
0 1
Fe        -0.20173       -0.07205       -0.00000
C          1.72826       -0.07205        0.00000
O          2.84367       -0.07205        0.00000
C         -0.20170       -0.07205       -1.93000
O         -0.20173       -0.07205       -3.04540
C         -0.20170       -0.07205        1.93000
O         -0.20173       -0.07205        3.04540
C         -1.16675       -1.74347        0.00000
O         -1.72443       -2.70944        0.00000
C         -1.16675        1.59938        0.00000
O         -1.72443        2.56535        0.00000
 }

set dynamic_level 1
set basis Def2-TZVPPD

energy("MN15-D3BJ")
--------------------------------------------------------------------------

  Memory set to 111.759 GiB by Python driver.

Scratch directory: /tmp/

*** tstart() called on compute270.bc4.acrc.priv
*** at Sun Nov  7 05:05:24 2021

   => Loading Basis Set <=

    Name: DEF2-TZVPPD
    Role: ORBITAL
    Keyword: BASIS
    atoms 1              entry FE         line  1107 file /mnt/storage/home/zw18965/.conda/envs/p4env/share/psi4/basis/def2-tzvppd.gbs 
    atoms 2, 4, 6, 8, 10 entry C          line   144 file /mnt/storage/home/zw18965/.conda/envs/p4env/share/psi4/basis/def2-tzvppd.gbs 
    atoms 3, 5, 7, 9, 11 entry O          line   218 file /mnt/storage/home/zw18965/.conda/envs/p4env/share/psi4/basis/def2-tzvppd.gbs 

   => MN15-D3(BJ): Empirical Dispersion <=

    Grimme's -D3 (BJ-damping) Dispersion Correction
    Grimme S.; Ehrlich S.; Goerigk L. (2011), J. Comput. Chem., 32: 1456
    Parametrisation from:    L. Goerigk, A. Hansen, C. Bauer, S. Ehrlich, A. Najibi, S. Grimme, Phys. Chem. Chem. Phys. 19, 32184-32215, 2017

        s6 =       1.000000
        s8 =       2.097100
        a1 =       0.786200
        a2 =       7.592300


         ---------------------------------------------------------
                                   SCF
               by Justin Turney, Rob Parrish, Andy Simmonett
                          and Daniel G. A. Smith
                              RKS Reference
                       28 Threads, 114440 MiB Core
         ---------------------------------------------------------

  ==> Geometry <==

    Molecular point group: cs
    Full point group: Cs

    Geometry (in Angstrom), charge = 0, multiplicity = 1:

       Center              X                  Y                   Z               Mass       
    ------------   -----------------  -----------------  -----------------  -----------------
         FE          -0.000000612528    -0.000001428972     0.000000000000    55.934936330000
         C            1.929989387472    -0.000001428972     0.000000000000    12.000000000000
         O            3.045399387472    -0.000001428972     0.000000000000    15.994914619570
         C            0.000029387472    -0.000001428972    -1.930000000000    12.000000000000
         O           -0.000000612528    -0.000001428972    -3.045400000000    15.994914619570
         C            0.000029387472    -0.000001428972     1.930000000000    12.000000000000
         O           -0.000000612528    -0.000001428972     3.045400000000    15.994914619570
         C           -0.965020612528    -1.671421428972     0.000000000000    12.000000000000
         O           -1.522700612528    -2.637391428972     0.000000000000    15.994914619570
         C           -0.965020612528     1.671428571028     0.000000000000    12.000000000000
         O           -1.522700612528     2.637398571028     0.000000000000    15.994914619570

  Running in cs symmetry.

  Rotational constants: A =      0.02911  B =      0.02495  C =      0.02495 [cm^-1]
  Rotational constants: A =    872.65301  B =    747.98907  C =    747.98804 [MHz]
  Nuclear repulsion =  774.181580031195608

  Charge       = 0
  Multiplicity = 1
  Electrons    = 96
  Nalpha       = 48
  Nbeta        = 48

  ==> Algorithm <==

  SCF Algorithm Type is DF.
  DIIS enabled.
  MOM disabled.
  Fractional occupation disabled.
  Guess Type is SAD.
  Energy threshold   = 1.00e-06
  Density threshold  = 1.00e-06
  Integral threshold = 1.00e-12

  ==> Primary Basis <==

  Basis Set: DEF2-TZVPPD
    Blend: DEF2-TZVPPD
    Number of shells: 154
    Number of basis functions: 452
    Number of Cartesian functions: 528
    Spherical Harmonics?: true
    Max angular momentum: 4

  ==> DFT Potential <==

   => Composite Functional: MN15-D3BJ <= 

   MN15 Hybrid Meta-GGA Exchange-Correlation Functional

    H. S. Yu, X. He, S. L. Li, and D. G. Truhlar, Chem. Sci. 7, 5032-5051, 2016


    Deriv               =              1
    GGA                 =           TRUE
    Meta                =           TRUE

    Exchange Hybrid     =           TRUE
    MP2 Hybrid          =          FALSE

   => Exchange Functionals <=

    1.0000   XC_HYB_MGGA_X_MN15

   => Exact (HF) Exchange <=

    0.4400               HF 

   => Correlation Functionals <=

    1.0000   XC_MGGA_C_MN15

   => LibXC Density Thresholds  <==

    XC_MGGA_C_MN15:  1.00E-15 
    XC_HYB_MGGA_X_MN15:  1.00E-15 

   => Molecular Quadrature <=

    Radial Scheme          =       TREUTLER
    Pruning Scheme         =           NONE
    Nuclear Scheme         =       TREUTLER

    BS radius alpha        =              1
    Pruning alpha          =              1
    Radial Points          =             75
    Spherical Points       =            302
    Total Points           =         236051
    Total Blocks           =           1857
    Max Points             =            256
    Max Functions          =            385
    Weights Tolerance      =       1.00E-15

   => Loading Basis Set <=

    Name: (DEF2-TZVPPD AUX)
    Role: JKFIT
    Keyword: DF_BASIS_SCF
    atoms 1              entry FE         line  1978 file /mnt/storage/home/zw18965/.conda/envs/p4env/share/psi4/basis/def2-universal-jkfit.gbs 
    atoms 2, 4, 6, 8, 10 entry C          line   198 file /mnt/storage/home/zw18965/.conda/envs/p4env/share/psi4/basis/def2-universal-jkfit.gbs 
    atoms 3, 5, 7, 9, 11 entry O          line   318 file /mnt/storage/home/zw18965/.conda/envs/p4env/share/psi4/basis/def2-universal-jkfit.gbs 

  ==> Integral Setup <==

  DFHelper Memory: AOs need 1.514 GiB; user supplied 78.924 GiB. Using in-core AOs.

  ==> MemDFJK: Density-Fitted J/K Matrices <==

    J tasked:                   Yes
    K tasked:                   Yes
    wK tasked:                   No
    OpenMP threads:              28
    Memory [MiB]:             80818
    Algorithm:                 Core
    Schwarz Cutoff:           1E-12
    Mask sparsity (%):       9.9058
    Fitting Condition:        1E-10

   => Auxiliary Basis Set <=

  Basis Set: (DEF2-TZVPPD AUX)
    Blend: DEF2-UNIVERSAL-JKFIT
    Number of shells: 308
    Number of basis functions: 1024
    Number of Cartesian functions: 1287
    Spherical Harmonics?: true
    Max angular momentum: 6

  Cached 100.0% of DFT collocation blocks in 4.895 [GiB].

  Minimum eigenvalue in the overlap matrix is 5.1739541000E-06.
  Reciprocal condition number of the overlap matrix is 4.4010605148E-07.
    Using symmetric orthogonalization.

  ==> Pre-Iterations <==

  SCF Guess: Superposition of Atomic Densities via on-the-fly atomic UHF (no occupation information).

   -------------------------
    Irrep   Nso     Nmo    
   -------------------------
     A'       276     276 
     A"       176     176 
   -------------------------
    Total     452     452
   -------------------------

  ==> Iterations <==

                           Total Energy        Delta E     RMS |[F,P]|

   @DF-RKS iter SAD: -1828.17190090143458   -1.82817e+03   0.00000e+00 
   @DF-RKS iter   1: -1822.62709446701592    5.54481e+00   1.69285e-02 DIIS
   @DF-RKS iter   2: -1749.89066690394520    7.27364e+01   2.61822e-02 DIIS
   @DF-RKS iter   3: -1810.27229541339557   -6.03816e+01   2.33477e-02 DIIS
   @DF-RKS iter   4: -1817.25641020901844   -6.98411e+00   2.03245e-02 DIIS
   @DF-RKS iter   5: -1819.10859724516240   -1.85219e+00   1.93648e-02 DIIS
   @DF-RKS iter   6: -1818.54715752503967    5.61440e-01   1.97159e-02 DIIS
   @DF-RKS iter   7: -1820.36794531406463   -1.82079e+00   1.81673e-02 DIIS
   @DF-RKS iter   8: -1823.12781616903681   -2.75987e+00   1.61417e-02 DIIS
   @DF-RKS iter   9: -1824.80968886076516   -1.68187e+00   1.46653e-02 DIIS
   @DF-RKS iter  10: -1825.85676222176630   -1.04707e+00   1.34262e-02 DIIS
   @DF-RKS iter  11: -1826.15133065953637   -2.94568e-01   1.26910e-02 DIIS
   @DF-RKS iter  12: -1817.76088873454660    8.39044e+00   1.59054e-02 DIIS
   @DF-RKS iter  13: -1827.64319266731877   -9.88230e+00   1.00985e-02 DIIS
   @DF-RKS iter  14: -1828.50971949588643   -8.66527e-01   8.42204e-03 DIIS
   @DF-RKS iter  15: -1828.24713583757512    2.62584e-01   9.18674e-03 DIIS
   @DF-RKS iter  16: -1828.01892707767524    2.28209e-01   9.68563e-03 DIIS
   @DF-RKS iter  17: -1828.72127882085852   -7.02352e-01   7.92628e-03 DIIS
   @DF-RKS iter  18: -1829.92273778553863   -1.20146e+00   3.31627e-03 DIIS
   @DF-RKS iter  19: -1830.19765436386069   -2.74917e-01   7.12768e-04 DIIS
   @DF-RKS iter  20: -1830.15676603249881    4.08883e-02   1.59892e-03 DIIS
   @DF-RKS iter  21: -1830.21790108866685   -6.11351e-02   1.67836e-04 DIIS
   @DF-RKS iter  22: -1830.21876099477504   -8.59906e-04   5.46104e-05 DIIS
   @DF-RKS iter  23: -1830.21880537347715   -4.43787e-05   6.36092e-05 DIIS
   @DF-RKS iter  24: -1830.21890861530596   -1.03242e-04   5.26667e-06 DIIS
   @DF-RKS iter  25: -1830.21890988793052   -1.27262e-06   5.06174e-06 DIIS
   @DF-RKS iter  26: -1830.21891106975750   -1.18183e-06   2.02129e-06 DIIS
   @DF-RKS iter  27: -1830.21891123339810   -1.63641e-07   1.46694e-06 DIIS
   @DF-RKS iter  28: -1830.21891132493488   -9.15368e-08   3.30253e-07 DIIS
  Energy and wave function converged.


  ==> Post-Iterations <==

   Electrons on quadrature grid:
      Ntotal   =   96.0000470623 ; deviation = 4.706e-05 

    Orbital Energies [Eh]
    ---------------------

    Doubly Occupied:                                                      

       1Ap  -254.061667     2Ap   -29.283066     1App  -25.701376  
       3Ap   -25.671385     4Ap   -25.671375     2App  -18.922359  
       5Ap   -18.922340     6Ap   -18.909468     7Ap   -18.909466  
       8Ap   -18.909461     9Ap   -10.183336     3App  -10.183293  
      10Ap   -10.171411    11Ap   -10.171386    12Ap   -10.171335  
      13Ap    -3.342022     4App   -2.268344    14Ap    -2.224602  
      15Ap    -2.224589    16Ap    -1.216698     5App   -1.216620  
      17Ap    -1.204396    18Ap    -1.204320    19Ap    -1.204311  
      20Ap    -0.650895     6App   -0.632397    21Ap    -0.621190  
      22Ap    -0.621188    23Ap    -0.620678    24Ap    -0.556152  
       7App   -0.550050     8App   -0.550049    25Ap    -0.545439  
      26Ap    -0.545438     9App   -0.539527    27Ap    -0.531963  
      28Ap    -0.531955    29Ap    -0.527755    10App   -0.526550  
      11App   -0.526544    30Ap    -0.482132    31Ap    -0.482128  
      12App   -0.476912    32Ap    -0.474378    13App   -0.310839  
      14App   -0.310838    33Ap    -0.266108    34Ap    -0.266106  

    Virtual:                                                              

      15App   -0.009059    16App   -0.009054    35Ap    -0.005096  
      36Ap    -0.005093    37Ap    -0.001046    17App    0.004053  
      38Ap     0.015284    39Ap     0.016466    40Ap     0.016469  
      41Ap     0.040291    18App    0.053163    19App    0.053174  
      20App    0.062739    42Ap     0.067461    43Ap     0.067463  
      44Ap     0.089256    45Ap     0.097180    46Ap     0.097182  
      21App    0.101760    22App    0.101760    47Ap     0.114213  
      23App    0.116705    48Ap     0.134117    49Ap     0.134118  
      50Ap     0.141179    24App    0.159575    25App    0.159577  
      51Ap     0.161263    52Ap     0.171752    53Ap     0.171753  
      26App    0.176162    27App    0.189063    54Ap     0.198267  
      55Ap     0.198270    28App    0.215858    29App    0.215868  
      56Ap     0.220357    57Ap     0.248545    58Ap     0.251605  
      59Ap     0.251613    60Ap     0.260862    61Ap     0.273741  
      62Ap     0.273744    30App    0.288062    31App    0.290681  
      32App    0.290691    63Ap     0.295028    64Ap     0.295037  
      33App    0.301991    65Ap     0.304653    34App    0.336747  
      66Ap     0.342168    67Ap     0.342171    68Ap     0.350337  
      69Ap     0.351998    70Ap     0.355898    71Ap     0.355904  
      35App    0.375145    36App    0.375149    72Ap     0.388374  
      37App    0.388514    73Ap     0.395159    74Ap     0.395165  
      38App    0.404398    39App    0.404400    75Ap     0.414416  
      76Ap     0.414420    77Ap     0.431082    40App    0.431991  
      41App    0.480641    42App    0.480648    43App    0.500211  
      44App    0.500217    78Ap     0.503320    79Ap     0.506953  
      80Ap     0.506963    45App    0.520242    81Ap     0.544835  
      82Ap     0.544841    83Ap     0.548975    84Ap     0.564657  
      85Ap     0.569609    86Ap     0.569612    46App    0.571850  
      47App    0.571868    87Ap     0.586534    88Ap     0.586555  
      89Ap     0.587570    48App    0.602284    90Ap     0.606509  
      91Ap     0.606537    92Ap     0.609512    49App    0.611863  
      50App    0.611887    51App    0.632323    52App    0.633318  
      53App    0.662959    54App    0.662967    93Ap     0.665879  
      94Ap     0.665885    95Ap     0.673096    96Ap     0.683392  
      97Ap     0.683406    55App    0.691893    98Ap     0.696206  
      99Ap     0.696212   100Ap     0.702419   101Ap     0.718633  
     102Ap     0.732947   103Ap     0.732962    56App    0.752467  
      57App    0.758017    58App    0.758023   104Ap     0.769790  
      59App    0.770813    60App    0.770832   105Ap     0.797014  
     106Ap     0.797023    61App    0.827860   107Ap     0.849808  
      62App    0.856784   108Ap     0.878632   109Ap     0.878635  
      63App    0.891556    64App    0.891576   110Ap     0.892186  
     111Ap     0.903963   112Ap     0.903982   113Ap     0.908852  
     114Ap     0.925739   115Ap     0.926822   116Ap     0.926824  
     117Ap     0.932827    65App    0.934007    66App    0.935018  
      67App    0.935061    68App    0.961280    69App    0.961293  
      70App    0.992371    71App    0.992387   118Ap     0.993946  
     119Ap     0.993976    72App    1.013421   120Ap     1.028939  
     121Ap     1.028948   122Ap     1.043487   123Ap     1.045075  
      73App    1.059524    74App    1.121883    75App    1.121926  
     124Ap     1.126634   125Ap     1.126658   126Ap     1.143571  
     127Ap     1.143596   128Ap     1.175406    76App    1.220892  
      77App    1.221002   129Ap     1.256053   130Ap     1.256093  
     131Ap     1.284363    78App    1.293075   132Ap     1.305066  
     133Ap     1.305087   134Ap     1.345446    79App    1.365251  
     135Ap     1.373486   136Ap     1.373508   137Ap     1.456782  
      80App    1.471234    81App    1.471247   138Ap     1.500923  
     139Ap     1.500950   140Ap     1.681305    82App    1.709068  
      83App    1.709130    84App    1.716846   141Ap     1.720040  
     142Ap     1.722223   143Ap     1.722273    85App    1.742454  
      86App    1.742495   144Ap     1.768031   145Ap     1.768044  
      87App    1.776710    88App    1.781028   146Ap     1.786322  
     147Ap     1.786409   148Ap     1.786445    89App    1.789800  
      90App    1.789822    91App    1.817220    92App    1.817244  
     149Ap     1.825170   150Ap     1.825173   151Ap     1.847950  
     152Ap     1.860071   153Ap     1.860106    93App    1.897285  
     154Ap     1.897768   155Ap     1.945581   156Ap     1.961403  
     157Ap     1.961451    94App    2.007670   158Ap     2.020196  
     159Ap     2.036070    95App    2.114227    96App    2.114240  
     160Ap     2.137668   161Ap     2.137784    97App    2.231391  
      98App    2.231398    99App    2.266836   162Ap     2.272966  
     163Ap     2.272975   100App    2.367590   164Ap     2.389372  
     165Ap     2.402479   166Ap     2.403806   167Ap     2.403827  
     168Ap     2.470340   169Ap     2.470362   101App    2.529125  
     102App    2.529136   170Ap     2.568928   103App    2.576130  
     171Ap     2.578910   172Ap     2.621136   104App    2.627467  
     105App    2.627548   173Ap     2.630728   174Ap     2.630853  
     106App    2.643962   175Ap     2.667090   107App    2.676018  
     176Ap     2.752826   177Ap     2.766816   178Ap     2.766827  
     108App    2.772273   109App    2.779331   110App    2.779374  
     111App    2.786520   179Ap     2.801582   180Ap     2.801609  
     112App    2.844436   113App    2.844512   181Ap     2.865314  
     182Ap     2.865353   183Ap     2.884939   184Ap     2.904117  
     114App    2.930517   115App    2.930651   185Ap     2.966566  
     186Ap     2.966609   116App    2.966762   117App    2.967219  
     118App    2.967241   187Ap     2.996851   188Ap     2.996906  
     119App    3.012354   120App    3.027238   121App    3.027271  
     189Ap     3.055018   190Ap     3.055085   122App    3.079917  
     123App    3.079951   191Ap     3.117803   192Ap     3.122751  
     193Ap     3.122791   124App    3.140113   125App    3.140152  
     194Ap     3.162907   195Ap     3.166695   126App    3.190712  
     196Ap     3.191907   197Ap     3.191987   198Ap     3.224944  
     199Ap     3.251501   200Ap     3.251641   127App    3.321242  
     128App    3.321515   129App    3.340852   201Ap     3.341425  
     202Ap     3.341504   130App    3.397488   203Ap     3.398502  
     204Ap     3.428701   205Ap     3.428725   206Ap     3.446035  
     207Ap     3.566725   208Ap     3.566728   131App    3.598408  
     132App    3.598413   133App    3.609378   209Ap     3.659799  
     210Ap     3.679909   211Ap     3.695406   212Ap     3.695439  
     134App    3.734972   213Ap     3.792707   214Ap     3.792715  
     135App    3.827671   136App    3.827683   215Ap     3.839579  
     137App    3.890317   138App    3.890386   216Ap     4.049353  
     217Ap     4.049468   218Ap     4.100356   219Ap     4.261034  
     139App    4.315812   220Ap     4.359320   221Ap     4.359456  
     222Ap     4.443820   223Ap     4.498875   224Ap     4.645167  
     225Ap     4.645221   140App    4.659606   226Ap     4.747827  
     141App    4.979892   227Ap     4.980095   142App    4.981533  
     228Ap     4.983943   229Ap     4.990735   230Ap     4.991725  
     231Ap     4.991742   143App    4.991812   144App    4.991821  
     145App    4.993943   146App    5.403499   147App    5.403520  
     148App    5.405482   232Ap     5.416405   233Ap     5.416422  
     149App    5.424702   150App    5.424707   234Ap     5.437838  
     235Ap     5.437861   236Ap     5.470399   151App    6.105963  
     152App    6.105975   237Ap     6.152652   153App    6.160289  
     238Ap     6.172802   239Ap     6.172819   240Ap     6.218094  
     241Ap     6.218123   154App    6.224786   155App    6.224803  
     156App    6.249665   157App    6.249736   242Ap     6.251185  
     243Ap     6.251269   158App    6.257641   159App    6.275689  
     160App    6.275766   244Ap     6.288102   245Ap     6.288141  
     246Ap     6.288152   161App    6.505387   247Ap     6.525767  
     248Ap     6.536444   249Ap     6.553267   250Ap     6.553284  
     251Ap     6.663789   252Ap     6.663798   162App    6.676220  
     163App    6.676269   253Ap     6.680785   254Ap     6.710795  
     255Ap     6.710837   164App    6.714855   165App    6.714900  
     166App    6.719424   167App    7.035608   256Ap     7.043551  
     257Ap     7.057095   258Ap     7.060810   259Ap     7.060825  
     168App    8.373177   260Ap     8.406895   261Ap     8.406920  
     169App    8.424054   170App    8.424065   171App    8.432037  
     262Ap     8.531929   263Ap     8.531936   264Ap     8.672165  
     172App    9.184364   173App    9.184373   265Ap     9.280335  
     266Ap     9.423928   267Ap     9.423945   174App    9.611780  
     268Ap     9.620090   175App   22.115952   269Ap    22.151362  
     270Ap    22.500123   271Ap    22.608344   272Ap    22.608402  
     273Ap    42.381623   274Ap    42.488541   275Ap    42.493549  
     276Ap    42.493562   176App   42.496108  

    Final Occupation by Irrep:
             Ap   App 
    DOCC [    34,   14 ]

  @DF-RKS Final Energy: -1830.21891132493488

   => Energetics <=

    Nuclear Repulsion Energy =            774.1815800311956082
    One-Electron Energy =               -4060.4300593742959791
    Two-Electron Energy =                1527.7941701573963655
    DFT Exchange-Correlation Energy =     -71.7639086992308393
    Empirical Dispersion Energy =          -0.0006934400000000
    VV10 Nonlocal Energy =                  0.0000000000000000
    Total Energy =                      -1830.2189113249348793

Computation Completed


Properties will be evaluated at   0.000000,   0.000000,   0.000000 [a0]

Properties computed using the SCF density matrix

  Nuclear Dipole Moment: [e a0]
     X:     0.0000      Y:     0.0000      Z:     0.0000

  Electronic Dipole Moment: [e a0]
     X:    -0.0001      Y:    -0.0000      Z:     0.0000

  Dipole Moment: [e a0]
     X:    -0.0001      Y:    -0.0000      Z:     0.0000     Total:     0.0001

  Dipole Moment: [D]
     X:    -0.0002      Y:    -0.0000      Z:     0.0000     Total:     0.0002


*** tstop() called on compute270.bc4.acrc.priv at Sun Nov  7 05:05:52 2021
Module time:
	user time   =     640.50 seconds =      10.68 minutes
	system time =      26.57 seconds =       0.44 minutes
	total time  =         28 seconds =       0.47 minutes
Total time:
	user time   =     640.50 seconds =      10.68 minutes
	system time =      26.57 seconds =       0.44 minutes
	total time  =         28 seconds =       0.47 minutes

    Psi4 stopped on: Sunday, 07 November 2021 05:05AM
    Psi4 wall time for execution: 0:00:27.69

*** Psi4 exiting successfully. Buy a developer a beer!
