
    -----------------------------------------------------------------------
          Psi4: An Open-Source Ab Initio Electronic Structure Package
                               Psi4 1.4.1 release

                         Git: Rev {HEAD} cd00f19 


    D. G. A. Smith, L. A. Burns, A. C. Simmonett, R. M. Parrish,
    M. C. Schieber, R. Galvelis, P. Kraus, H. Kruse, R. Di Remigio,
    A. Alenaizan, A. M. James, S. Lehtola, J. P. Misiewicz, M. Scheurer,
    R. A. Shaw, J. B. Schriber, Y. Xie, Z. L. Glick, D. A. Sirianni,
    J. S. O'Brien, J. M. Waldrop, A. Kumar, E. G. Hohenstein,
    B. P. Pritchard, B. R. Brooks, H. F. Schaefer III, A. Yu. Sokolov,
    K. Patkowski, A. E. DePrince III, U. Bozkaya, R. A. King,
    F. A. Evangelista, J. M. Turney, T. D. Crawford, C. D. Sherrill,
    J. Chem. Phys. 152(18) 184108 (2020). https://doi.org/10.1063/5.0006002

                            Additional Code Authors
    E. T. Seidl, C. L. Janssen, E. F. Valeev, M. L. Leininger,
    J. F. Gonthier, R. M. Richard, H. R. McAlexander, M. Saitow, X. Wang,
    P. Verma, and M. H. Lechner

             Previous Authors, Complete List of Code Contributors,
                       and Citations for Specific Modules
    https://github.com/psi4/psi4/blob/master/codemeta.json
    https://github.com/psi4/psi4/graphs/contributors
    http://psicode.org/psi4manual/master/introduction.html#citing-psifour

    -----------------------------------------------------------------------


    Psi4 started on: Sunday, 07 November 2021 05:05AM

    Process ID: 27681
    Host:       compute361.bc4.acrc.priv
    PSIDATADIR: /mnt/storage/home/zw18965/.conda/envs/p4env/share/psi4
    Memory:     500.0 MiB
    Threads:    28
    
  ==> Input File <==

--------------------------------------------------------------------------
memory 120 GB

molecule {
1 2
Ni         0.00000        0.00000        0.00000
 }

set reference uks
set dynamic_level 1
set basis Def2-TZVPPD

energy("MN15-D3BJ")
--------------------------------------------------------------------------

  Memory set to 111.759 GiB by Python driver.

Scratch directory: /tmp/

*** tstart() called on compute361.bc4.acrc.priv
*** at Sun Nov  7 05:05:21 2021

   => Loading Basis Set <=

    Name: DEF2-TZVPPD
    Role: ORBITAL
    Keyword: BASIS
    atoms 1 entry NI         line  1229 file /mnt/storage/home/zw18965/.conda/envs/p4env/share/psi4/basis/def2-tzvppd.gbs 

   => MN15-D3(BJ): Empirical Dispersion <=

    Grimme's -D3 (BJ-damping) Dispersion Correction
    Grimme S.; Ehrlich S.; Goerigk L. (2011), J. Comput. Chem., 32: 1456
    Parametrisation from:    L. Goerigk, A. Hansen, C. Bauer, S. Ehrlich, A. Najibi, S. Grimme, Phys. Chem. Chem. Phys. 19, 32184-32215, 2017

        s6 =       1.000000
        s8 =       2.097100
        a1 =       0.786200
        a2 =       7.592300


         ---------------------------------------------------------
                                   SCF
               by Justin Turney, Rob Parrish, Andy Simmonett
                          and Daniel G. A. Smith
                              UKS Reference
                       28 Threads, 114440 MiB Core
         ---------------------------------------------------------

  ==> Geometry <==

    Molecular point group: d2h
    Geometry (in Angstrom), charge = 1, multiplicity = 2:

       Center              X                  Y                   Z               Mass       
    ------------   -----------------  -----------------  -----------------  -----------------
         NI           0.000000000000     0.000000000000     0.000000000000    57.935342410000

  Running in d2h symmetry.

  Rotational constants: A = ************  B = ************  C = ************ [cm^-1]
  Rotational constants: A = ************  B = ************  C = ************ [MHz]
  Nuclear repulsion =    0.000000000000000

  Charge       = 1
  Multiplicity = 2
  Electrons    = 27
  Nalpha       = 14
  Nbeta        = 13

  ==> Algorithm <==

  SCF Algorithm Type is DF.
  DIIS enabled.
  MOM disabled.
  Fractional occupation disabled.
  Guess Type is CORE.
  Energy threshold   = 1.00e-06
  Density threshold  = 1.00e-06
  Integral threshold = 1.00e-12

  ==> Primary Basis <==

  Basis Set: DEF2-TZVPPD
    Blend: DEF2-TZVPPD
    Number of shells: 19
    Number of basis functions: 67
    Number of Cartesian functions: 83
    Spherical Harmonics?: true
    Max angular momentum: 4

  ==> DFT Potential <==

   => Composite Functional: MN15-D3BJ <= 

   MN15 Hybrid Meta-GGA Exchange-Correlation Functional

    H. S. Yu, X. He, S. L. Li, and D. G. Truhlar, Chem. Sci. 7, 5032-5051, 2016


    Deriv               =              1
    GGA                 =           TRUE
    Meta                =           TRUE

    Exchange Hybrid     =           TRUE
    MP2 Hybrid          =          FALSE

   => Exchange Functionals <=

    1.0000   XC_HYB_MGGA_X_MN15

   => Exact (HF) Exchange <=

    0.4400               HF 

   => Correlation Functionals <=

    1.0000   XC_MGGA_C_MN15

   => LibXC Density Thresholds  <==

    XC_MGGA_C_MN15:  1.00E-15 
    XC_HYB_MGGA_X_MN15:  1.00E-15 

   => Molecular Quadrature <=

    Radial Scheme          =       TREUTLER
    Pruning Scheme         =           NONE
    Nuclear Scheme         =       TREUTLER

    BS radius alpha        =              1
    Pruning alpha          =              1
    Radial Points          =             75
    Spherical Points       =            302
    Total Points           =          21436
    Total Blocks           =            240
    Max Points             =            251
    Max Functions          =             67
    Weights Tolerance      =       1.00E-15

   => Loading Basis Set <=

    Name: (DEF2-TZVPPD AUX)
    Role: JKFIT
    Keyword: DF_BASIS_SCF
    atoms 1 entry NI         line  2230 file /mnt/storage/home/zw18965/.conda/envs/p4env/share/psi4/basis/def2-universal-jkfit.gbs 

  ==> Integral Setup <==

  DFHelper Memory: AOs need 0.012 GiB; user supplied 83.735 GiB. Using in-core AOs.

  ==> MemDFJK: Density-Fitted J/K Matrices <==

    J tasked:                   Yes
    K tasked:                   Yes
    wK tasked:                   No
    OpenMP threads:              28
    Memory [MiB]:             85744
    Algorithm:                 Core
    Schwarz Cutoff:           1E-12
    Mask sparsity (%):       0.0000
    Fitting Condition:        1E-10

   => Auxiliary Basis Set <=

  Basis Set: (DEF2-TZVPPD AUX)
    Blend: DEF2-UNIVERSAL-JKFIT
    Number of shells: 58
    Number of basis functions: 264
    Number of Cartesian functions: 377
    Spherical Harmonics?: true
    Max angular momentum: 6

  Cached 100.0% of DFT collocation blocks in 0.084 [GiB].

  Minimum eigenvalue in the overlap matrix is 4.4736298216E-02.
  Reciprocal condition number of the overlap matrix is 1.6192056636E-02.
    Using symmetric orthogonalization.

  ==> Pre-Iterations <==

  SCF Guess: Core (One-Electron) Hamiltonian.

   -------------------------------------------------------
    Irrep   Nso     Nmo     Nalpha   Nbeta   Ndocc  Nsocc
   -------------------------------------------------------
     Ag        17      17       5       5       5       0
     B1g        6       6       1       1       1       0
     B2g        6       6       1       0       0       1
     B3g        6       6       1       1       1       0
     Au         2       2       0       0       0       0
     B1u       10      10       2       2       2       0
     B2u       10      10       2       2       2       0
     B3u       10      10       2       2       2       0
   -------------------------------------------------------
    Total      67      67      14      13      13       1
   -------------------------------------------------------

  ==> Iterations <==

                           Total Energy        Delta E     RMS |[F,P]|

    Occupation by irrep:
             Ag   B1g   B2g   B3g    Au   B1u   B2u   B3u 
    DOCC [     4,    0,    0,    0,    0,    3,    3,    3 ]
    SOCC [     0,    0,    1,    0,    0,    0,    0,    0 ]

   @DF-UKS iter   1: -1470.45159644797513   -1.47045e+03   3.92359e-01 DIIS
    Occupation by irrep:
             Ag   B1g   B2g   B3g    Au   B1u   B2u   B3u 
    DOCC [     5,    1,    0,    1,    0,    2,    2,    2 ]
    SOCC [     0,    0,    1,    0,    0,    0,    0,    0 ]

   @DF-UKS iter   2: -1433.88909189780111    3.65625e+01   5.46939e-01 DIIS
   @DF-UKS iter   3: -1507.78822795456881   -7.38991e+01   4.49520e-02 DIIS
   @DF-UKS iter   4: -1505.40943571204616    2.37879e+00   1.39812e-01 DIIS
   @DF-UKS iter   5: -1507.82352319578558   -2.41409e+00   6.33875e-02 DIIS
   @DF-UKS iter   6: -1507.81951897162185    4.00422e-03   6.22392e-02 DIIS
   @DF-UKS iter   7: -1507.94452713192413   -1.25008e-01   5.17640e-02 DIIS
   @DF-UKS iter   8: -1508.16238484763107   -2.17858e-01   2.22365e-02 DIIS
   @DF-UKS iter   9: -1508.21120101602560   -4.88162e-02   1.97253e-03 DIIS
   @DF-UKS iter  10: -1508.21287720537157   -1.67619e-03   8.19561e-04 DIIS
   @DF-UKS iter  11: -1508.21388577845096   -1.00857e-03   1.97435e-04 DIIS
   @DF-UKS iter  12: -1508.21401527613034   -1.29498e-04   1.16791e-04 DIIS
   @DF-UKS iter  13: -1508.21401896437305   -3.68824e-06   2.72440e-05 DIIS
   @DF-UKS iter  14: -1508.21401974894479   -7.84572e-07   1.48811e-05 DIIS
   @DF-UKS iter  15: -1508.21402029386127   -5.44916e-07   1.07031e-05 DIIS
   @DF-UKS iter  16: -1508.21402032004744   -2.61862e-08   1.93227e-06 DIIS
   @DF-UKS iter  17: -1508.21402032066158   -6.14136e-10   3.08370e-08 DIIS
  Energy and wave function converged.


  ==> Post-Iterations <==

   Electrons on quadrature grid:
      Nalpha   =   14.0000000753 ; deviation = 7.531e-08
      Nbeta    =   13.0000000753 ; deviation = 7.531e-08
      Ntotal   =   27.0000001506 ; deviation = 1.506e-07 

   @Spin Contamination Metric:   1.825567454E-02
   @S^2 Expected:                7.500000000E-01
   @S^2 Observed:                7.682556745E-01
   @S   Expected:                5.000000000E-01
   @S   Observed:                5.000000000E-01

    Orbital Energies [Eh]
    ---------------------

    Alpha Occupied:                                                       

       1Ag  -297.887682     2Ag   -35.132027     1B3u  -31.184855  
       1B1u  -31.184855     1B2u  -31.149660     3Ag    -4.107989  
       2B3u   -2.887105     2B1u   -2.887105     2B2u   -2.823575  
       1B2g   -0.657378     4Ag    -0.636129     1B3g   -0.600330  
       1B1g   -0.600330     5Ag    -0.588773  

    Alpha Virtual:                                                        

       6Ag    -0.324898     3B3u   -0.163681     3B1u   -0.163681  
       3B2u   -0.152697     4B3u   -0.000465     4B1u   -0.000465  
       4B2u    0.005105     7Ag     0.008904     2B2g    0.082186  
       8Ag     0.085733     2B3g    0.091115     2B1g    0.091115  
       9Ag     0.093055     5B3u    0.494024     5B1u    0.494024  
       5B2u    0.509371     3B2g    0.844003    10Ag     0.854769  
       3B3g    0.866940     3B1g    0.866940    11Ag     0.871322  
       6B1u    2.621926     6B3u    2.621926     6B2u    2.666012  
       7B3u    2.715114     7B1u    2.715114     1Au     2.735472  
       7B2u    2.755838     8B3u    2.762829     8B1u    2.762829  
       8B2u    2.766846    12Ag     2.825528     4B2g    3.756259  
      13Ag     3.796827     4B3g    3.818839     4B1g    3.818839  
      14Ag     3.827024    15Ag    10.898804     5B2g   10.904507  
       5B3g   10.936443     5B1g   10.936443     6B2g   10.946808  
      16Ag    10.980032     6B1g   10.980277     6B3g   10.980277  
      17Ag    10.980585     9B1u   11.251269     9B3u   11.251269  
       2Au    11.285606     9B2u   11.317505    10B3u   11.325509  
      10B1u   11.325509    10B2u   11.329613  

    Beta Occupied:                                                        

       1Ag  -297.888740     2Ag   -35.127702     1B3u  -31.175853  
       1B1u  -31.175853     1B2u  -31.142462     3Ag    -4.089048  
       2B3u   -2.846304     2B1u   -2.846304     2B2u   -2.811518  
       1B3g   -0.583785     1B1g   -0.583785     4Ag    -0.581767  
       5Ag    -0.576398  

    Beta Virtual:                                                         

       6Ag    -0.314636     1B2g   -0.302755     3B2u   -0.161385  
       3B3u   -0.153016     3B1u   -0.153016     4B2u    0.003417  
       4B3u    0.005113     4B1u    0.005113     7Ag     0.012732  
       8Ag     0.086264     2B1g    0.088282     2B3g    0.088282  
       9Ag     0.090137     2B2g    0.105881     5B3u    0.506351  
       5B1u    0.506351     5B2u    0.508131    10Ag     0.864609  
       3B3g    0.870597     3B1g    0.870597    11Ag     0.877867  
       3B2g    0.903968     6B1u    2.647586     6B3u    2.647586  
       6B2u    2.667353     7B2u    2.763655     7B3u    2.768089  
       7B1u    2.768089     8B2u    2.775708     1Au     2.779892  
       8B3u    2.790405     8B1u    2.790405    12Ag     2.841477  
      13Ag     3.815074     4B3g    3.827303     4B1g    3.827303  
      14Ag     3.832793     4B2g    3.834838     5B2g   10.948030  
      15Ag    10.961100     5B3g   10.967001     5B1g   10.967001  
       6B2g   10.977307    16Ag    10.979418     6B1g   10.984011  
       6B3g   10.984011    17Ag    10.986128     9B1u   11.295072  
       9B3u   11.295072     2Au    11.296717     9B2u   11.322706  
      10B3u   11.330007    10B1u   11.330007    10B2u   11.339940  

    Final Occupation by Irrep:
             Ag   B1g   B2g   B3g    Au   B1u   B2u   B3u 
    DOCC [     5,    1,    0,    1,    0,    2,    2,    2 ]
    SOCC [     0,    0,    1,    0,    0,    0,    0,    0 ]

  @DF-UKS Final Energy: -1508.21402032066158

   => Energetics <=

    Nuclear Repulsion Energy =              0.0000000000000000
    One-Electron Energy =               -2088.9148078499356416
    Two-Electron Energy =                 616.8774749004462592
    DFT Exchange-Correlation Energy =     -36.1766873711719725
    Empirical Dispersion Energy =           0.0000000000000000
    VV10 Nonlocal Energy =                  0.0000000000000000
    Total Energy =                      -1508.2140203206613478

  UHF NO Occupations:
  HONO-2 :    4 Ag 1.9992960
  HONO-1 :    5 Ag 1.9916565
  HONO-0 :    1B2g 1.0000000
  LUNO+0 :    6 Ag 0.0083435
  LUNO+1 :    7 Ag 0.0007040
  LUNO+2 :    2B3g 0.0000386
  LUNO+3 :    2B1g 0.0000386


Computation Completed


Properties will be evaluated at   0.000000,   0.000000,   0.000000 [a0]

Properties computed using the SCF density matrix

  Nuclear Dipole Moment: [e a0]
     X:     0.0000      Y:     0.0000      Z:     0.0000

  Electronic Dipole Moment: [e a0]
     X:     0.0000      Y:     0.0000      Z:     0.0000

  Dipole Moment: [e a0]
     X:     0.0000      Y:     0.0000      Z:     0.0000     Total:     0.0000

  Dipole Moment: [D]
     X:     0.0000      Y:     0.0000      Z:     0.0000     Total:     0.0000


*** tstop() called on compute361.bc4.acrc.priv at Sun Nov  7 05:05:27 2021
Module time:
	user time   =     105.44 seconds =       1.76 minutes
	system time =       4.01 seconds =       0.07 minutes
	total time  =          6 seconds =       0.10 minutes
Total time:
	user time   =     105.44 seconds =       1.76 minutes
	system time =       4.01 seconds =       0.07 minutes
	total time  =          6 seconds =       0.10 minutes

    Psi4 stopped on: Sunday, 07 November 2021 05:05AM
    Psi4 wall time for execution: 0:00:05.72

*** Psi4 exiting successfully. Buy a developer a beer!
