
    -----------------------------------------------------------------------
          Psi4: An Open-Source Ab Initio Electronic Structure Package
                               Psi4 1.4.1 release

                         Git: Rev {HEAD} cd00f19 


    D. G. A. Smith, L. A. Burns, A. C. Simmonett, R. M. Parrish,
    M. C. Schieber, R. Galvelis, P. Kraus, H. Kruse, R. Di Remigio,
    A. Alenaizan, A. M. James, S. Lehtola, J. P. Misiewicz, M. Scheurer,
    R. A. Shaw, J. B. Schriber, Y. Xie, Z. L. Glick, D. A. Sirianni,
    J. S. O'Brien, J. M. Waldrop, A. Kumar, E. G. Hohenstein,
    B. P. Pritchard, B. R. Brooks, H. F. Schaefer III, A. Yu. Sokolov,
    K. Patkowski, A. E. DePrince III, U. Bozkaya, R. A. King,
    F. A. Evangelista, J. M. Turney, T. D. Crawford, C. D. Sherrill,
    J. Chem. Phys. 152(18) 184108 (2020). https://doi.org/10.1063/5.0006002

                            Additional Code Authors
    E. T. Seidl, C. L. Janssen, E. F. Valeev, M. L. Leininger,
    J. F. Gonthier, R. M. Richard, H. R. McAlexander, M. Saitow, X. Wang,
    P. Verma, and M. H. Lechner

             Previous Authors, Complete List of Code Contributors,
                       and Citations for Specific Modules
    https://github.com/psi4/psi4/blob/master/codemeta.json
    https://github.com/psi4/psi4/graphs/contributors
    http://psicode.org/psi4manual/master/introduction.html#citing-psifour

    -----------------------------------------------------------------------


    Psi4 started on: Sunday, 07 November 2021 05:05AM

    Process ID: 17454
    Host:       compute139.bc4.acrc.priv
    PSIDATADIR: /mnt/storage/home/zw18965/.conda/envs/p4env/share/psi4
    Memory:     500.0 MiB
    Threads:    28
    
  ==> Input File <==

--------------------------------------------------------------------------
memory 120 GB

molecule {
1 2
C          0.00000        0.00000        0.00000
Ni         0.00000        0.00000        1.78130
H          0.93287        0.00000       -0.58718
H         -0.93287        0.00000       -0.58718
 }

set reference uks
set dynamic_level 1
set basis Def2-TZVPPD

energy("MN15-D3BJ")
--------------------------------------------------------------------------

  Memory set to 111.759 GiB by Python driver.

Scratch directory: /tmp/

*** tstart() called on compute139.bc4.acrc.priv
*** at Sun Nov  7 05:05:24 2021

   => Loading Basis Set <=

    Name: DEF2-TZVPPD
    Role: ORBITAL
    Keyword: BASIS
    atoms 1   entry C          line   144 file /mnt/storage/home/zw18965/.conda/envs/p4env/share/psi4/basis/def2-tzvppd.gbs 
    atoms 2   entry NI         line  1229 file /mnt/storage/home/zw18965/.conda/envs/p4env/share/psi4/basis/def2-tzvppd.gbs 
    atoms 3-4 entry H          line    14 file /mnt/storage/home/zw18965/.conda/envs/p4env/share/psi4/basis/def2-tzvppd.gbs 

   => MN15-D3(BJ): Empirical Dispersion <=

    Grimme's -D3 (BJ-damping) Dispersion Correction
    Grimme S.; Ehrlich S.; Goerigk L. (2011), J. Comput. Chem., 32: 1456
    Parametrisation from:    L. Goerigk, A. Hansen, C. Bauer, S. Ehrlich, A. Najibi, S. Grimme, Phys. Chem. Chem. Phys. 19, 32184-32215, 2017

        s6 =       1.000000
        s8 =       2.097100
        a1 =       0.786200
        a2 =       7.592300


         ---------------------------------------------------------
                                   SCF
               by Justin Turney, Rob Parrish, Andy Simmonett
                          and Daniel G. A. Smith
                              UKS Reference
                       28 Threads, 114440 MiB Core
         ---------------------------------------------------------

  ==> Geometry <==

    Molecular point group: c2v
    Full point group: C2v

    Geometry (in Angstrom), charge = 1, multiplicity = 2:

       Center              X                  Y                   Z               Mass       
    ------------   -----------------  -----------------  -----------------  -----------------
         C            0.000000000000    -0.000000000000    -1.417863361180    12.000000000000
         NI           0.000000000000    -0.000000000000     0.363436638820    57.935342410000
         H            0.932870000000     0.000000000000    -2.005043361180     1.007825032230
         H           -0.932870000000    -0.000000000000    -2.005043361180     1.007825032230

  Running in c2v symmetry.

  Rotational constants: A =      9.61035  B =      0.42271  C =      0.40490 [cm^-1]
  Rotational constants: A = 288110.97938  B =  12672.55278  C =  12138.63527 [MHz]
  Nuclear repulsion =   67.594237373608024

  Charge       = 1
  Multiplicity = 2
  Electrons    = 35
  Nalpha       = 18
  Nbeta        = 17

  ==> Algorithm <==

  SCF Algorithm Type is DF.
  DIIS enabled.
  MOM disabled.
  Fractional occupation disabled.
  Guess Type is SAD.
  Energy threshold   = 1.00e-06
  Density threshold  = 1.00e-06
  Integral threshold = 1.00e-12

  ==> Primary Basis <==

  Basis Set: DEF2-TZVPPD
    Blend: DEF2-TZVPPD
    Number of shells: 46
    Number of basis functions: 138
    Number of Cartesian functions: 162
    Spherical Harmonics?: true
    Max angular momentum: 4

  ==> DFT Potential <==

   => Composite Functional: MN15-D3BJ <= 

   MN15 Hybrid Meta-GGA Exchange-Correlation Functional

    H. S. Yu, X. He, S. L. Li, and D. G. Truhlar, Chem. Sci. 7, 5032-5051, 2016


    Deriv               =              1
    GGA                 =           TRUE
    Meta                =           TRUE

    Exchange Hybrid     =           TRUE
    MP2 Hybrid          =          FALSE

   => Exchange Functionals <=

    1.0000   XC_HYB_MGGA_X_MN15

   => Exact (HF) Exchange <=

    0.4400               HF 

   => Correlation Functionals <=

    1.0000   XC_MGGA_C_MN15

   => LibXC Density Thresholds  <==

    XC_MGGA_C_MN15:  1.00E-15 
    XC_HYB_MGGA_X_MN15:  1.00E-15 

   => Molecular Quadrature <=

    Radial Scheme          =       TREUTLER
    Pruning Scheme         =           NONE
    Nuclear Scheme         =       TREUTLER

    BS radius alpha        =              1
    Pruning alpha          =              1
    Radial Points          =             75
    Spherical Points       =            302
    Total Points           =          87682
    Total Blocks           =            727
    Max Points             =            256
    Max Functions          =            138
    Weights Tolerance      =       1.00E-15

   => Loading Basis Set <=

    Name: (DEF2-TZVPPD AUX)
    Role: JKFIT
    Keyword: DF_BASIS_SCF
    atoms 1   entry C          line   198 file /mnt/storage/home/zw18965/.conda/envs/p4env/share/psi4/basis/def2-universal-jkfit.gbs 
    atoms 2   entry NI         line  2230 file /mnt/storage/home/zw18965/.conda/envs/p4env/share/psi4/basis/def2-universal-jkfit.gbs 
    atoms 3-4 entry H          line    18 file /mnt/storage/home/zw18965/.conda/envs/p4env/share/psi4/basis/def2-universal-jkfit.gbs 

  ==> Integral Setup <==

  DFHelper Memory: AOs need 0.064 GiB; user supplied 83.117 GiB. Using in-core AOs.

  ==> MemDFJK: Density-Fitted J/K Matrices <==

    J tasked:                   Yes
    K tasked:                   Yes
    wK tasked:                   No
    OpenMP threads:              28
    Memory [MiB]:             85111
    Algorithm:                 Core
    Schwarz Cutoff:           1E-12
    Mask sparsity (%):       0.3466
    Fitting Condition:        1E-10

   => Auxiliary Basis Set <=

  Basis Set: (DEF2-TZVPPD AUX)
    Blend: DEF2-UNIVERSAL-JKFIT
    Number of shells: 95
    Number of basis functions: 375
    Number of Cartesian functions: 506
    Spherical Harmonics?: true
    Max angular momentum: 6

  Cached 100.0% of DFT collocation blocks in 0.702 [GiB].

  Minimum eigenvalue in the overlap matrix is 6.0929455890E-05.
  Reciprocal condition number of the overlap matrix is 8.4691277525E-06.
    Using symmetric orthogonalization.

  ==> Pre-Iterations <==

  SCF Guess: Superposition of Atomic Densities via on-the-fly atomic UHF (no occupation information).

   -------------------------
    Irrep   Nso     Nmo    
   -------------------------
     A1        56      56 
     A2        17      17 
     B1        36      36 
     B2        29      29 
   -------------------------
    Total     138     138
   -------------------------

  ==> Iterations <==

                           Total Energy        Delta E     RMS |[F,P]|

   @DF-UKS iter SAD: -1545.44243389045732   -1.54544e+03   0.00000e+00 
    Occupation by irrep:
             A1    A2    B1    B2 
    DOCC [    10,    0,    4,    3 ]
    SOCC [     0,    0,    0,    1 ]

   @DF-UKS iter   1: -1542.87050555374731    2.57193e+00   6.69006e-02 DIIS
    Occupation by irrep:
             A1    A2    B1    B2 
    DOCC [    10,    1,    3,    3 ]
    SOCC [     0,    0,    1,    0 ]

   @DF-UKS iter   2: -1503.17660290672757    3.96939e+01   1.35457e-01 DIIS
    Occupation by irrep:
             A1    A2    B1    B2 
    DOCC [    10,    0,    4,    3 ]
    SOCC [     1,    0,    0,    0 ]

   @DF-UKS iter   3: -1543.93050280779789   -4.07539e+01   3.35999e-02 DIIS
    Occupation by irrep:
             A1    A2    B1    B2 
    DOCC [     9,    1,    4,    3 ]
    SOCC [     1,    0,    0,    0 ]

   @DF-UKS iter   4: -1516.46304243267969    2.74675e+01   9.72707e-02 DIIS
   @DF-UKS iter   5: -1544.80364819181295   -2.83406e+01   3.49792e-02 DIIS
   @DF-UKS iter   6: -1546.28933842631159   -1.48569e+00   2.58266e-02 DIIS
   @DF-UKS iter   7: -1547.03823728650286   -7.48899e-01   1.44221e-02 DIIS
   @DF-UKS iter   8: -1547.40694407775754   -3.68707e-01   3.21062e-03 DIIS
   @DF-UKS iter   9: -1547.42948552746793   -2.25414e-02   1.03324e-03 DIIS
   @DF-UKS iter  10: -1547.43103659192639   -1.55106e-03   7.97034e-04 DIIS
   @DF-UKS iter  11: -1547.43232042352088   -1.28383e-03   3.03247e-04 DIIS
   @DF-UKS iter  12: -1547.43263393731695   -3.13514e-04   7.56074e-05 DIIS
   @DF-UKS iter  13: -1547.43271673613071   -8.27988e-05   6.75974e-05 DIIS
   @DF-UKS iter  14: -1547.43285206248356   -1.35326e-04   6.32371e-05 DIIS
   @DF-UKS iter  15: -1547.43319678431430   -3.44722e-04   7.59022e-05 DIIS
   @DF-UKS iter  16: -1547.43322334105574   -2.65567e-05   5.85238e-05 DIIS
   @DF-UKS iter  17: -1547.43405416821224   -8.30827e-04   5.15056e-04 DIIS
   @DF-UKS iter  18: -1547.43412215321700   -6.79850e-05   3.27598e-04 DIIS
   @DF-UKS iter  19: -1547.43403622699702    8.59262e-05   2.49752e-04 DIIS
   @DF-UKS iter  20: -1547.43413434381137   -9.81168e-05   5.84665e-05 DIIS
   @DF-UKS iter  21: -1547.43443380387248   -2.99460e-04   4.35480e-04 DIIS
   @DF-UKS iter  22: -1547.43456365753445   -1.29854e-04   2.93111e-04 DIIS
   @DF-UKS iter  23: -1547.43471165999063   -1.48002e-04   2.55923e-04 DIIS
   @DF-UKS iter  24: -1547.43465894478368    5.27152e-05   1.76196e-04 DIIS
   @DF-UKS iter  25: -1547.43499643478845   -3.37490e-04   4.96477e-05 DIIS
   @DF-UKS iter  26: -1547.43493307655808    6.33582e-05   2.24230e-04 DIIS
   @DF-UKS iter  27: -1547.43497990528249   -4.68287e-05   9.83918e-05 DIIS
   @DF-UKS iter  28: -1547.43500006671911   -2.01614e-05   1.24741e-05 DIIS
   @DF-UKS iter  29: -1547.43499906601755    1.00070e-06   6.08305e-05 DIIS
   @DF-UKS iter  30: -1547.43500425923230   -5.19321e-06   1.34470e-05 DIIS
   @DF-UKS iter  31: -1547.43500459423603   -3.35004e-07   1.25720e-05 DIIS
   @DF-UKS iter  32: -1547.43500331217388    1.28206e-06   3.28577e-05 DIIS
   @DF-UKS iter  33: -1547.43500432758015   -1.01541e-06   1.95249e-05 DIIS
   @DF-UKS iter  34: -1547.43500483744310   -5.09863e-07   4.37209e-06 DIIS
   @DF-UKS iter  35: -1547.43500486850326   -3.10602e-08   1.50934e-07 DIIS
  Energy and wave function converged.


  ==> Post-Iterations <==

   Electrons on quadrature grid:
      Nalpha   =   18.0000001809 ; deviation = 1.809e-07
      Nbeta    =   17.0000003772 ; deviation = 3.772e-07
      Ntotal   =   35.0000005581 ; deviation = 5.581e-07 

   @Spin Contamination Metric:   9.983137336E-02
   @S^2 Expected:                7.500000000E-01
   @S^2 Observed:                8.498313734E-01
   @S   Expected:                5.000000000E-01
   @S   Observed:                5.000000000E-01

    Orbital Energies [Eh]
    ---------------------

    Alpha Occupied:                                                       

       1A1  -297.885058     2A1   -35.146800     3A1   -31.214769  
       1B2   -31.176671     1B1   -31.161387     4A1   -10.340884  
       5A1    -4.111220     6A1    -2.906592     2B2    -2.856055  
       2B1    -2.832484     7A1    -0.939071     3B1    -0.706337  
       8A1    -0.680801     3B2    -0.628751     4B1    -0.599865  
       9A1    -0.585026     1A2    -0.584827    10A1    -0.551781  

    Alpha Virtual:                                                        

       4B2    -0.322851    11A1    -0.247671     5B1    -0.153793  
       5B2    -0.127551    12A1    -0.091757     6B1    -0.040545  
      13A1    -0.033306    14A1    -0.007646    15A1    -0.003316  
       6B2     0.000129     2A2     0.034173     7B1     0.036597  
       8B1     0.083797     7B2     0.085235    16A1     0.094830  
      17A1     0.101252    18A1     0.124715     8B2     0.137401  
       3A2     0.142727     9B1     0.161289    19A1     0.163400  
      20A1     0.222742    10B1     0.245202     9B2     0.251731  
       4A2     0.277096    21A1     0.292227    10B2     0.322556  
      22A1     0.325258    11B1     0.331865    12B1     0.369353  
      23A1     0.372088    24A1     0.415678    11B2     0.514867  
      13B1     0.552436    25A1     0.555327    14B1     0.559349  
       5A2     0.586561    26A1     0.591379    12B2     0.656100  
      27A1     0.784551    15B1     0.799396    28A1     0.828343  
      13B2     0.863871     6A2     0.872310    16B1     0.893552  
      29A1     0.945276     7A2     1.079142    14B2     1.093579  
      30A1     1.133742    31A1     1.224772    17B1     1.240794  
      18B1     1.265103    32A1     1.319657    15B2     1.430136  
      33A1     1.524329    19B1     1.592656    34A1     1.753630  
      16B2     2.238465    20B1     2.297831    35A1     2.298931  
       8A2     2.409597    36A1     2.427368    21B1     2.504818  
      17B2     2.516335    22B1     2.674522    37A1     2.682654  
      18B2     2.689151    38A1     2.778297    19B2     2.780208  
      23B1     2.782749     9A2     2.803050    24B1     2.813573  
      10A2     2.824101    20B2     2.837213    39A1     2.912604  
      40A1     2.942262    25B1     3.081205    11A2     3.124421  
      21B2     3.206106    26B1     3.257851    41A1     3.301658  
      42A1     3.423253    27B1     3.478208    43A1     3.501021  
      22B2     3.564839    12A2     3.693797    44A1     3.712273  
      23B2     3.723521    45A1     3.816197    28B1     3.825786  
      13A2     3.865316    46A1     3.881860    24B2     3.907437  
      29B1     3.933999    47A1     4.248622    25B2     4.324697  
      48A1     4.407216    30B1     4.445905    14A2     4.507827  
      31B1     4.716388    49A1     4.922789    50A1     4.988125  
      32B1     5.079386    26B2    10.928697    51A1    10.929761  
      15A2    10.955822    33B1    10.960506    52A1    10.963966  
      27B2    10.982233    34B1    10.983130    16A2    10.991571  
      53A1    10.991576    17A2    11.322529    28B2    11.334356  
      35B1    11.334705    54A1    11.345286    29B2    11.376217  
      36B1    11.444748    55A1    11.622250    56A1    21.662744  

    Beta Occupied:                                                        

       1A1  -297.885899     2A1   -35.141105     3A1   -31.194363  
       1B2   -31.171367     1B1   -31.158108     4A1   -10.342041  
       5A1    -4.093202     6A1    -2.866009     2B2    -2.828597  
       2B1    -2.809220     7A1    -0.948963     3B1    -0.706144  
       8A1    -0.622446     1A2    -0.573616     9A1    -0.573354  
       4B1    -0.562829     3B2    -0.560634  

    Beta Virtual:                                                         

       4B2    -0.332940    10A1    -0.309884    11A1    -0.227557  
       5B1    -0.134743     5B2    -0.112322    12A1    -0.090263  
       6B1    -0.040465    13A1    -0.030194    14A1    -0.006025  
      15A1    -0.001540     6B2     0.001524     2A2     0.036117  
       7B1     0.038056     7B2     0.079051     8B1     0.086392  
      16A1     0.099721    17A1     0.106078    18A1     0.134030  
       8B2     0.141666     3A2     0.153929     9B1     0.162408  
      19A1     0.169956    20A1     0.218226    10B1     0.247340  
       9B2     0.250008     4A2     0.277170    21A1     0.296570  
      10B2     0.312180    22A1     0.323538    11B1     0.328249  
      12B1     0.372385    23A1     0.377119    24A1     0.419542  
      11B2     0.524254    13B1     0.554964    25A1     0.555585  
      14B1     0.568936     5A2     0.582229    26A1     0.596463  
      12B2     0.656582    27A1     0.781871    15B1     0.801471  
      28A1     0.830991    13B2     0.862536     6A2     0.877560  
      16B1     0.898159    29A1     0.945005     7A2     1.074853  
      14B2     1.097420    30A1     1.155578    31A1     1.227570  
      17B1     1.248173    18B1     1.264632    32A1     1.324853  
      15B2     1.400551    33A1     1.522999    19B1     1.589285  
      34A1     1.755528    16B2     2.235346    35A1     2.303309  
      20B1     2.304830     8A2     2.419004    36A1     2.429629  
      17B2     2.502274    21B1     2.519387    37A1     2.681610  
      22B1     2.685356    18B2     2.705269    38A1     2.756590  
      19B2     2.794068     9A2     2.802940    23B1     2.809456  
      24B1     2.823955    20B2     2.824696    10A2     2.825151  
      39A1     2.927172    40A1     2.953589    25B1     3.102839  
      11A2     3.124818    21B2     3.225708    26B1     3.242890  
      41A1     3.299741    42A1     3.431539    27B1     3.481217  
      43A1     3.515780    22B2     3.568201    12A2     3.698560  
      23B2     3.723899    44A1     3.749492    45A1     3.835001  
      28B1     3.836769    13A2     3.880669    46A1     3.897114  
      24B2     3.933557    29B1     3.951848    47A1     4.279440  
      25B2     4.319665    48A1     4.428681    30B1     4.462617  
      14A2     4.501115    31B1     4.736836    49A1     4.954731  
      50A1     5.019884    32B1     5.122627    26B2    10.973495  
      51A1    10.974304    15A2    10.976649    33B1    10.985460  
      27B2    10.987862    52A1    10.995251    34B1    10.995470  
      16A2    11.000617    53A1    11.000652    28B2    11.327803  
      35B1    11.328105    17A2    11.348091    54A1    11.371691  
      29B2    11.415352    36B1    11.472880    55A1    11.669407  
      56A1    21.659237  

    Final Occupation by Irrep:
             A1    A2    B1    B2 
    DOCC [     9,    1,    4,    3 ]
    SOCC [     1,    0,    0,    0 ]

  @DF-UKS Final Energy: -1547.43500486850326

   => Energetics <=

    Nuclear Repulsion Energy =             67.5942373736080242
    One-Electron Energy =               -2273.8827423397106031
    Two-Electron Energy =                 698.4909188282830428
    DFT Exchange-Correlation Energy =     -39.6373544006839253
    Empirical Dispersion Energy =          -0.0000643300000000
    VV10 Nonlocal Energy =                  0.0000000000000000
    Total Energy =                      -1547.4350048685034835

  UHF NO Occupations:
  HONO-2 :    9 A1 1.9983155
  HONO-1 :    3 B2 1.9511109
  HONO-0 :   10 A1 1.0000000
  LUNO+0 :    4 B2 0.0488891
  LUNO+1 :   11 A1 0.0016845
  LUNO+2 :    5 B1 0.0003224
  LUNO+3 :   12 A1 0.0000775


Computation Completed


Properties will be evaluated at   0.000000,   0.000000,   0.000000 [a0]

Properties computed using the SCF density matrix

  Nuclear Dipole Moment: [e a0]
     X:     0.0000      Y:     0.0000      Z:    -4.4239

  Electronic Dipole Moment: [e a0]
     X:     0.0000      Y:     0.0000      Z:     4.2594

  Dipole Moment: [e a0]
     X:     0.0000      Y:     0.0000      Z:    -0.1646     Total:     0.1646

  Dipole Moment: [D]
     X:     0.0000      Y:     0.0000      Z:    -0.4183     Total:     0.4183


*** tstop() called on compute139.bc4.acrc.priv at Sun Nov  7 05:06:09 2021
Module time:
	user time   =    1141.81 seconds =      19.03 minutes
	system time =      41.13 seconds =       0.69 minutes
	total time  =         45 seconds =       0.75 minutes
Total time:
	user time   =    1141.81 seconds =      19.03 minutes
	system time =      41.13 seconds =       0.69 minutes
	total time  =         45 seconds =       0.75 minutes

    Psi4 stopped on: Sunday, 07 November 2021 05:06AM
    Psi4 wall time for execution: 0:00:44.65

*** Psi4 exiting successfully. Buy a developer a beer!
