
    -----------------------------------------------------------------------
          Psi4: An Open-Source Ab Initio Electronic Structure Package
                               Psi4 1.4.1 release

                         Git: Rev {HEAD} cd00f19 


    D. G. A. Smith, L. A. Burns, A. C. Simmonett, R. M. Parrish,
    M. C. Schieber, R. Galvelis, P. Kraus, H. Kruse, R. Di Remigio,
    A. Alenaizan, A. M. James, S. Lehtola, J. P. Misiewicz, M. Scheurer,
    R. A. Shaw, J. B. Schriber, Y. Xie, Z. L. Glick, D. A. Sirianni,
    J. S. O'Brien, J. M. Waldrop, A. Kumar, E. G. Hohenstein,
    B. P. Pritchard, B. R. Brooks, H. F. Schaefer III, A. Yu. Sokolov,
    K. Patkowski, A. E. DePrince III, U. Bozkaya, R. A. King,
    F. A. Evangelista, J. M. Turney, T. D. Crawford, C. D. Sherrill,
    J. Chem. Phys. 152(18) 184108 (2020). https://doi.org/10.1063/5.0006002

                            Additional Code Authors
    E. T. Seidl, C. L. Janssen, E. F. Valeev, M. L. Leininger,
    J. F. Gonthier, R. M. Richard, H. R. McAlexander, M. Saitow, X. Wang,
    P. Verma, and M. H. Lechner

             Previous Authors, Complete List of Code Contributors,
                       and Citations for Specific Modules
    https://github.com/psi4/psi4/blob/master/codemeta.json
    https://github.com/psi4/psi4/graphs/contributors
    http://psicode.org/psi4manual/master/introduction.html#citing-psifour

    -----------------------------------------------------------------------


    Psi4 started on: Sunday, 07 November 2021 05:05AM

    Process ID: 2723
    Host:       compute134.bc4.acrc.priv
    PSIDATADIR: /mnt/storage/home/zw18965/.conda/envs/p4env/share/psi4
    Memory:     500.0 MiB
    Threads:    28
    
  ==> Input File <==

--------------------------------------------------------------------------
memory 120 GB

molecule {
0 3
O          0.00000        0.00000        0.00000
O          0.00000        0.00000        1.20780
 }

set reference uks
set dynamic_level 1
set basis Def2-TZVPPD

energy("MN15-D3BJ")
--------------------------------------------------------------------------

  Memory set to 111.759 GiB by Python driver.

Scratch directory: /tmp/

*** tstart() called on compute134.bc4.acrc.priv
*** at Sun Nov  7 05:05:24 2021

   => Loading Basis Set <=

    Name: DEF2-TZVPPD
    Role: ORBITAL
    Keyword: BASIS
    atoms 1-2 entry O          line   218 file /mnt/storage/home/zw18965/.conda/envs/p4env/share/psi4/basis/def2-tzvppd.gbs 

   => MN15-D3(BJ): Empirical Dispersion <=

    Grimme's -D3 (BJ-damping) Dispersion Correction
    Grimme S.; Ehrlich S.; Goerigk L. (2011), J. Comput. Chem., 32: 1456
    Parametrisation from:    L. Goerigk, A. Hansen, C. Bauer, S. Ehrlich, A. Najibi, S. Grimme, Phys. Chem. Chem. Phys. 19, 32184-32215, 2017

        s6 =       1.000000
        s8 =       2.097100
        a1 =       0.786200
        a2 =       7.592300


         ---------------------------------------------------------
                                   SCF
               by Justin Turney, Rob Parrish, Andy Simmonett
                          and Daniel G. A. Smith
                              UKS Reference
                       28 Threads, 114440 MiB Core
         ---------------------------------------------------------

  ==> Geometry <==

    Molecular point group: d2h
    Full point group: D_inf_h

    Geometry (in Angstrom), charge = 0, multiplicity = 3:

       Center              X                  Y                   Z               Mass       
    ------------   -----------------  -----------------  -----------------  -----------------
         O            0.000000000000     0.000000000000    -0.603900000000    15.994914619570
         O            0.000000000000     0.000000000000     0.603900000000    15.994914619570

  Running in d2h symmetry.

  Rotational constants: A = ************  B =      1.44496  C =      1.44496 [cm^-1]
  Rotational constants: A = ************  B =  43318.68039  C =  43318.68039 [MHz]
  Nuclear repulsion =   28.040521181387646

  Charge       = 0
  Multiplicity = 3
  Electrons    = 16
  Nalpha       = 9
  Nbeta        = 7

  ==> Algorithm <==

  SCF Algorithm Type is DF.
  DIIS enabled.
  MOM disabled.
  Fractional occupation disabled.
  Guess Type is SAD.
  Energy threshold   = 1.00e-06
  Density threshold  = 1.00e-06
  Integral threshold = 1.00e-12

  ==> Primary Basis <==

  Basis Set: DEF2-TZVPPD
    Blend: DEF2-TZVPPD
    Number of shells: 28
    Number of basis functions: 80
    Number of Cartesian functions: 92
    Spherical Harmonics?: true
    Max angular momentum: 3

  ==> DFT Potential <==

   => Composite Functional: MN15-D3BJ <= 

   MN15 Hybrid Meta-GGA Exchange-Correlation Functional

    H. S. Yu, X. He, S. L. Li, and D. G. Truhlar, Chem. Sci. 7, 5032-5051, 2016


    Deriv               =              1
    GGA                 =           TRUE
    Meta                =           TRUE

    Exchange Hybrid     =           TRUE
    MP2 Hybrid          =          FALSE

   => Exchange Functionals <=

    1.0000   XC_HYB_MGGA_X_MN15

   => Exact (HF) Exchange <=

    0.4400               HF 

   => Correlation Functionals <=

    1.0000   XC_MGGA_C_MN15

   => LibXC Density Thresholds  <==

    XC_MGGA_C_MN15:  1.00E-15 
    XC_HYB_MGGA_X_MN15:  1.00E-15 

   => Molecular Quadrature <=

    Radial Scheme          =       TREUTLER
    Pruning Scheme         =           NONE
    Nuclear Scheme         =       TREUTLER

    BS radius alpha        =              1
    Pruning alpha          =              1
    Radial Points          =             75
    Spherical Points       =            302
    Total Points           =          44640
    Total Blocks           =            410
    Max Points             =            255
    Max Functions          =             79
    Weights Tolerance      =       1.00E-15

   => Loading Basis Set <=

    Name: (DEF2-TZVPPD AUX)
    Role: JKFIT
    Keyword: DF_BASIS_SCF
    atoms 1-2 entry O          line   318 file /mnt/storage/home/zw18965/.conda/envs/p4env/share/psi4/basis/def2-universal-jkfit.gbs 

  ==> Integral Setup <==

  DFHelper Memory: AOs need 0.010 GiB; user supplied 83.581 GiB. Using in-core AOs.

  ==> MemDFJK: Density-Fitted J/K Matrices <==

    J tasked:                   Yes
    K tasked:                   Yes
    wK tasked:                   No
    OpenMP threads:              28
    Memory [MiB]:             85586
    Algorithm:                 Core
    Schwarz Cutoff:           1E-12
    Mask sparsity (%):       0.0313
    Fitting Condition:        1E-10

   => Auxiliary Basis Set <=

  Basis Set: (DEF2-TZVPPD AUX)
    Blend: DEF2-UNIVERSAL-JKFIT
    Number of shells: 50
    Number of basis functions: 154
    Number of Cartesian functions: 186
    Spherical Harmonics?: true
    Max angular momentum: 4

  Cached 100.0% of DFT collocation blocks in 0.238 [GiB].

  Minimum eigenvalue in the overlap matrix is 5.0258390505E-04.
  Reciprocal condition number of the overlap matrix is 9.6283740650E-05.
    Using symmetric orthogonalization.

  ==> Pre-Iterations <==

  SCF Guess: Superposition of Atomic Densities via on-the-fly atomic UHF (no occupation information).

   -------------------------
    Irrep   Nso     Nmo    
   -------------------------
     Ag        18      18 
     B1g        4       4 
     B2g        9       9 
     B3g        9       9 
     Au         4       4 
     B1u       18      18 
     B2u        9       9 
     B3u        9       9 
   -------------------------
    Total      80      80
   -------------------------

  ==> Iterations <==

                           Total Energy        Delta E     RMS |[F,P]|

   @DF-UKS iter SAD:  -149.79521267745491   -1.49795e+02   0.00000e+00 
   @DF-UKS iter   1:  -150.21772432903907   -4.22512e-01   7.47834e-03 DIIS
   @DF-UKS iter   2:  -150.23232158096459   -1.45973e-02   3.64847e-03 DIIS
   @DF-UKS iter   3:  -150.23569213149625   -3.37055e-03   5.19296e-04 DIIS
   @DF-UKS iter   4:  -150.23578395541051   -9.18239e-05   1.94910e-04 DIIS
   @DF-UKS iter   5:  -150.23579940909781   -1.54537e-05   1.27009e-05 DIIS
   @DF-UKS iter   6:  -150.23579958748121   -1.78383e-07   1.51550e-06 DIIS
   @DF-UKS iter   7:  -150.23579959026281   -2.78160e-09   1.68040e-07 DIIS
  Energy and wave function converged.


  ==> Post-Iterations <==

   Electrons on quadrature grid:
      Nalpha   =    8.9999995294 ; deviation = -4.706e-07
      Nbeta    =    6.9999999483 ; deviation = -5.167e-08
      Ntotal   =   15.9999994777 ; deviation = -5.223e-07 

   @Spin Contamination Metric:   5.887424329E-03
   @S^2 Expected:                2.000000000E+00
   @S^2 Observed:                2.005887424E+00
   @S   Expected:                1.000000000E+00
   @S   Observed:                1.000000000E+00

    Orbital Energies [Eh]
    ---------------------

    Alpha Occupied:                                                       

       1Ag   -18.982607     1B1u  -18.982403     2Ag    -1.345632  
       2B1u   -0.875267     1B3u   -0.619859     1B2u   -0.619859  
       3Ag    -0.606875     1B2g   -0.359870     1B3g   -0.359870  

    Alpha Virtual:                                                        

       3B1u    0.085837     4Ag     0.106520     2B3u    0.123328  
       2B2u    0.123328     5Ag     0.166336     2B3g    0.168326  
       2B2g    0.168326     4B1u    0.232068     5B1u    0.327141  
       6Ag     0.363276     1B1g    0.363276     7Ag     0.455017  
       3B3g    0.504990     3B2g    0.504990     3B3u    0.519060  
       3B2u    0.519060     6B1u    0.522973     1Au     0.537783  
       7B1u    0.537783     4B3u    0.574973     4B2u    0.574973  
       8Ag     0.664848     8B1u    0.825853     4B3g    0.943884  
       4B2g    0.943884     9Ag     0.944503     9B1u    1.271215  
       5B3u    1.495955     5B2u    1.495955     2B1g    1.499740  
      10Ag     1.499741     2Au     1.813140    10B1u    1.813140  
      11Ag     1.961975     5B3g    2.142680     5B2g    2.142680  
      11B1u    2.401060     6B3u    2.489300     6B2u    2.489300  
      12Ag     2.811774     6B3g    2.974373     6B2g    2.974373  
      13Ag     3.102867    12B1u    3.222711    13B1u    4.195119  
       3B1g    4.496946    14Ag     4.496984     7B2u    4.612285  
       7B3u    4.612285     8B3u    4.807633     8B2u    4.807633  
      15Ag     4.915781     7B2g    5.040497     7B3g    5.040497  
       3Au     5.569734    14B1u    5.569745    16Ag     6.036142  
       4B1g    6.036233     8B3g    6.131477     8B2g    6.131477  
      15B1u    6.206195     4Au     6.206230     9B2u    6.331518  
       9B3u    6.331518    16B1u    6.341149     9B3g    7.045521  
       9B2g    7.045521    17Ag     7.258058    17B1u    8.424482  
      18Ag    41.595369    18B1u   42.205172  

    Beta Occupied:                                                        

       1Ag   -18.960116     1B1u  -18.959583     2Ag    -1.291505  
       2B1u   -0.804884     3Ag    -0.560298     1B3u   -0.519425  
       1B2u   -0.519425  

    Beta Virtual:                                                         

       1B2g   -0.086778     1B3g   -0.086778     3B1u    0.087423  
       4Ag     0.112388     2B3u    0.128219     2B2u    0.128219  
       5Ag     0.162078     2B3g    0.173501     2B2g    0.173501  
       4B1u    0.246767     5B1u    0.352792     6Ag     0.369314  
       1B1g    0.369314     7Ag     0.453029     3B3g    0.529546  
       3B2g    0.529546     6B1u    0.531898     3B3u    0.533687  
       3B2u    0.533687     7B1u    0.564368     1Au     0.564368  
       4B3u    0.589474     4B2u    0.589474     8Ag     0.676193  
       8B1u    0.833014     9Ag     0.951683     4B3g    0.974756  
       4B2g    0.974756     9B1u    1.297412     5B3u    1.522617  
       5B2u    1.522617     2B1g    1.535899    10Ag     1.535905  
       2Au     1.873397    10B1u    1.873403    11Ag     1.980044  
       5B3g    2.185885     5B2g    2.185885    11B1u    2.408709  
       6B3u    2.573026     6B2u    2.573026    12Ag     2.847503  
       6B3g    3.054528     6B2g    3.054528    13Ag     3.093656  
      12B1u    3.277286    13B1u    4.198230     3B1g    4.507591  
      14Ag     4.507606     7B2u    4.602799     7B3u    4.602799  
       8B3u    4.863327     8B2u    4.863327    15Ag     4.889349  
       7B2g    5.099960     7B3g    5.099960     3Au     5.585312  
      14B1u    5.585313    16Ag     6.120885     4B1g    6.120905  
       8B3g    6.143482     8B2g    6.143482     4Au     6.289651  
      15B1u    6.289670     9B2u    6.345100     9B3u    6.345100  
      16B1u    6.346259     9B3g    7.027846     9B2g    7.027846  
      17Ag     7.214875    17B1u    8.376755    18Ag    41.671904  
      18B1u   42.283809  

    Final Occupation by Irrep:
             Ag   B1g   B2g   B3g    Au   B1u   B2u   B3u 
    DOCC [     3,    0,    0,    0,    0,    2,    1,    1 ]
    SOCC [     0,    0,    1,    1,    0,    0,    0,    0 ]

  @DF-UKS Final Energy:  -150.23579959026281

   => Energetics <=

    Nuclear Repulsion Energy =             28.0405211813876463
    One-Electron Energy =                -261.8692175353871789
    Two-Electron Energy =                  93.2925540335699850
    DFT Exchange-Correlation Energy =      -9.6996481998333124
    Empirical Dispersion Energy =          -0.0000090700000000
    VV10 Nonlocal Energy =                  0.0000000000000000
    Total Energy =                       -150.2357995902628716

  UHF NO Occupations:
  HONO-2 :    1B3u 1.9986644
  HONO-1 :    1B2g 1.0000000
  HONO-0 :    1B3g 1.0000000
  LUNO+0 :    2B2u 0.0013356
  LUNO+1 :    2B3u 0.0013356
  LUNO+2 :    4 Ag 0.0001334
  LUNO+3 :    3B1u 0.0001229


Computation Completed


Properties will be evaluated at   0.000000,   0.000000,   0.000000 [a0]

Properties computed using the SCF density matrix

  Nuclear Dipole Moment: [e a0]
     X:     0.0000      Y:     0.0000      Z:     0.0000

  Electronic Dipole Moment: [e a0]
     X:     0.0000      Y:     0.0000      Z:     0.0000

  Dipole Moment: [e a0]
     X:     0.0000      Y:     0.0000      Z:     0.0000     Total:     0.0000

  Dipole Moment: [D]
     X:     0.0000      Y:     0.0000      Z:     0.0000     Total:     0.0000


*** tstop() called on compute134.bc4.acrc.priv at Sun Nov  7 05:05:30 2021
Module time:
	user time   =     113.59 seconds =       1.89 minutes
	system time =       5.57 seconds =       0.09 minutes
	total time  =          6 seconds =       0.10 minutes
Total time:
	user time   =     113.59 seconds =       1.89 minutes
	system time =       5.57 seconds =       0.09 minutes
	total time  =          6 seconds =       0.10 minutes

    Psi4 stopped on: Sunday, 07 November 2021 05:05AM
    Psi4 wall time for execution: 0:00:06.28

*** Psi4 exiting successfully. Buy a developer a beer!
