
    -----------------------------------------------------------------------
          Psi4: An Open-Source Ab Initio Electronic Structure Package
                               Psi4 1.4.1 release

                         Git: Rev {HEAD} cd00f19 


    D. G. A. Smith, L. A. Burns, A. C. Simmonett, R. M. Parrish,
    M. C. Schieber, R. Galvelis, P. Kraus, H. Kruse, R. Di Remigio,
    A. Alenaizan, A. M. James, S. Lehtola, J. P. Misiewicz, M. Scheurer,
    R. A. Shaw, J. B. Schriber, Y. Xie, Z. L. Glick, D. A. Sirianni,
    J. S. O'Brien, J. M. Waldrop, A. Kumar, E. G. Hohenstein,
    B. P. Pritchard, B. R. Brooks, H. F. Schaefer III, A. Yu. Sokolov,
    K. Patkowski, A. E. DePrince III, U. Bozkaya, R. A. King,
    F. A. Evangelista, J. M. Turney, T. D. Crawford, C. D. Sherrill,
    J. Chem. Phys. 152(18) 184108 (2020). https://doi.org/10.1063/5.0006002

                            Additional Code Authors
    E. T. Seidl, C. L. Janssen, E. F. Valeev, M. L. Leininger,
    J. F. Gonthier, R. M. Richard, H. R. McAlexander, M. Saitow, X. Wang,
    P. Verma, and M. H. Lechner

             Previous Authors, Complete List of Code Contributors,
                       and Citations for Specific Modules
    https://github.com/psi4/psi4/blob/master/codemeta.json
    https://github.com/psi4/psi4/graphs/contributors
    http://psicode.org/psi4manual/master/introduction.html#citing-psifour

    -----------------------------------------------------------------------


    Psi4 started on: Sunday, 07 November 2021 05:05AM

    Process ID: 29493
    Host:       compute276.bc4.acrc.priv
    PSIDATADIR: /mnt/storage/home/zw18965/.conda/envs/p4env/share/psi4
    Memory:     500.0 MiB
    Threads:    28
    
  ==> Input File <==

--------------------------------------------------------------------------
memory 120 GB

molecule {
0 1
O          0.00000        0.00000        0.00000
O          0.00000        0.00000        1.26881
O          1.12933        0.00000       -0.57836
 }

set dynamic_level 1
set basis Def2-TZVPPD

energy("MN15-D3BJ")
--------------------------------------------------------------------------

  Memory set to 111.759 GiB by Python driver.

Scratch directory: /tmp/

*** tstart() called on compute276.bc4.acrc.priv
*** at Sun Nov  7 05:05:36 2021

   => Loading Basis Set <=

    Name: DEF2-TZVPPD
    Role: ORBITAL
    Keyword: BASIS
    atoms 1-3 entry O          line   218 file /mnt/storage/home/zw18965/.conda/envs/p4env/share/psi4/basis/def2-tzvppd.gbs 

   => MN15-D3(BJ): Empirical Dispersion <=

    Grimme's -D3 (BJ-damping) Dispersion Correction
    Grimme S.; Ehrlich S.; Goerigk L. (2011), J. Comput. Chem., 32: 1456
    Parametrisation from:    L. Goerigk, A. Hansen, C. Bauer, S. Ehrlich, A. Najibi, S. Grimme, Phys. Chem. Chem. Phys. 19, 32184-32215, 2017

        s6 =       1.000000
        s8 =       2.097100
        a1 =       0.786200
        a2 =       7.592300


         ---------------------------------------------------------
                                   SCF
               by Justin Turney, Rob Parrish, Andy Simmonett
                          and Daniel G. A. Smith
                              RKS Reference
                       28 Threads, 114440 MiB Core
         ---------------------------------------------------------

  ==> Geometry <==

    Molecular point group: cs
    Full point group: Cs

    Geometry (in Angstrom), charge = 0, multiplicity = 1:

       Center              X                  Y                   Z               Mass       
    ------------   -----------------  -----------------  -----------------  -----------------
         O            0.376443333333    -0.230150000000     0.000000000000    15.994914619570
         O            0.376443333333     1.038660000000     0.000000000000    15.994914619570
         O           -0.752886666667    -0.808510000000     0.000000000000    15.994914619570

  Running in cs symmetry.

  Rotational constants: A =      3.60915  B =      0.44969  C =      0.39987 [cm^-1]
  Rotational constants: A = 108199.63281  B =  13481.27905  C =  11987.66035 [MHz]
  Nuclear repulsion =   69.027136663518178

  Charge       = 0
  Multiplicity = 1
  Electrons    = 24
  Nalpha       = 12
  Nbeta        = 12

  ==> Algorithm <==

  SCF Algorithm Type is DF.
  DIIS enabled.
  MOM disabled.
  Fractional occupation disabled.
  Guess Type is SAD.
  Energy threshold   = 1.00e-06
  Density threshold  = 1.00e-06
  Integral threshold = 1.00e-12

  ==> Primary Basis <==

  Basis Set: DEF2-TZVPPD
    Blend: DEF2-TZVPPD
    Number of shells: 42
    Number of basis functions: 120
    Number of Cartesian functions: 138
    Spherical Harmonics?: true
    Max angular momentum: 3

  ==> DFT Potential <==

   => Composite Functional: MN15-D3BJ <= 

   MN15 Hybrid Meta-GGA Exchange-Correlation Functional

    H. S. Yu, X. He, S. L. Li, and D. G. Truhlar, Chem. Sci. 7, 5032-5051, 2016


    Deriv               =              1
    GGA                 =           TRUE
    Meta                =           TRUE

    Exchange Hybrid     =           TRUE
    MP2 Hybrid          =          FALSE

   => Exchange Functionals <=

    1.0000   XC_HYB_MGGA_X_MN15

   => Exact (HF) Exchange <=

    0.4400               HF 

   => Correlation Functionals <=

    1.0000   XC_MGGA_C_MN15

   => LibXC Density Thresholds  <==

    XC_MGGA_C_MN15:  1.00E-15 
    XC_HYB_MGGA_X_MN15:  1.00E-15 

   => Molecular Quadrature <=

    Radial Scheme          =       TREUTLER
    Pruning Scheme         =           NONE
    Nuclear Scheme         =       TREUTLER

    BS radius alpha        =              1
    Pruning alpha          =              1
    Radial Points          =             75
    Spherical Points       =            302
    Total Points           =          66681
    Total Blocks           =            559
    Max Points             =            256
    Max Functions          =            119
    Weights Tolerance      =       1.00E-15

   => Loading Basis Set <=

    Name: (DEF2-TZVPPD AUX)
    Role: JKFIT
    Keyword: DF_BASIS_SCF
    atoms 1-3 entry O          line   318 file /mnt/storage/home/zw18965/.conda/envs/p4env/share/psi4/basis/def2-universal-jkfit.gbs 

  ==> Integral Setup <==

  DFHelper Memory: AOs need 0.031 GiB; user supplied 83.308 GiB. Using in-core AOs.

  ==> MemDFJK: Density-Fitted J/K Matrices <==

    J tasked:                   Yes
    K tasked:                   Yes
    wK tasked:                   No
    OpenMP threads:              28
    Memory [MiB]:             85307
    Algorithm:                 Core
    Schwarz Cutoff:           1E-12
    Mask sparsity (%):       0.2222
    Fitting Condition:        1E-10

   => Auxiliary Basis Set <=

  Basis Set: (DEF2-TZVPPD AUX)
    Blend: DEF2-UNIVERSAL-JKFIT
    Number of shells: 75
    Number of basis functions: 231
    Number of Cartesian functions: 279
    Spherical Harmonics?: true
    Max angular momentum: 4

  Cached 100.0% of DFT collocation blocks in 0.511 [GiB].

  Minimum eigenvalue in the overlap matrix is 2.1333653966E-04.
  Reciprocal condition number of the overlap matrix is 3.0218422033E-05.
    Using symmetric orthogonalization.

  ==> Pre-Iterations <==

  SCF Guess: Superposition of Atomic Densities via on-the-fly atomic UHF (no occupation information).

   -------------------------
    Irrep   Nso     Nmo    
   -------------------------
     A'        81      81 
     A"        39      39 
   -------------------------
    Total     120     120
   -------------------------

  ==> Iterations <==

                           Total Energy        Delta E     RMS |[F,P]|

   @DF-RKS iter SAD:  -224.87780146951903   -2.24878e+02   0.00000e+00 
   @DF-RKS iter   1:  -225.13466780240884   -2.56866e-01   7.76753e-03 DIIS
   @DF-RKS iter   2:  -224.79435858624100    3.40309e-01   1.42368e-02 DIIS
   @DF-RKS iter   3:  -225.28643955941257   -4.92081e-01   8.62188e-04 DIIS
   @DF-RKS iter   4:  -225.28790756218697   -1.46800e-03   2.42385e-04 DIIS
   @DF-RKS iter   5:  -225.28805095634496   -1.43394e-04   4.63496e-05 DIIS
   @DF-RKS iter   6:  -225.28805679078673   -5.83444e-06   7.20460e-06 DIIS
   @DF-RKS iter   7:  -225.28805689952003   -1.08733e-07   7.52845e-06 DIIS
   @DF-RKS iter   8:  -225.28805703745917   -1.37939e-07   3.24021e-06 DIIS
   @DF-RKS iter   9:  -225.28805706929705   -3.18379e-08   1.84211e-07 DIIS
  Energy and wave function converged.


  ==> Post-Iterations <==

   Electrons on quadrature grid:
      Ntotal   =   23.9999961830 ; deviation = -3.817e-06 

    Orbital Energies [Eh]
    ---------------------

    Doubly Occupied:                                                      

       1Ap   -19.129029     2Ap   -18.948032     3Ap   -18.947971  
       4Ap    -1.409822     5Ap    -1.140893     6Ap    -0.833363  
       1App   -0.658772     7Ap    -0.653283     8Ap    -0.641761  
       9Ap    -0.408828     2App   -0.407308    10Ap    -0.401363  

    Virtual:                                                              

       3App   -0.163455    11Ap     0.082857    12Ap     0.087235  
      13Ap     0.091385     4App    0.118788    14Ap     0.120889  
      15Ap     0.156682     5App    0.162872    16Ap     0.167182  
       6App    0.171820    17Ap     0.175280    18Ap     0.194680  
      19Ap     0.218345    20Ap     0.289686    21Ap     0.307725  
       7App    0.387464    22Ap     0.389972    23Ap     0.459575  
       8App    0.461737    24Ap     0.468430    25Ap     0.477201  
       9App    0.501578    10App    0.511798    26Ap     0.512828  
      27Ap     0.542213    11App    0.550370    28Ap     0.563663  
      12App    0.581597    29Ap     0.601291    30Ap     0.607741  
      13App    0.650850    31Ap     0.681404    32Ap     0.773744  
      33Ap     0.861211    34Ap     0.898497    14App    0.922360  
      15App    0.940093    35Ap     0.949665    36Ap     1.002923  
      37Ap     1.043665    38Ap     1.234869    39Ap     1.282455  
      16App    1.399505    40Ap     1.436302    17App    1.452978  
      41Ap     1.681339    42Ap     1.696565    18App    1.705857  
      19App    1.707861    43Ap     1.832832    44Ap     1.959808  
      20App    2.044516    45Ap     2.058741    21App    2.194242  
      46Ap     2.212926    47Ap     2.445390    48Ap     2.448233  
      22App    2.482576    49Ap     2.713976    50Ap     2.814143  
      23App    2.866273    51Ap     2.948408    24App    2.975660  
      52Ap     3.011206    53Ap     3.049383    54Ap     3.252302  
      55Ap     3.325923    56Ap     4.057959    57Ap     4.179096  
      25App    4.392138    26App    4.454739    58Ap     4.486786  
      59Ap     4.573202    27App    4.611375    60Ap     4.631138  
      61Ap     4.842389    28App    4.985651    62Ap     4.991205  
      29App    4.996376    63Ap     5.004551    30App    5.075686  
      64Ap     5.305410    65Ap     5.311056    31App    5.496127  
      66Ap     5.782842    32App    5.987085    33App    6.031307  
      67Ap     6.118004    34App    6.169530    35App    6.189906  
      68Ap     6.190521    69Ap     6.235879    36App    6.276003  
      37App    6.289129    70Ap     6.293652    71Ap     6.327323  
      72Ap     6.409606    73Ap     6.776521    38App    6.798792  
      39App    6.919427    74Ap     6.949491    75Ap     7.198245  
      76Ap     7.328582    77Ap     8.094208    78Ap     8.505805  
      79Ap    41.668089    80Ap    42.081922    81Ap    42.489002  

    Final Occupation by Irrep:
             Ap   App 
    DOCC [    10,    2 ]

  @DF-RKS Final Energy:  -225.28805706929705

   => Energetics <=

    Nuclear Repulsion Energy =             69.0271366635181778
    One-Electron Energy =                -446.0242470276850213
    Two-Electron Energy =                 166.2747962314668086
    DFT Exchange-Correlation Energy =     -14.5657175865970725
    Empirical Dispersion Energy =          -0.0000253500000000
    VV10 Nonlocal Energy =                  0.0000000000000000
    Total Energy =                       -225.2880570692970537

Computation Completed


Properties will be evaluated at   0.000000,   0.000000,   0.000000 [a0]

Properties computed using the SCF density matrix

  Nuclear Dipole Moment: [e a0]
     X:     0.0000      Y:     0.0000      Z:     0.0000

  Electronic Dipole Moment: [e a0]
     X:     0.2312      Y:    -0.1414      Z:     0.0000

  Dipole Moment: [e a0]
     X:     0.2312      Y:    -0.1414      Z:     0.0000     Total:     0.2710

  Dipole Moment: [D]
     X:     0.5877      Y:    -0.3593      Z:     0.0000     Total:     0.6889


*** tstop() called on compute276.bc4.acrc.priv at Sun Nov  7 05:05:39 2021
Module time:
	user time   =      28.90 seconds =       0.48 minutes
	system time =       2.39 seconds =       0.04 minutes
	total time  =          3 seconds =       0.05 minutes
Total time:
	user time   =      28.90 seconds =       0.48 minutes
	system time =       2.39 seconds =       0.04 minutes
	total time  =          3 seconds =       0.05 minutes

    Psi4 stopped on: Sunday, 07 November 2021 05:05AM
    Psi4 wall time for execution: 0:00:04.07

*** Psi4 exiting successfully. Buy a developer a beer!
