
    -----------------------------------------------------------------------
          Psi4: An Open-Source Ab Initio Electronic Structure Package
                               Psi4 1.4.1 release

                         Git: Rev {HEAD} cd00f19 


    D. G. A. Smith, L. A. Burns, A. C. Simmonett, R. M. Parrish,
    M. C. Schieber, R. Galvelis, P. Kraus, H. Kruse, R. Di Remigio,
    A. Alenaizan, A. M. James, S. Lehtola, J. P. Misiewicz, M. Scheurer,
    R. A. Shaw, J. B. Schriber, Y. Xie, Z. L. Glick, D. A. Sirianni,
    J. S. O'Brien, J. M. Waldrop, A. Kumar, E. G. Hohenstein,
    B. P. Pritchard, B. R. Brooks, H. F. Schaefer III, A. Yu. Sokolov,
    K. Patkowski, A. E. DePrince III, U. Bozkaya, R. A. King,
    F. A. Evangelista, J. M. Turney, T. D. Crawford, C. D. Sherrill,
    J. Chem. Phys. 152(18) 184108 (2020). https://doi.org/10.1063/5.0006002

                            Additional Code Authors
    E. T. Seidl, C. L. Janssen, E. F. Valeev, M. L. Leininger,
    J. F. Gonthier, R. M. Richard, H. R. McAlexander, M. Saitow, X. Wang,
    P. Verma, and M. H. Lechner

             Previous Authors, Complete List of Code Contributors,
                       and Citations for Specific Modules
    https://github.com/psi4/psi4/blob/master/codemeta.json
    https://github.com/psi4/psi4/graphs/contributors
    http://psicode.org/psi4manual/master/introduction.html#citing-psifour

    -----------------------------------------------------------------------


    Psi4 started on: Sunday, 07 November 2021 05:05AM

    Process ID: 2240
    Host:       compute348.bc4.acrc.priv
    PSIDATADIR: /mnt/storage/home/zw18965/.conda/envs/p4env/share/psi4
    Memory:     500.0 MiB
    Threads:    28
    
  ==> Input File <==

--------------------------------------------------------------------------
memory 120 GB

molecule {
0 3
S          0.00000        0.00000        0.00000
 }

set reference uks
set dynamic_level 1
set basis Def2-TZVPPD

energy("MN15-D3BJ")
--------------------------------------------------------------------------

  Memory set to 111.759 GiB by Python driver.

Scratch directory: /tmp/

*** tstart() called on compute348.bc4.acrc.priv
*** at Sun Nov  7 05:05:36 2021

   => Loading Basis Set <=

    Name: DEF2-TZVPPD
    Role: ORBITAL
    Keyword: BASIS
    atoms 1 entry S          line   558 file /mnt/storage/home/zw18965/.conda/envs/p4env/share/psi4/basis/def2-tzvppd.gbs 

   => MN15-D3(BJ): Empirical Dispersion <=

    Grimme's -D3 (BJ-damping) Dispersion Correction
    Grimme S.; Ehrlich S.; Goerigk L. (2011), J. Comput. Chem., 32: 1456
    Parametrisation from:    L. Goerigk, A. Hansen, C. Bauer, S. Ehrlich, A. Najibi, S. Grimme, Phys. Chem. Chem. Phys. 19, 32184-32215, 2017

        s6 =       1.000000
        s8 =       2.097100
        a1 =       0.786200
        a2 =       7.592300


         ---------------------------------------------------------
                                   SCF
               by Justin Turney, Rob Parrish, Andy Simmonett
                          and Daniel G. A. Smith
                              UKS Reference
                       28 Threads, 114440 MiB Core
         ---------------------------------------------------------

  ==> Geometry <==

    Molecular point group: d2h
    Geometry (in Angstrom), charge = 0, multiplicity = 3:

       Center              X                  Y                   Z               Mass       
    ------------   -----------------  -----------------  -----------------  -----------------
         S            0.000000000000     0.000000000000     0.000000000000    31.972071174400

  Running in d2h symmetry.

  Rotational constants: A = ************  B = ************  C = ************ [cm^-1]
  Rotational constants: A = ************  B = ************  C = ************ [MHz]
  Nuclear repulsion =    0.000000000000000

  Charge       = 0
  Multiplicity = 3
  Electrons    = 16
  Nalpha       = 9
  Nbeta        = 7

  ==> Algorithm <==

  SCF Algorithm Type is DF.
  DIIS enabled.
  MOM disabled.
  Fractional occupation disabled.
  Guess Type is CORE.
  Energy threshold   = 1.00e-06
  Density threshold  = 1.00e-06
  Integral threshold = 1.00e-12

  ==> Primary Basis <==

  Basis Set: DEF2-TZVPPD
    Blend: DEF2-TZVPPD
    Number of shells: 17
    Number of basis functions: 51
    Number of Cartesian functions: 58
    Spherical Harmonics?: true
    Max angular momentum: 3

  ==> DFT Potential <==

   => Composite Functional: MN15-D3BJ <= 

   MN15 Hybrid Meta-GGA Exchange-Correlation Functional

    H. S. Yu, X. He, S. L. Li, and D. G. Truhlar, Chem. Sci. 7, 5032-5051, 2016


    Deriv               =              1
    GGA                 =           TRUE
    Meta                =           TRUE

    Exchange Hybrid     =           TRUE
    MP2 Hybrid          =          FALSE

   => Exchange Functionals <=

    1.0000   XC_HYB_MGGA_X_MN15

   => Exact (HF) Exchange <=

    0.4400               HF 

   => Correlation Functionals <=

    1.0000   XC_MGGA_C_MN15

   => LibXC Density Thresholds  <==

    XC_MGGA_C_MN15:  1.00E-15 
    XC_HYB_MGGA_X_MN15:  1.00E-15 

   => Molecular Quadrature <=

    Radial Scheme          =       TREUTLER
    Pruning Scheme         =           NONE
    Nuclear Scheme         =       TREUTLER

    BS radius alpha        =              1
    Pruning alpha          =              1
    Radial Points          =             75
    Spherical Points       =            302
    Total Points           =          22046
    Total Blocks           =            238
    Max Points             =            249
    Max Functions          =             51
    Weights Tolerance      =       1.00E-15

   => Loading Basis Set <=

    Name: (DEF2-TZVPPD AUX)
    Role: JKFIT
    Keyword: DF_BASIS_SCF
    atoms 1 entry S          line   903 file /mnt/storage/home/zw18965/.conda/envs/p4env/share/psi4/basis/def2-universal-jkfit.gbs 

  ==> Integral Setup <==

  DFHelper Memory: AOs need 0.004 GiB; user supplied 83.747 GiB. Using in-core AOs.

  ==> MemDFJK: Density-Fitted J/K Matrices <==

    J tasked:                   Yes
    K tasked:                   Yes
    wK tasked:                   No
    OpenMP threads:              28
    Memory [MiB]:             85756
    Algorithm:                 Core
    Schwarz Cutoff:           1E-12
    Mask sparsity (%):       0.0000
    Fitting Condition:        1E-10

   => Auxiliary Basis Set <=

  Basis Set: (DEF2-TZVPPD AUX)
    Blend: DEF2-UNIVERSAL-JKFIT
    Number of shells: 38
    Number of basis functions: 128
    Number of Cartesian functions: 155
    Spherical Harmonics?: true
    Max angular momentum: 4

  Cached 100.0% of DFT collocation blocks in 0.072 [GiB].

  Minimum eigenvalue in the overlap matrix is 3.2537191408E-02.
  Reciprocal condition number of the overlap matrix is 1.1088033782E-02.
    Using symmetric orthogonalization.

  ==> Pre-Iterations <==

  SCF Guess: Core (One-Electron) Hamiltonian.

   -------------------------------------------------------
    Irrep   Nso     Nmo     Nalpha   Nbeta   Ndocc  Nsocc
   -------------------------------------------------------
     Ag        14      14       3       2       2       1
     B1g        4       4       0       0       0       0
     B2g        4       4       0       0       0       0
     B3g        4       4       0       0       0       0
     Au         1       1       0       0       0       0
     B1u        8       8       2       2       2       0
     B2u        8       8       2       1       1       1
     B3u        8       8       2       2       2       0
   -------------------------------------------------------
    Total      51      51       9       7       7       2
   -------------------------------------------------------

  ==> Iterations <==

                           Total Energy        Delta E     RMS |[F,P]|

    Occupation by irrep:
             Ag   B1g   B2g   B3g    Au   B1u   B2u   B3u 
    DOCC [     2,    0,    0,    0,    0,    1,    2,    2 ]
    SOCC [     1,    0,    0,    0,    0,    1,    0,    0 ]

   @DF-UKS iter   1:  -359.67327807974704   -3.59673e+02   7.24888e-01 DIIS
    Occupation by irrep:
             Ag   B1g   B2g   B3g    Au   B1u   B2u   B3u 
    DOCC [     3,    0,    0,    0,    0,    1,    1,    2 ]
    SOCC [     0,    0,    0,    0,    0,    1,    1,    0 ]

   @DF-UKS iter   2:  -377.32802626021737   -1.76547e+01   5.88166e-01 DIIS
   @DF-UKS iter   3:  -397.76096057712573   -2.04329e+01   4.62138e-02 DIIS
   @DF-UKS iter   4:  -397.99307175567571   -2.32111e-01   7.31075e-03 DIIS
   @DF-UKS iter   5:  -398.00074391957759   -7.67216e-03   1.09259e-03 DIIS
   @DF-UKS iter   6:  -398.00095366097628   -2.09741e-04   1.01325e-04 DIIS
   @DF-UKS iter   7:  -398.00095630841065   -2.64743e-06   1.07364e-05 DIIS
   @DF-UKS iter   8:  -398.00095636357753   -5.51669e-08   1.90992e-06 DIIS
   @DF-UKS iter   9:  -398.00095636513134   -1.55381e-09   2.05172e-07 DIIS
  Energy and wave function converged.


  ==> Post-Iterations <==

   Electrons on quadrature grid:
      Nalpha   =    8.9999999901 ; deviation = -9.866e-09
      Nbeta    =    6.9999999901 ; deviation = -9.865e-09
      Ntotal   =   15.9999999803 ; deviation = -1.973e-08 

   @Spin Contamination Metric:   3.684291130E-03
   @S^2 Expected:                2.000000000E+00
   @S^2 Observed:                2.003684291E+00
   @S   Expected:                1.000000000E+00
   @S   Observed:                1.000000000E+00

    Orbital Energies [Eh]
    ---------------------

    Alpha Occupied:                                                       

       1Ag   -87.846066     2Ag    -7.756260     1B2u   -5.950169  
       1B1u   -5.950169     1B3u   -5.927698     3Ag    -0.747753  
       2B2u   -0.365224     2B1u   -0.365224     2B3u   -0.335589  

    Alpha Virtual:                                                        

       4Ag     0.065474     3B2u    0.078877     3B1u    0.078877  
       3B3u    0.085465     5Ag     0.155105     1B3g    0.155105  
       1B1g    0.169280     1B2g    0.169280     6Ag     0.173693  
       4B1u    0.384143     4B2u    0.384143     4B3u    0.401947  
       2B3g    0.470984     7Ag     0.470984     2B1g    0.499727  
       2B2g    0.499727     8Ag     0.506764     9Ag     0.653744  
       3B3g    1.463773    10Ag     1.463773     3B1g    1.524965  
       3B2g    1.524965     5B2u    1.529345     5B1u    1.529345  
      11Ag     1.550344     5B3u    1.581034     1Au     1.581034  
       6B2u    1.607742     6B1u    1.607742     6B3u    1.619270  
       7B2u    1.735330     7B1u    1.735330     7B3u    1.853509  
      12Ag     6.588575     4B3g    6.588575     4B1g    6.621123  
       4B2g    6.621123    13Ag     6.633324     8B2u    8.432710  
       8B1u    8.432710     8B3u    8.489376    14Ag    17.634079  

    Beta Occupied:                                                        

       1Ag   -87.837064     2Ag    -7.748236     1B1u   -5.938934  
       1B2u   -5.938934     1B3u   -5.925001     3Ag    -0.656368  
       2B3u   -0.296079  

    Beta Virtual:                                                         

       2B1u   -0.133133     2B2u   -0.133132     3B3u    0.087240  
       3B1u    0.091093     3B2u    0.091093     4Ag     0.093778  
       1B2g    0.190269     1B1g    0.190269     5Ag     0.206127  
       1B3g    0.222093     6Ag     0.222093     4B3u    0.407476  
       4B1u    0.453413     4B2u    0.453413     2B2g    0.543353  
       2B1g    0.543353     7Ag     0.550932     2B3g    0.566074  
       8Ag     0.566075     9Ag     0.696863     3B2g    1.553925  
       3B1g    1.553925    10Ag     1.555413     3B3g    1.603483  
      11Ag     1.603483     5B3u    1.664335     5B1u    1.672939  
       5B2u    1.672939     1Au     1.685262     6B3u    1.685262  
       6B1u    1.744132     6B2u    1.744132     7B3u    1.806547  
       7B1u    1.894105     7B2u    1.894105     4B2g    6.635319  
       4B1g    6.635319    12Ag     6.641535     4B3g    6.661012  
      13Ag     6.661012     8B3u    8.470295     8B1u    8.521968  
       8B2u    8.521968    14Ag    17.649482  

    Final Occupation by Irrep:
             Ag   B1g   B2g   B3g    Au   B1u   B2u   B3u 
    DOCC [     3,    0,    0,    0,    0,    1,    1,    2 ]
    SOCC [     0,    0,    0,    0,    0,    1,    1,    0 ]

  @DF-UKS Final Energy:  -398.00095636513134

   => Energetics <=

    Nuclear Repulsion Energy =              0.0000000000000000
    One-Electron Energy =                -549.6801093652516101
    Two-Electron Energy =                 166.2120851792395229
    DFT Exchange-Correlation Energy =     -14.5329321791192925
    Empirical Dispersion Energy =           0.0000000000000000
    VV10 Nonlocal Energy =                  0.0000000000000000
    Total Energy =                       -398.0009563651314011

  UHF NO Occupations:
  HONO-2 :    3 Ag 1.9988929
  HONO-1 :    2B1u 1.0000000
  HONO-0 :    2B2u 1.0000000
  LUNO+0 :    4 Ag 0.0011071
  LUNO+1 :    3B3u 0.0007309
  LUNO+2 :    4B3u 0.0000014
  LUNO+3 :    3B2u 0.0000013


Computation Completed


Properties will be evaluated at   0.000000,   0.000000,   0.000000 [a0]

Properties computed using the SCF density matrix

  Nuclear Dipole Moment: [e a0]
     X:     0.0000      Y:     0.0000      Z:     0.0000

  Electronic Dipole Moment: [e a0]
     X:     0.0000      Y:     0.0000      Z:     0.0000

  Dipole Moment: [e a0]
     X:     0.0000      Y:     0.0000      Z:     0.0000     Total:     0.0000

  Dipole Moment: [D]
     X:     0.0000      Y:     0.0000      Z:     0.0000     Total:     0.0000


*** tstop() called on compute348.bc4.acrc.priv at Sun Nov  7 05:05:40 2021
Module time:
	user time   =      50.82 seconds =       0.85 minutes
	system time =       2.48 seconds =       0.04 minutes
	total time  =          4 seconds =       0.07 minutes
Total time:
	user time   =      50.82 seconds =       0.85 minutes
	system time =       2.48 seconds =       0.04 minutes
	total time  =          4 seconds =       0.07 minutes

    Psi4 stopped on: Sunday, 07 November 2021 05:05AM
    Psi4 wall time for execution: 0:00:04.78

*** Psi4 exiting successfully. Buy a developer a beer!
