
    -----------------------------------------------------------------------
          Psi4: An Open-Source Ab Initio Electronic Structure Package
                               Psi4 1.4.1 release

                         Git: Rev {HEAD} cd00f19 


    D. G. A. Smith, L. A. Burns, A. C. Simmonett, R. M. Parrish,
    M. C. Schieber, R. Galvelis, P. Kraus, H. Kruse, R. Di Remigio,
    A. Alenaizan, A. M. James, S. Lehtola, J. P. Misiewicz, M. Scheurer,
    R. A. Shaw, J. B. Schriber, Y. Xie, Z. L. Glick, D. A. Sirianni,
    J. S. O'Brien, J. M. Waldrop, A. Kumar, E. G. Hohenstein,
    B. P. Pritchard, B. R. Brooks, H. F. Schaefer III, A. Yu. Sokolov,
    K. Patkowski, A. E. DePrince III, U. Bozkaya, R. A. King,
    F. A. Evangelista, J. M. Turney, T. D. Crawford, C. D. Sherrill,
    J. Chem. Phys. 152(18) 184108 (2020). https://doi.org/10.1063/5.0006002

                            Additional Code Authors
    E. T. Seidl, C. L. Janssen, E. F. Valeev, M. L. Leininger,
    J. F. Gonthier, R. M. Richard, H. R. McAlexander, M. Saitow, X. Wang,
    P. Verma, and M. H. Lechner

             Previous Authors, Complete List of Code Contributors,
                       and Citations for Specific Modules
    https://github.com/psi4/psi4/blob/master/codemeta.json
    https://github.com/psi4/psi4/graphs/contributors
    http://psicode.org/psi4manual/master/introduction.html#citing-psifour

    -----------------------------------------------------------------------


    Psi4 started on: Sunday, 07 November 2021 05:05AM

    Process ID: 6376
    Host:       compute379.bc4.acrc.priv
    PSIDATADIR: /mnt/storage/home/zw18965/.conda/envs/p4env/share/psi4
    Memory:     500.0 MiB
    Threads:    28
    
  ==> Input File <==

--------------------------------------------------------------------------
memory 120 GB

molecule {
0 3
S          0.00000        0.00000        0.96175
S          0.00000        0.00000       -0.96175
 }

set reference uks
set dynamic_level 1
set basis Def2-TZVPPD

energy("MN15-D3BJ")
--------------------------------------------------------------------------

  Memory set to 111.759 GiB by Python driver.

Scratch directory: /tmp/

*** tstart() called on compute379.bc4.acrc.priv
*** at Sun Nov  7 05:05:21 2021

   => Loading Basis Set <=

    Name: DEF2-TZVPPD
    Role: ORBITAL
    Keyword: BASIS
    atoms 1-2 entry S          line   558 file /mnt/storage/home/zw18965/.conda/envs/p4env/share/psi4/basis/def2-tzvppd.gbs 

   => MN15-D3(BJ): Empirical Dispersion <=

    Grimme's -D3 (BJ-damping) Dispersion Correction
    Grimme S.; Ehrlich S.; Goerigk L. (2011), J. Comput. Chem., 32: 1456
    Parametrisation from:    L. Goerigk, A. Hansen, C. Bauer, S. Ehrlich, A. Najibi, S. Grimme, Phys. Chem. Chem. Phys. 19, 32184-32215, 2017

        s6 =       1.000000
        s8 =       2.097100
        a1 =       0.786200
        a2 =       7.592300


         ---------------------------------------------------------
                                   SCF
               by Justin Turney, Rob Parrish, Andy Simmonett
                          and Daniel G. A. Smith
                              UKS Reference
                       28 Threads, 114440 MiB Core
         ---------------------------------------------------------

  ==> Geometry <==

    Molecular point group: d2h
    Full point group: D_inf_h

    Geometry (in Angstrom), charge = 0, multiplicity = 3:

       Center              X                  Y                   Z               Mass       
    ------------   -----------------  -----------------  -----------------  -----------------
         S            0.000000000000     0.000000000000     0.961750000000    31.972071174400
         S            0.000000000000     0.000000000000    -0.961750000000    31.972071174400

  Running in d2h symmetry.

  Rotational constants: A = ************  B =      0.28502  C =      0.28502 [cm^-1]
  Rotational constants: A = ************  B =   8544.60602  C =   8544.60602 [MHz]
  Nuclear repulsion =   70.428575997670904

  Charge       = 0
  Multiplicity = 3
  Electrons    = 32
  Nalpha       = 17
  Nbeta        = 15

  ==> Algorithm <==

  SCF Algorithm Type is DF.
  DIIS enabled.
  MOM disabled.
  Fractional occupation disabled.
  Guess Type is SAD.
  Energy threshold   = 1.00e-06
  Density threshold  = 1.00e-06
  Integral threshold = 1.00e-12

  ==> Primary Basis <==

  Basis Set: DEF2-TZVPPD
    Blend: DEF2-TZVPPD
    Number of shells: 34
    Number of basis functions: 102
    Number of Cartesian functions: 116
    Spherical Harmonics?: true
    Max angular momentum: 3

  ==> DFT Potential <==

   => Composite Functional: MN15-D3BJ <= 

   MN15 Hybrid Meta-GGA Exchange-Correlation Functional

    H. S. Yu, X. He, S. L. Li, and D. G. Truhlar, Chem. Sci. 7, 5032-5051, 2016


    Deriv               =              1
    GGA                 =           TRUE
    Meta                =           TRUE

    Exchange Hybrid     =           TRUE
    MP2 Hybrid          =          FALSE

   => Exchange Functionals <=

    1.0000   XC_HYB_MGGA_X_MN15

   => Exact (HF) Exchange <=

    0.4400               HF 

   => Correlation Functionals <=

    1.0000   XC_MGGA_C_MN15

   => LibXC Density Thresholds  <==

    XC_MGGA_C_MN15:  1.00E-15 
    XC_HYB_MGGA_X_MN15:  1.00E-15 

   => Molecular Quadrature <=

    Radial Scheme          =       TREUTLER
    Pruning Scheme         =           NONE
    Nuclear Scheme         =       TREUTLER

    BS radius alpha        =              1
    Pruning alpha          =              1
    Radial Points          =             75
    Spherical Points       =            302
    Total Points           =          44148
    Total Blocks           =            424
    Max Points             =            252
    Max Functions          =            101
    Weights Tolerance      =       1.00E-15

   => Loading Basis Set <=

    Name: (DEF2-TZVPPD AUX)
    Role: JKFIT
    Keyword: DF_BASIS_SCF
    atoms 1-2 entry S          line   903 file /mnt/storage/home/zw18965/.conda/envs/p4env/share/psi4/basis/def2-universal-jkfit.gbs 

  ==> Integral Setup <==

  DFHelper Memory: AOs need 0.024 GiB; user supplied 83.556 GiB. Using in-core AOs.

  ==> MemDFJK: Density-Fitted J/K Matrices <==

    J tasked:                   Yes
    K tasked:                   Yes
    wK tasked:                   No
    OpenMP threads:              28
    Memory [MiB]:             85561
    Algorithm:                 Core
    Schwarz Cutoff:           1E-12
    Mask sparsity (%):       1.2111
    Fitting Condition:        1E-10

   => Auxiliary Basis Set <=

  Basis Set: (DEF2-TZVPPD AUX)
    Blend: DEF2-UNIVERSAL-JKFIT
    Number of shells: 76
    Number of basis functions: 256
    Number of Cartesian functions: 310
    Spherical Harmonics?: true
    Max angular momentum: 4

  Cached 100.0% of DFT collocation blocks in 0.263 [GiB].

  Minimum eigenvalue in the overlap matrix is 1.3730495336E-03.
  Reciprocal condition number of the overlap matrix is 2.9848551279E-04.
    Using symmetric orthogonalization.

  ==> Pre-Iterations <==

  SCF Guess: Superposition of Atomic Densities via on-the-fly atomic UHF (no occupation information).

   -------------------------
    Irrep   Nso     Nmo    
   -------------------------
     Ag        22      22 
     B1g        5       5 
     B2g       12      12 
     B3g       12      12 
     Au         5       5 
     B1u       22      22 
     B2u       12      12 
     B3u       12      12 
   -------------------------
    Total     102     102
   -------------------------

  ==> Iterations <==

                           Total Energy        Delta E     RMS |[F,P]|

   @DF-UKS iter SAD:  -795.82205581897915   -7.95822e+02   0.00000e+00 
   @DF-UKS iter   1:  -796.13277916950142   -3.10723e-01   1.25431e-02 DIIS
   @DF-UKS iter   2:  -796.15586067182585   -2.30815e-02   6.84063e-03 DIIS
   @DF-UKS iter   3:  -796.16745950429754   -1.15988e-02   6.43587e-04 DIIS
   @DF-UKS iter   4:  -796.16775006303294   -2.90559e-04   1.30998e-04 DIIS
   @DF-UKS iter   5:  -796.16777298979287   -2.29268e-05   1.93431e-05 DIIS
   @DF-UKS iter   6:  -796.16777359058449   -6.00792e-07   4.46910e-06 DIIS
   @DF-UKS iter   7:  -796.16777361347567   -2.28912e-08   6.14393e-07 DIIS
  Energy and wave function converged.


  ==> Post-Iterations <==

   Electrons on quadrature grid:
      Nalpha   =   17.0000017668 ; deviation = 1.767e-06
      Nbeta    =   15.0000013991 ; deviation = 1.399e-06
      Ntotal   =   32.0000031660 ; deviation = 3.166e-06 

   @Spin Contamination Metric:   8.057749799E-03
   @S^2 Expected:                2.000000000E+00
   @S^2 Observed:                2.008057750E+00
   @S   Expected:                1.000000000E+00
   @S   Observed:                1.000000000E+00

    Orbital Energies [Eh]
    ---------------------

    Alpha Occupied:                                                       

       1B1u  -87.847068     1Ag   -87.847020     2Ag    -7.758625  
       2B1u   -7.758461     3Ag    -5.946810     3B1u   -5.946180  
       1B2u   -5.943930     1B3u   -5.943930     1B3g   -5.943924  
       1B2g   -5.943924     4Ag    -0.867591     4B1u   -0.662982  
       5Ag    -0.440410     2B3u   -0.417066     2B2u   -0.417066  
       2B2g   -0.284811     2B3g   -0.284811  

    Alpha Virtual:                                                        

       5B1u    0.006011     6Ag     0.058213     6B1u    0.071273  
       3B2u    0.075659     3B3u    0.075659     7Ag     0.085777  
       3B3g    0.102359     3B2g    0.102359     8Ag     0.130141  
       1B1g    0.130142     4B2u    0.179729     4B3u    0.179729  
       7B1u    0.184401     8B1u    0.231396     1Au     0.231397  
       9Ag     0.231973     4B3g    0.282614     4B2g    0.282614  
       9B1u    0.294886     5B2u    0.373165     5B3u    0.373165  
      10Ag     0.431856     6B2u    0.442277     6B3u    0.442277  
      11Ag     0.464966     2B1g    0.464973    10B1u    0.535674  
       2Au     0.535681     5B3g    0.545395     5B2g    0.545395  
      11B1u    0.573237    12Ag     0.580303     6B3g    0.654206  
       6B2g    0.654206    13Ag     0.731658    12B1u    0.776334  
      13B1u    1.139755     3B1g    1.407166    14Ag     1.407194  
      15Ag     1.447668     7B2u    1.470848     7B3u    1.470848  
      16Ag     1.509429     4B1g    1.509550    14B1u    1.531278  
       3Au     1.531391     8B3u    1.542433     8B2u    1.542433  
       7B3g    1.555621     7B2g    1.555621    15B1u    1.604077  
       8B2g    1.627914     8B3g    1.627914     9B2u    1.632090  
       9B3u    1.632090    10B2u    1.775460    10B3u    1.775460  
      17Ag     1.819662     4Au     1.866890    16B1u    1.866939  
       9B3g    1.873281     9B2g    1.873281    17B1u    1.954196  
      18Ag     2.395458    10B3g    2.432786    10B2g    2.432786  
      18B1u    2.978590    19Ag     6.599890     5B1g    6.599924  
      19B1u    6.628611     5Au     6.628644    11B3u    6.640162  
      11B2u    6.640162    11B2g    6.658260    11B3g    6.658260  
      20Ag     6.660163    20B1u    6.859449    12B3u    8.454471  
      12B2u    8.454471    12B2g    8.578993    12B3g    8.578993  
      21Ag     8.747110    21B1u    8.862249    22Ag    17.995137  
      22B1u   18.664569  

    Beta Occupied:                                                        

       1B1u  -87.842032     1Ag   -87.841984     2Ag    -7.753033  
       2B1u   -7.752792     3Ag    -5.943871     3B1u   -5.943249  
       1B2u   -5.936864     1B3u   -5.936864     1B3g   -5.936834  
       1B2g   -5.936834     4Ag    -0.839410     4B1u   -0.612459  
       5Ag    -0.411673     2B3u   -0.363518     2B2u   -0.363518  

    Beta Virtual:                                                         

       2B2g   -0.121176     2B3g   -0.121176     5B1u    0.021929  
       6Ag     0.066243     6B1u    0.077558     3B2u    0.082022  
       3B3u    0.082022     7Ag     0.085155     3B2g    0.106911  
       3B3g    0.106911     8Ag     0.146171     1B1g    0.146174  
       4B2u    0.201924     4B3u    0.201924     7B1u    0.204976  
       9Ag     0.234203     8B1u    0.264440     1Au     0.264442  
       9B1u    0.302328     4B3g    0.302842     4B2g    0.302842  
       5B2u    0.380454     5B3u    0.380454    10Ag     0.437617  
       6B2u    0.473424     6B3u    0.473424    11Ag     0.498179  
       2B1g    0.498192     5B3g    0.577636     5B2g    0.577636  
      10B1u    0.581553    11B1u    0.584377     2Au     0.584394  
      12Ag     0.596388     6B2g    0.684904     6B3g    0.684904  
      13Ag     0.761410    12B1u    0.794805    13B1u    1.171104  
       3B1g    1.449688    14Ag     1.449736    15Ag     1.456915  
       7B3u    1.493235     7B2u    1.493235    16Ag     1.576995  
       4B1g    1.577055     7B2g    1.585064     7B3g    1.585064  
      14B1u    1.607410     3Au     1.607445    15B1u    1.612938  
       8B3u    1.624380     8B2u    1.624380     9B2u    1.646382  
       9B3u    1.646382     8B2g    1.714799     8B3g    1.714799  
      17Ag     1.822400    10B3u    1.871891    10B2u    1.871891  
       4Au     1.913713    16B1u    1.913759     9B2g    1.966680  
       9B3g    1.966680    17B1u    1.974381    18Ag     2.377232  
      10B2g    2.457520    10B3g    2.457520    18B1u    2.971218  
      19Ag     6.632482     5B1g    6.632517    11B3u    6.649828  
      11B2u    6.649828    19B1u    6.663179     5Au     6.663211  
      20Ag     6.665300    11B2g    6.668913    11B3g    6.668913  
      20B1u    6.863719    12B3u    8.496069    12B2u    8.496069  
      12B2g    8.624525    12B3g    8.624525    21Ag     8.740584  
      21B1u    8.863333    22Ag    17.998560    22B1u   18.669583  

    Final Occupation by Irrep:
             Ag   B1g   B2g   B3g    Au   B1u   B2u   B3u 
    DOCC [     5,    0,    1,    1,    0,    4,    2,    2 ]
    SOCC [     0,    0,    1,    1,    0,    0,    0,    0 ]

  @DF-UKS Final Energy:  -796.16777361347567

   => Energetics <=

    Nuclear Repulsion Energy =             70.4285759976709045
    One-Electron Energy =               -1240.0089819841832650
    Two-Electron Energy =                 402.5604511798757699
    DFT Exchange-Correlation Energy =     -29.1477772968389814
    Empirical Dispersion Energy =          -0.0000415100000000
    VV10 Nonlocal Energy =                  0.0000000000000000
    Total Energy =                       -796.1677736134755605

  UHF NO Occupations:
  HONO-2 :    2B2u 1.9982225
  HONO-1 :    2B3g 1.0000000
  HONO-0 :    2B2g 1.0000000
  LUNO+0 :    3B2u 0.0017775
  LUNO+1 :    3B3u 0.0017775
  LUNO+2 :    5B1u 0.0001859
  LUNO+3 :    6 Ag 0.0001677


Computation Completed


Properties will be evaluated at   0.000000,   0.000000,   0.000000 [a0]

Properties computed using the SCF density matrix

  Nuclear Dipole Moment: [e a0]
     X:     0.0000      Y:     0.0000      Z:     0.0000

  Electronic Dipole Moment: [e a0]
     X:     0.0000      Y:     0.0000      Z:     0.0000

  Dipole Moment: [e a0]
     X:     0.0000      Y:     0.0000      Z:     0.0000     Total:     0.0000

  Dipole Moment: [D]
     X:     0.0000      Y:     0.0000      Z:     0.0000     Total:     0.0000


*** tstop() called on compute379.bc4.acrc.priv at Sun Nov  7 05:05:29 2021
Module time:
	user time   =     171.12 seconds =       2.85 minutes
	system time =       8.85 seconds =       0.15 minutes
	total time  =          8 seconds =       0.13 minutes
Total time:
	user time   =     171.12 seconds =       2.85 minutes
	system time =       8.85 seconds =       0.15 minutes
	total time  =          8 seconds =       0.13 minutes

    Psi4 stopped on: Sunday, 07 November 2021 05:05AM
    Psi4 wall time for execution: 0:00:08.11

*** Psi4 exiting successfully. Buy a developer a beer!
