
    -----------------------------------------------------------------------
          Psi4: An Open-Source Ab Initio Electronic Structure Package
                               Psi4 1.4.1 release

                         Git: Rev {HEAD} cd00f19 


    D. G. A. Smith, L. A. Burns, A. C. Simmonett, R. M. Parrish,
    M. C. Schieber, R. Galvelis, P. Kraus, H. Kruse, R. Di Remigio,
    A. Alenaizan, A. M. James, S. Lehtola, J. P. Misiewicz, M. Scheurer,
    R. A. Shaw, J. B. Schriber, Y. Xie, Z. L. Glick, D. A. Sirianni,
    J. S. O'Brien, J. M. Waldrop, A. Kumar, E. G. Hohenstein,
    B. P. Pritchard, B. R. Brooks, H. F. Schaefer III, A. Yu. Sokolov,
    K. Patkowski, A. E. DePrince III, U. Bozkaya, R. A. King,
    F. A. Evangelista, J. M. Turney, T. D. Crawford, C. D. Sherrill,
    J. Chem. Phys. 152(18) 184108 (2020). https://doi.org/10.1063/5.0006002

                            Additional Code Authors
    E. T. Seidl, C. L. Janssen, E. F. Valeev, M. L. Leininger,
    J. F. Gonthier, R. M. Richard, H. R. McAlexander, M. Saitow, X. Wang,
    P. Verma, and M. H. Lechner

             Previous Authors, Complete List of Code Contributors,
                       and Citations for Specific Modules
    https://github.com/psi4/psi4/blob/master/codemeta.json
    https://github.com/psi4/psi4/graphs/contributors
    http://psicode.org/psi4manual/master/introduction.html#citing-psifour

    -----------------------------------------------------------------------


    Psi4 started on: Sunday, 07 November 2021 05:05AM

    Process ID: 22430
    Host:       compute297.bc4.acrc.priv
    PSIDATADIR: /mnt/storage/home/zw18965/.conda/envs/p4env/share/psi4
    Memory:     500.0 MiB
    Threads:    28
    
  ==> Input File <==

--------------------------------------------------------------------------
memory 120 GB

molecule {
0 1
S          0.00000        0.00000        0.00000
S          0.00000        0.00000        1.90634
S          2.06704        0.00000        2.44872
S          3.00303        0.00000        0.78798
 }

set dynamic_level 1
set basis Def2-TZVPPD

energy("MN15-D3BJ")
--------------------------------------------------------------------------

  Memory set to 111.759 GiB by Python driver.

Scratch directory: /tmp/

*** tstart() called on compute297.bc4.acrc.priv
*** at Sun Nov  7 05:05:24 2021

   => Loading Basis Set <=

    Name: DEF2-TZVPPD
    Role: ORBITAL
    Keyword: BASIS
    atoms 1-4 entry S          line   558 file /mnt/storage/home/zw18965/.conda/envs/p4env/share/psi4/basis/def2-tzvppd.gbs 

   => MN15-D3(BJ): Empirical Dispersion <=

    Grimme's -D3 (BJ-damping) Dispersion Correction
    Grimme S.; Ehrlich S.; Goerigk L. (2011), J. Comput. Chem., 32: 1456
    Parametrisation from:    L. Goerigk, A. Hansen, C. Bauer, S. Ehrlich, A. Najibi, S. Grimme, Phys. Chem. Chem. Phys. 19, 32184-32215, 2017

        s6 =       1.000000
        s8 =       2.097100
        a1 =       0.786200
        a2 =       7.592300


         ---------------------------------------------------------
                                   SCF
               by Justin Turney, Rob Parrish, Andy Simmonett
                          and Daniel G. A. Smith
                              RKS Reference
                       28 Threads, 114440 MiB Core
         ---------------------------------------------------------

  ==> Geometry <==

    Molecular point group: cs
    Full point group: Cs

    Geometry (in Angstrom), charge = 0, multiplicity = 1:

       Center              X                  Y                   Z               Mass       
    ------------   -----------------  -----------------  -----------------  -----------------
         S            1.267517500000    -1.285760000000     0.000000000000    31.972071174400
         S            1.267517500000     0.620580000000     0.000000000000    31.972071174400
         S           -0.799522500000     1.162960000000     0.000000000000    31.972071174400
         S           -1.735512500000    -0.497780000000     0.000000000000    31.972071174400

  Running in cs symmetry.

  Rotational constants: A =      0.15508  B =      0.07423  C =      0.05020 [cm^-1]
  Rotational constants: A =   4649.03843  B =   2225.39286  C =   1504.98805 [MHz]
  Nuclear repulsion =  333.699844287518260

  Charge       = 0
  Multiplicity = 1
  Electrons    = 64
  Nalpha       = 32
  Nbeta        = 32

  ==> Algorithm <==

  SCF Algorithm Type is DF.
  DIIS enabled.
  MOM disabled.
  Fractional occupation disabled.
  Guess Type is SAD.
  Energy threshold   = 1.00e-06
  Density threshold  = 1.00e-06
  Integral threshold = 1.00e-12

  ==> Primary Basis <==

  Basis Set: DEF2-TZVPPD
    Blend: DEF2-TZVPPD
    Number of shells: 68
    Number of basis functions: 204
    Number of Cartesian functions: 232
    Spherical Harmonics?: true
    Max angular momentum: 3

  ==> DFT Potential <==

   => Composite Functional: MN15-D3BJ <= 

   MN15 Hybrid Meta-GGA Exchange-Correlation Functional

    H. S. Yu, X. He, S. L. Li, and D. G. Truhlar, Chem. Sci. 7, 5032-5051, 2016


    Deriv               =              1
    GGA                 =           TRUE
    Meta                =           TRUE

    Exchange Hybrid     =           TRUE
    MP2 Hybrid          =          FALSE

   => Exchange Functionals <=

    1.0000   XC_HYB_MGGA_X_MN15

   => Exact (HF) Exchange <=

    0.4400               HF 

   => Correlation Functionals <=

    1.0000   XC_MGGA_C_MN15

   => LibXC Density Thresholds  <==

    XC_MGGA_C_MN15:  1.00E-15 
    XC_HYB_MGGA_X_MN15:  1.00E-15 

   => Molecular Quadrature <=

    Radial Scheme          =       TREUTLER
    Pruning Scheme         =           NONE
    Nuclear Scheme         =       TREUTLER

    BS radius alpha        =              1
    Pruning alpha          =              1
    Radial Points          =             75
    Spherical Points       =            302
    Total Points           =          87839
    Total Blocks           =            760
    Max Points             =            256
    Max Functions          =            191
    Weights Tolerance      =       1.00E-15

   => Loading Basis Set <=

    Name: (DEF2-TZVPPD AUX)
    Role: JKFIT
    Keyword: DF_BASIS_SCF
    atoms 1-4 entry S          line   903 file /mnt/storage/home/zw18965/.conda/envs/p4env/share/psi4/basis/def2-universal-jkfit.gbs 

  ==> Integral Setup <==

  DFHelper Memory: AOs need 0.172 GiB; user supplied 82.884 GiB. Using in-core AOs.

  ==> MemDFJK: Density-Fitted J/K Matrices <==

    J tasked:                   Yes
    K tasked:                   Yes
    wK tasked:                   No
    OpenMP threads:              28
    Memory [MiB]:             84873
    Algorithm:                 Core
    Schwarz Cutoff:           1E-12
    Mask sparsity (%):       3.8591
    Fitting Condition:        1E-10

   => Auxiliary Basis Set <=

  Basis Set: (DEF2-TZVPPD AUX)
    Blend: DEF2-UNIVERSAL-JKFIT
    Number of shells: 152
    Number of basis functions: 512
    Number of Cartesian functions: 620
    Spherical Harmonics?: true
    Max angular momentum: 4

  Cached 100.0% of DFT collocation blocks in 0.935 [GiB].

  Minimum eigenvalue in the overlap matrix is 4.0732655797E-04.
  Reciprocal condition number of the overlap matrix is 5.5295785063E-05.
    Using symmetric orthogonalization.

  ==> Pre-Iterations <==

  SCF Guess: Superposition of Atomic Densities via on-the-fly atomic UHF (no occupation information).

   -------------------------
    Irrep   Nso     Nmo    
   -------------------------
     A'       136     136 
     A"        68      68 
   -------------------------
    Total     204     204
   -------------------------

  ==> Iterations <==

                           Total Energy        Delta E     RMS |[F,P]|

   @DF-RKS iter SAD: -1592.17683663703701   -1.59218e+03   0.00000e+00 
   @DF-RKS iter   1: -1592.26560911772299   -8.87725e-02   4.87084e-03 DIIS
   @DF-RKS iter   2: -1592.13212830001066    1.33481e-01   4.70714e-03 DIIS
   @DF-RKS iter   3: -1592.26172645990368   -1.29598e-01   2.85423e-03 DIIS
   @DF-RKS iter   4: -1592.36793415169632   -1.06208e-01   1.92343e-04 DIIS
   @DF-RKS iter   5: -1592.36826608628508   -3.31935e-04   1.13020e-04 DIIS
   @DF-RKS iter   6: -1592.36840450461864   -1.38418e-04   1.36007e-05 DIIS
   @DF-RKS iter   7: -1592.36841053302578   -6.02841e-06   7.80766e-06 DIIS
   @DF-RKS iter   8: -1592.36841234262829   -1.80960e-06   1.78749e-06 DIIS
   @DF-RKS iter   9: -1592.36841251981764   -1.77189e-07   1.11660e-06 DIIS
   @DF-RKS iter  10: -1592.36841252195313   -2.13549e-09   1.14489e-06 DIIS
   @DF-RKS iter  11: -1592.36841254333444   -2.13813e-08   1.95539e-07 DIIS
  Energy and wave function converged.


  ==> Post-Iterations <==

   Electrons on quadrature grid:
      Ntotal   =   63.9999860644 ; deviation = -1.394e-05 

    Orbital Energies [Eh]
    ---------------------

    Doubly Occupied:                                                      

       1Ap   -87.888549     2Ap   -87.888527     3Ap   -87.820982  
       4Ap   -87.820950     5Ap    -7.797101     6Ap    -7.797028  
       7Ap    -7.733717     8Ap    -7.733678     9Ap    -5.987239  
      10Ap    -5.987138     1App   -5.981932     2App   -5.981917  
      11Ap    -5.981622    12Ap    -5.981613    13Ap    -5.925556  
      14Ap    -5.925533     3App   -5.919928     4App   -5.919917  
      15Ap    -5.913631    16Ap    -5.913610    17Ap    -0.917958  
      18Ap    -0.844842    19Ap    -0.707528    20Ap    -0.609489  
      21Ap    -0.491624    22Ap    -0.459524     5App   -0.446122  
      23Ap    -0.411189     6App   -0.374059    24Ap    -0.307140  
      25Ap    -0.306646     7App   -0.270625  

    Virtual:                                                              

       8App   -0.144276    26Ap    -0.042542    27Ap    -0.022344  
      28Ap     0.042491    29Ap     0.046860    30Ap     0.057681  
      31Ap     0.065585     9App    0.068838    32Ap     0.073315  
      33Ap     0.080228    34Ap     0.092295    10App    0.093768  
      11App    0.094896    35Ap     0.110898    36Ap     0.113127  
      12App    0.116432    13App    0.124679    37Ap     0.131813  
      14App    0.151908    38Ap     0.155487    39Ap     0.170644  
      40Ap     0.182775    41Ap     0.192250    42Ap     0.207472  
      43Ap     0.214330    15App    0.222695    44Ap     0.226370  
      16App    0.230617    17App    0.239019    45Ap     0.242310  
      46Ap     0.251659    18App    0.273181    19App    0.302639  
      47Ap     0.302723    48Ap     0.305689    49Ap     0.310273  
      50Ap     0.316983    20App    0.361881    51Ap     0.361967  
      21App    0.363480    52Ap     0.418878    53Ap     0.429484  
      22App    0.429643    54Ap     0.443359    55Ap     0.444740  
      23App    0.453114    24App    0.453281    56Ap     0.481011  
      57Ap     0.481898    25App    0.506243    58Ap     0.509513  
      26App    0.530424    27App    0.536576    28App    0.548286  
      59Ap     0.550046    60Ap     0.562083    61Ap     0.574607  
      62Ap     0.582543    63Ap     0.587351    29App    0.616958  
      64Ap     0.632445    65Ap     0.639009    30App    0.647955  
      31App    0.648798    66Ap     0.667408    67Ap     0.668681  
      32App    0.693817    68Ap     0.723121    69Ap     0.749341  
      70Ap     0.758508    71Ap     0.794271    72Ap     0.798191  
      73Ap     0.881017    74Ap     1.078592    75Ap     1.118946  
      76Ap     1.254365    33App    1.330933    77Ap     1.336436  
      78Ap     1.392651    34App    1.419202    79Ap     1.426704  
      35App    1.462318    36App    1.466867    80Ap     1.477111  
      81Ap     1.498755    82Ap     1.509901    37App    1.510460  
      38App    1.528489    83Ap     1.535676    84Ap     1.554346  
      39App    1.562890    40App    1.565346    85Ap     1.565844  
      41App    1.566856    86Ap     1.597309    87Ap     1.602799  
      42App    1.608372    88Ap     1.610032    89Ap     1.625359  
      43App    1.626326    44App    1.633372    45App    1.642497  
      90Ap     1.654561    46App    1.664166    91Ap     1.673153  
      47App    1.683063    92Ap     1.735133    93Ap     1.748186  
      94Ap     1.768771    48App    1.811332    49App    1.829708  
      95Ap     1.869081    50App    1.869442    96Ap     1.893674  
      97Ap     1.899500    98Ap     1.906137    51App    1.908226  
      99Ap     1.945526   100Ap     1.950950    52App    1.956497  
     101Ap     1.975851    53App    2.001721   102Ap     2.006846  
     103Ap     2.018859   104Ap     2.066799    54App    2.240489  
     105Ap     2.325109   106Ap     2.402775   107Ap     2.406519  
      55App    2.435575   108Ap     2.478910    56App    2.481355  
     109Ap     2.632573   110Ap     2.958678   111Ap     3.086540  
     112Ap     3.105470   113Ap     6.594011    57App    6.600432  
      58App    6.616763   114Ap     6.636409    59App    6.636453  
      60App    6.642917   115Ap     6.649012    61App    6.649936  
     116Ap     6.653170    62App    6.670095    63App    6.684282  
     117Ap     6.685418    64App    6.695785   118Ap     6.698686  
     119Ap     6.709167   120Ap     6.746997   121Ap     6.748355  
     122Ap     6.780995   123Ap     6.903051   124Ap     6.924958  
      65App    8.459138    66App    8.529022   125Ap     8.586082  
      67App    8.588838    68App    8.648728   126Ap     8.654628  
     127Ap     8.696956   128Ap     8.781987   129Ap     8.813266  
     130Ap     8.862373   131Ap     8.991881   132Ap     9.030651  
     133Ap    18.095300   134Ap    18.662513   135Ap    18.843271  
     136Ap    19.031076  

    Final Occupation by Irrep:
             Ap   App 
    DOCC [    25,    7 ]

  @DF-RKS Final Energy: -1592.36841254333444

   => Energetics <=

    Nuclear Repulsion Energy =            333.6998442875182604
    One-Electron Energy =               -2864.9816810519691899
    Two-Electron Energy =                 997.2851960252426124
    DFT Exchange-Correlation Energy =     -58.3715287441262944
    Empirical Dispersion Energy =          -0.0002430600000000
    VV10 Nonlocal Energy =                  0.0000000000000000
    Total Energy =                      -1592.3684125433344434

Computation Completed


Properties will be evaluated at   0.000000,   0.000000,   0.000000 [a0]

Properties computed using the SCF density matrix

  Nuclear Dipole Moment: [e a0]
     X:    -0.0000      Y:    -0.0000      Z:     0.0000

  Electronic Dipole Moment: [e a0]
     X:     0.1367      Y:     0.5209      Z:     0.0000

  Dipole Moment: [e a0]
     X:     0.1367      Y:     0.5209      Z:     0.0000     Total:     0.5385

  Dipole Moment: [D]
     X:     0.3474      Y:     1.3239      Z:     0.0000     Total:     1.3688


*** tstop() called on compute297.bc4.acrc.priv at Sun Nov  7 05:05:28 2021
Module time:
	user time   =      58.49 seconds =       0.97 minutes
	system time =       5.39 seconds =       0.09 minutes
	total time  =          4 seconds =       0.07 minutes
Total time:
	user time   =      58.49 seconds =       0.97 minutes
	system time =       5.39 seconds =       0.09 minutes
	total time  =          4 seconds =       0.07 minutes

    Psi4 stopped on: Sunday, 07 November 2021 05:05AM
    Psi4 wall time for execution: 0:00:04.43

*** Psi4 exiting successfully. Buy a developer a beer!
