
    -----------------------------------------------------------------------
          Psi4: An Open-Source Ab Initio Electronic Structure Package
                               Psi4 1.4.1 release

                         Git: Rev {HEAD} cd00f19 


    D. G. A. Smith, L. A. Burns, A. C. Simmonett, R. M. Parrish,
    M. C. Schieber, R. Galvelis, P. Kraus, H. Kruse, R. Di Remigio,
    A. Alenaizan, A. M. James, S. Lehtola, J. P. Misiewicz, M. Scheurer,
    R. A. Shaw, J. B. Schriber, Y. Xie, Z. L. Glick, D. A. Sirianni,
    J. S. O'Brien, J. M. Waldrop, A. Kumar, E. G. Hohenstein,
    B. P. Pritchard, B. R. Brooks, H. F. Schaefer III, A. Yu. Sokolov,
    K. Patkowski, A. E. DePrince III, U. Bozkaya, R. A. King,
    F. A. Evangelista, J. M. Turney, T. D. Crawford, C. D. Sherrill,
    J. Chem. Phys. 152(18) 184108 (2020). https://doi.org/10.1063/5.0006002

                            Additional Code Authors
    E. T. Seidl, C. L. Janssen, E. F. Valeev, M. L. Leininger,
    J. F. Gonthier, R. M. Richard, H. R. McAlexander, M. Saitow, X. Wang,
    P. Verma, and M. H. Lechner

             Previous Authors, Complete List of Code Contributors,
                       and Citations for Specific Modules
    https://github.com/psi4/psi4/blob/master/codemeta.json
    https://github.com/psi4/psi4/graphs/contributors
    http://psicode.org/psi4manual/master/introduction.html#citing-psifour

    -----------------------------------------------------------------------


    Psi4 started on: Sunday, 07 November 2021 05:05AM

    Process ID: 19912
    Host:       compute304.bc4.acrc.priv
    PSIDATADIR: /mnt/storage/home/zw18965/.conda/envs/p4env/share/psi4
    Memory:     500.0 MiB
    Threads:    28
    
  ==> Input File <==

--------------------------------------------------------------------------
memory 120 GB

molecule {
0 6
V          0.00000        0.00000        0.00000
 }

set reference uks
set dynamic_level 1
set basis Def2-TZVPPD

energy("MN15-D3BJ")
--------------------------------------------------------------------------

  Memory set to 111.759 GiB by Python driver.

Scratch directory: /tmp/

*** tstart() called on compute304.bc4.acrc.priv
*** at Sun Nov  7 05:05:24 2021

   => Loading Basis Set <=

    Name: DEF2-TZVPPD
    Role: ORBITAL
    Keyword: BASIS
    atoms 1 entry V          line   924 file /mnt/storage/home/zw18965/.conda/envs/p4env/share/psi4/basis/def2-tzvppd.gbs 

   => MN15-D3(BJ): Empirical Dispersion <=

    Grimme's -D3 (BJ-damping) Dispersion Correction
    Grimme S.; Ehrlich S.; Goerigk L. (2011), J. Comput. Chem., 32: 1456
    Parametrisation from:    L. Goerigk, A. Hansen, C. Bauer, S. Ehrlich, A. Najibi, S. Grimme, Phys. Chem. Chem. Phys. 19, 32184-32215, 2017

        s6 =       1.000000
        s8 =       2.097100
        a1 =       0.786200
        a2 =       7.592300


         ---------------------------------------------------------
                                   SCF
               by Justin Turney, Rob Parrish, Andy Simmonett
                          and Daniel G. A. Smith
                              UKS Reference
                       28 Threads, 114440 MiB Core
         ---------------------------------------------------------

  ==> Geometry <==

    Molecular point group: d2h
    Geometry (in Angstrom), charge = 0, multiplicity = 6:

       Center              X                  Y                   Z               Mass       
    ------------   -----------------  -----------------  -----------------  -----------------
         V            0.000000000000     0.000000000000     0.000000000000    50.943957040000

  Running in d2h symmetry.

  Rotational constants: A = ************  B = ************  C = ************ [cm^-1]
  Rotational constants: A = ************  B = ************  C = ************ [MHz]
  Nuclear repulsion =    0.000000000000000

  Charge       = 0
  Multiplicity = 6
  Electrons    = 23
  Nalpha       = 14
  Nbeta        = 9

  ==> Algorithm <==

  SCF Algorithm Type is DF.
  DIIS enabled.
  MOM disabled.
  Fractional occupation disabled.
  Guess Type is CORE.
  Energy threshold   = 1.00e-06
  Density threshold  = 1.00e-06
  Integral threshold = 1.00e-12

  ==> Primary Basis <==

  Basis Set: DEF2-TZVPPD
    Blend: DEF2-TZVPPD
    Number of shells: 19
    Number of basis functions: 67
    Number of Cartesian functions: 83
    Spherical Harmonics?: true
    Max angular momentum: 4

  ==> DFT Potential <==

   => Composite Functional: MN15-D3BJ <= 

   MN15 Hybrid Meta-GGA Exchange-Correlation Functional

    H. S. Yu, X. He, S. L. Li, and D. G. Truhlar, Chem. Sci. 7, 5032-5051, 2016


    Deriv               =              1
    GGA                 =           TRUE
    Meta                =           TRUE

    Exchange Hybrid     =           TRUE
    MP2 Hybrid          =          FALSE

   => Exchange Functionals <=

    1.0000   XC_HYB_MGGA_X_MN15

   => Exact (HF) Exchange <=

    0.4400               HF 

   => Correlation Functionals <=

    1.0000   XC_MGGA_C_MN15

   => LibXC Density Thresholds  <==

    XC_MGGA_C_MN15:  1.00E-15 
    XC_HYB_MGGA_X_MN15:  1.00E-15 

   => Molecular Quadrature <=

    Radial Scheme          =       TREUTLER
    Pruning Scheme         =           NONE
    Nuclear Scheme         =       TREUTLER

    BS radius alpha        =              1
    Pruning alpha          =              1
    Radial Points          =             75
    Spherical Points       =            302
    Total Points           =          22040
    Total Blocks           =            248
    Max Points             =            245
    Max Functions          =             67
    Weights Tolerance      =       1.00E-15

   => Loading Basis Set <=

    Name: (DEF2-TZVPPD AUX)
    Role: JKFIT
    Keyword: DF_BASIS_SCF
    atoms 1 entry V          line  1600 file /mnt/storage/home/zw18965/.conda/envs/p4env/share/psi4/basis/def2-universal-jkfit.gbs 

  ==> Integral Setup <==

  DFHelper Memory: AOs need 0.012 GiB; user supplied 83.727 GiB. Using in-core AOs.

  ==> MemDFJK: Density-Fitted J/K Matrices <==

    J tasked:                   Yes
    K tasked:                   Yes
    wK tasked:                   No
    OpenMP threads:              28
    Memory [MiB]:             85735
    Algorithm:                 Core
    Schwarz Cutoff:           1E-12
    Mask sparsity (%):       0.0000
    Fitting Condition:        1E-10

   => Auxiliary Basis Set <=

  Basis Set: (DEF2-TZVPPD AUX)
    Blend: DEF2-UNIVERSAL-JKFIT
    Number of shells: 58
    Number of basis functions: 264
    Number of Cartesian functions: 377
    Spherical Harmonics?: true
    Max angular momentum: 6

  Cached 100.0% of DFT collocation blocks in 0.092 [GiB].

  Minimum eigenvalue in the overlap matrix is 3.6743538076E-02.
  Reciprocal condition number of the overlap matrix is 1.2975168697E-02.
    Using symmetric orthogonalization.

  ==> Pre-Iterations <==

  SCF Guess: Core (One-Electron) Hamiltonian.

   -------------------------------------------------------
    Irrep   Nso     Nmo     Nalpha   Nbeta   Ndocc  Nsocc
   -------------------------------------------------------
     Ag        17      17       5       3       3       2
     B1g        6       6       1       0       0       1
     B2g        6       6       1       0       0       1
     B3g        6       6       1       0       0       1
     Au         2       2       0       0       0       0
     B1u       10      10       2       2       2       0
     B2u       10      10       2       2       2       0
     B3u       10      10       2       2       2       0
   -------------------------------------------------------
    Total      67      67      14       9       9       5
   -------------------------------------------------------

  ==> Iterations <==

                           Total Energy        Delta E     RMS |[F,P]|

    Occupation by irrep:
             Ag   B1g   B2g   B3g    Au   B1u   B2u   B3u 
    DOCC [     3,    0,    0,    0,    0,    2,    2,    2 ]
    SOCC [     2,    0,    0,    0,    0,    1,    1,    1 ]

   @DF-UKS iter   1:  -925.61742535201870   -9.25617e+02   2.05776e-01 DIIS
    Occupation by irrep:
             Ag   B1g   B2g   B3g    Au   B1u   B2u   B3u 
    DOCC [     3,    0,    0,    0,    0,    2,    2,    2 ]
    SOCC [     2,    1,    1,    1,    0,    0,    0,    0 ]

   @DF-UKS iter   2:  -905.62212540157884    1.99953e+01   2.58771e-01 DIIS
    Occupation by irrep:
             Ag   B1g   B2g   B3g    Au   B1u   B2u   B3u 
    DOCC [     3,    0,    0,    0,    0,    2,    2,    2 ]
    SOCC [     2,    0,    0,    0,    0,    1,    1,    1 ]

   @DF-UKS iter   3:  -943.31892192137127   -3.76968e+01   3.00178e-02 DIIS
    Occupation by irrep:
             Ag   B1g   B2g   B3g    Au   B1u   B2u   B3u 
    DOCC [     3,    0,    0,    0,    0,    2,    2,    2 ]
    SOCC [     2,    1,    1,    1,    0,    0,    0,    0 ]

   @DF-UKS iter   4:  -940.80184864165108    2.51707e+00   7.33874e-02 DIIS
   @DF-UKS iter   5:  -943.80178091872540   -2.99993e+00   5.55315e-03 DIIS
   @DF-UKS iter   6:  -943.82024096835153   -1.84600e-02   6.62164e-03 DIIS
   @DF-UKS iter   7:  -943.82432040298045   -4.07943e-03   8.68050e-03 DIIS
   @DF-UKS iter   8:  -943.81934624628502    4.97416e-03   7.06907e-03 DIIS
   @DF-UKS iter   9:  -943.82115498233111   -1.80874e-03   6.26117e-03 DIIS
   @DF-UKS iter  10:  -943.83219141427026   -1.10364e-02   7.52200e-03 DIIS
   @DF-UKS iter  11:  -943.82375766325708    8.43375e-03   5.62425e-03 DIIS
   @DF-UKS iter  12:  -943.82494662555439   -1.18896e-03   5.01950e-03 DIIS
   @DF-UKS iter  13:  -943.82879780310873   -3.85118e-03   2.14870e-03 DIIS
   @DF-UKS iter  14:  -943.83365914608748   -4.86134e-03   2.16087e-03 DIIS
   @DF-UKS iter  15:  -943.82770234648399    5.95680e-03   1.22754e-03 DIIS
   @DF-UKS iter  16:  -943.82805753677769   -3.55190e-04   3.07377e-04 DIIS
   @DF-UKS iter  17:  -943.82808884418068   -3.13074e-05   3.15121e-04 DIIS
   @DF-UKS iter  18:  -943.82789971526097    1.89129e-04   3.03869e-04 DIIS
   @DF-UKS iter  19:  -943.82748811898364    4.11596e-04   7.79794e-05 DIIS
   @DF-UKS iter  20:  -943.82745364591335    3.44731e-05   9.30091e-05 DIIS
   @DF-UKS iter  21:  -943.82745284017324    8.05740e-07   2.95011e-05 DIIS
   @DF-UKS iter  22:  -943.82745301529167   -1.75118e-07   9.86061e-06 DIIS
   @DF-UKS iter  23:  -943.82745300562578    9.66588e-09   8.40853e-07 DIIS
  Energy and wave function converged.


  ==> Post-Iterations <==

   Electrons on quadrature grid:
      Nalpha   =   13.9999998311 ; deviation = -1.689e-07
      Nbeta    =    8.9999998311 ; deviation = -1.689e-07
      Ntotal   =   22.9999996622 ; deviation = -3.378e-07 

   @Spin Contamination Metric:   8.713259331E-04
   @S^2 Expected:                8.750000000E+00
   @S^2 Observed:                8.750871326E+00
   @S   Expected:                2.500000000E+00
   @S   Observed:                2.500000000E+00

    Orbital Energies [Eh]
    ---------------------

    Alpha Occupied:                                                       

       1Ag  -194.913727     2Ag   -21.381957     1B3u  -18.340257  
       1B2u  -18.340256     1B1u  -18.340256     3Ag    -2.380596  
       2B3u   -1.521510     2B2u   -1.521510     2B1u   -1.521509  
       4Ag    -0.099636     1B1g   -0.099630     5Ag    -0.099628  
       1B2g   -0.099628     1B3g   -0.099628  

    Alpha Virtual:                                                        

       6Ag    -0.057417     3B1u    0.022837     3B3u    0.022837  
       3B2u    0.022838     4B1u    0.133704     4B2u    0.133704  
       4B3u    0.133704     7Ag     0.168096     8Ag     0.197463  
       9Ag     0.197464     2B3g    0.197464     2B2g    0.197464  
       2B1g    0.197465     5B1u    0.485910     5B2u    0.485911  
       5B3u    0.485911    10Ag     0.750882    11Ag     0.750883  
       3B2g    0.750883     3B1g    0.750883     3B3g    0.750883  
       6B1u    1.213677     6B2u    1.213677     6B3u    1.213677  
       7B2u    1.213678     7B3u    1.213678     7B1u    1.213678  
       1Au     1.213678     8B3u    1.829229     8B2u    1.829229  
       8B1u    1.829230    12Ag     2.043031    13Ag     2.521876  
      14Ag     2.521876     4B1g    2.521876     4B2g    2.521876  
       4B3g    2.521876    15Ag     4.161995     5B1g    4.161995  
      16Ag     4.161995     5B2g    4.161995     5B3g    4.161995  
       6B1g    4.161996     6B2g    4.161996     6B3g    4.161996  
      17Ag     4.161996     9B1u    4.709003     2Au     4.709003  
       9B3u    4.709003     9B2u    4.709003    10B2u    4.709004  
      10B3u    4.709004    10B1u    4.709004  

    Beta Occupied:                                                        

       1Ag  -194.916269     2Ag   -21.365894     1B3u  -18.318234  
       1B2u  -18.318233     1B1u  -18.318233     3Ag    -2.295691  
       2B3u   -1.398932     2B2u   -1.398932     2B1u   -1.398931  

    Beta Virtual:                                                         

       3B1u    0.068681     3B2u    0.068681     3B3u    0.068682  
       4Ag     0.069702     1B1g    0.195140     5Ag     0.195140  
       1B2g    0.195141     1B3g    0.195141     6Ag     0.195141  
       7Ag     0.218294     4B2u    0.221697     4B1u    0.221698  
       4B3u    0.221698     8Ag     0.309521     2B1g    0.309522  
       2B3g    0.309525     2B2g    0.309525     9Ag     0.309526  
       5B1u    0.546808     5B2u    0.546808     5B3u    0.546809  
       3B2g    0.837138     3B3g    0.837139    10Ag     0.837139  
       3B1g    0.837139    11Ag     0.837139     6B1u    1.313448  
       1Au     1.313448     6B3u    1.313448     6B2u    1.313448  
       7B2u    1.313449     7B3u    1.313449     7B1u    1.313449  
       8B3u    1.897863     8B2u    1.897863     8B1u    1.897864  
      12Ag     2.126987    13Ag     2.613104     4B2g    2.613105  
       4B3g    2.613105     4B1g    2.613105    14Ag     2.613106  
       5B2g    4.308890     5B3g    4.308891    15Ag     4.308891  
       5B1g    4.308891    16Ag     4.308891     6B1g    4.308892  
       6B2g    4.308892     6B3g    4.308892    17Ag     4.308893  
       9B1u    4.800190     9B3u    4.800190     9B2u    4.800190  
       2Au     4.800190    10B3u    4.800191    10B2u    4.800191  
      10B1u    4.800192  

    Final Occupation by Irrep:
             Ag   B1g   B2g   B3g    Au   B1u   B2u   B3u 
    DOCC [     3,    0,    0,    0,    0,    2,    2,    2 ]
    SOCC [     2,    1,    1,    1,    0,    0,    0,    0 ]

  @DF-UKS Final Energy:  -943.82745300562578

   => Energetics <=

    Nuclear Repulsion Energy =              0.0000000000000000
    One-Electron Energy =               -1300.3072228482033097
    Two-Electron Energy =                 382.4540198349158686
    DFT Exchange-Correlation Energy =     -25.9742499923384109
    Empirical Dispersion Energy =           0.0000000000000000
    VV10 Nonlocal Energy =                  0.0000000000000000
    Total Energy =                       -943.8274530056257845

  UHF NO Occupations:
  HONO-2 :    5 Ag 1.0000000
  HONO-1 :    1B1g 1.0000000
  HONO-0 :    1B2g 1.0000000
  LUNO+0 :    3B1u 0.0001233
  LUNO+1 :    3B2u 0.0001233
  LUNO+2 :    3B3u 0.0001233
  LUNO+3 :    6 Ag 0.0000656


Computation Completed


Properties will be evaluated at   0.000000,   0.000000,   0.000000 [a0]

Properties computed using the SCF density matrix

  Nuclear Dipole Moment: [e a0]
     X:     0.0000      Y:     0.0000      Z:     0.0000

  Electronic Dipole Moment: [e a0]
     X:     0.0000      Y:     0.0000      Z:     0.0000

  Dipole Moment: [e a0]
     X:     0.0000      Y:     0.0000      Z:     0.0000     Total:     0.0000

  Dipole Moment: [D]
     X:     0.0000      Y:     0.0000      Z:     0.0000     Total:     0.0000


*** tstop() called on compute304.bc4.acrc.priv at Sun Nov  7 05:05:31 2021
Module time:
	user time   =     155.25 seconds =       2.59 minutes
	system time =       5.20 seconds =       0.09 minutes
	total time  =          7 seconds =       0.12 minutes
Total time:
	user time   =     155.25 seconds =       2.59 minutes
	system time =       5.20 seconds =       0.09 minutes
	total time  =          7 seconds =       0.12 minutes

    Psi4 stopped on: Sunday, 07 November 2021 05:05AM
    Psi4 wall time for execution: 0:00:07.59

*** Psi4 exiting successfully. Buy a developer a beer!
