
    -----------------------------------------------------------------------
          Psi4: An Open-Source Ab Initio Electronic Structure Package
                               Psi4 1.4.1 release

                         Git: Rev {HEAD} cd00f19 


    D. G. A. Smith, L. A. Burns, A. C. Simmonett, R. M. Parrish,
    M. C. Schieber, R. Galvelis, P. Kraus, H. Kruse, R. Di Remigio,
    A. Alenaizan, A. M. James, S. Lehtola, J. P. Misiewicz, M. Scheurer,
    R. A. Shaw, J. B. Schriber, Y. Xie, Z. L. Glick, D. A. Sirianni,
    J. S. O'Brien, J. M. Waldrop, A. Kumar, E. G. Hohenstein,
    B. P. Pritchard, B. R. Brooks, H. F. Schaefer III, A. Yu. Sokolov,
    K. Patkowski, A. E. DePrince III, U. Bozkaya, R. A. King,
    F. A. Evangelista, J. M. Turney, T. D. Crawford, C. D. Sherrill,
    J. Chem. Phys. 152(18) 184108 (2020). https://doi.org/10.1063/5.0006002

                            Additional Code Authors
    E. T. Seidl, C. L. Janssen, E. F. Valeev, M. L. Leininger,
    J. F. Gonthier, R. M. Richard, H. R. McAlexander, M. Saitow, X. Wang,
    P. Verma, and M. H. Lechner

             Previous Authors, Complete List of Code Contributors,
                       and Citations for Specific Modules
    https://github.com/psi4/psi4/blob/master/codemeta.json
    https://github.com/psi4/psi4/graphs/contributors
    http://psicode.org/psi4manual/master/introduction.html#citing-psifour

    -----------------------------------------------------------------------


    Psi4 started on: Sunday, 07 November 2021 05:05AM

    Process ID: 14622
    Host:       compute416.bc4.acrc.priv
    PSIDATADIR: /mnt/storage/home/zw18965/.conda/envs/p4env/share/psi4
    Memory:     500.0 MiB
    Threads:    28
    
  ==> Input File <==

--------------------------------------------------------------------------
memory 120 GB

molecule {
0 3
V          0.00000        0.00000        0.00000
V          0.00000        0.00000        1.77000
 }

set reference uks
set dynamic_level 1
set basis Def2-TZVPPD

energy("MN15-D3BJ")
--------------------------------------------------------------------------

  Memory set to 111.759 GiB by Python driver.

Scratch directory: /tmp/

*** tstart() called on compute416.bc4.acrc.priv
*** at Sun Nov  7 05:05:21 2021

   => Loading Basis Set <=

    Name: DEF2-TZVPPD
    Role: ORBITAL
    Keyword: BASIS
    atoms 1-2 entry V          line   924 file /mnt/storage/home/zw18965/.conda/envs/p4env/share/psi4/basis/def2-tzvppd.gbs 

   => MN15-D3(BJ): Empirical Dispersion <=

    Grimme's -D3 (BJ-damping) Dispersion Correction
    Grimme S.; Ehrlich S.; Goerigk L. (2011), J. Comput. Chem., 32: 1456
    Parametrisation from:    L. Goerigk, A. Hansen, C. Bauer, S. Ehrlich, A. Najibi, S. Grimme, Phys. Chem. Chem. Phys. 19, 32184-32215, 2017

        s6 =       1.000000
        s8 =       2.097100
        a1 =       0.786200
        a2 =       7.592300


         ---------------------------------------------------------
                                   SCF
               by Justin Turney, Rob Parrish, Andy Simmonett
                          and Daniel G. A. Smith
                              UKS Reference
                       28 Threads, 114440 MiB Core
         ---------------------------------------------------------

  ==> Geometry <==

    Molecular point group: d2h
    Full point group: D_inf_h

    Geometry (in Angstrom), charge = 0, multiplicity = 3:

       Center              X                  Y                   Z               Mass       
    ------------   -----------------  -----------------  -----------------  -----------------
         V            0.000000000000     0.000000000000    -0.885000000000    50.943957040000
         V            0.000000000000     0.000000000000     0.885000000000    50.943957040000

  Running in d2h symmetry.

  Rotational constants: A = ************  B =      0.21125  C =      0.21125 [cm^-1]
  Rotational constants: A = ************  B =   6332.97811  C =   6332.97811 [MHz]
  Nuclear repulsion =  158.155222849960467

  Charge       = 0
  Multiplicity = 3
  Electrons    = 46
  Nalpha       = 24
  Nbeta        = 22

  ==> Algorithm <==

  SCF Algorithm Type is DF.
  DIIS enabled.
  MOM disabled.
  Fractional occupation disabled.
  Guess Type is SAD.
  Energy threshold   = 1.00e-06
  Density threshold  = 1.00e-06
  Integral threshold = 1.00e-12

  ==> Primary Basis <==

  Basis Set: DEF2-TZVPPD
    Blend: DEF2-TZVPPD
    Number of shells: 38
    Number of basis functions: 134
    Number of Cartesian functions: 166
    Spherical Harmonics?: true
    Max angular momentum: 4

  ==> DFT Potential <==

   => Composite Functional: MN15-D3BJ <= 

   MN15 Hybrid Meta-GGA Exchange-Correlation Functional

    H. S. Yu, X. He, S. L. Li, and D. G. Truhlar, Chem. Sci. 7, 5032-5051, 2016


    Deriv               =              1
    GGA                 =           TRUE
    Meta                =           TRUE

    Exchange Hybrid     =           TRUE
    MP2 Hybrid          =          FALSE

   => Exchange Functionals <=

    1.0000   XC_HYB_MGGA_X_MN15

   => Exact (HF) Exchange <=

    0.4400               HF 

   => Correlation Functionals <=

    1.0000   XC_MGGA_C_MN15

   => LibXC Density Thresholds  <==

    XC_MGGA_C_MN15:  1.00E-15 
    XC_HYB_MGGA_X_MN15:  1.00E-15 

   => Molecular Quadrature <=

    Radial Scheme          =       TREUTLER
    Pruning Scheme         =           NONE
    Nuclear Scheme         =       TREUTLER

    BS radius alpha        =              1
    Pruning alpha          =              1
    Radial Points          =             75
    Spherical Points       =            302
    Total Points           =          44016
    Total Blocks           =            434
    Max Points             =            255
    Max Functions          =            133
    Weights Tolerance      =       1.00E-15

   => Loading Basis Set <=

    Name: (DEF2-TZVPPD AUX)
    Role: JKFIT
    Keyword: DF_BASIS_SCF
    atoms 1-2 entry V          line  1600 file /mnt/storage/home/zw18965/.conda/envs/p4env/share/psi4/basis/def2-universal-jkfit.gbs 

  ==> Integral Setup <==

  DFHelper Memory: AOs need 0.082 GiB; user supplied 83.470 GiB. Using in-core AOs.

  ==> MemDFJK: Density-Fitted J/K Matrices <==

    J tasked:                   Yes
    K tasked:                   Yes
    wK tasked:                   No
    OpenMP threads:              28
    Memory [MiB]:             85473
    Algorithm:                 Core
    Schwarz Cutoff:           1E-12
    Mask sparsity (%):       0.2450
    Fitting Condition:        1E-10

   => Auxiliary Basis Set <=

  Basis Set: (DEF2-TZVPPD AUX)
    Blend: DEF2-UNIVERSAL-JKFIT
    Number of shells: 116
    Number of basis functions: 528
    Number of Cartesian functions: 754
    Spherical Harmonics?: true
    Max angular momentum: 6

  Cached 100.0% of DFT collocation blocks in 0.349 [GiB].

  Minimum eigenvalue in the overlap matrix is 1.6387181072E-04.
  Reciprocal condition number of the overlap matrix is 3.1505503733E-05.
    Using symmetric orthogonalization.

  ==> Pre-Iterations <==

  SCF Guess: Superposition of Atomic Densities via on-the-fly atomic UHF (no occupation information).

   -------------------------
    Irrep   Nso     Nmo    
   -------------------------
     Ag        27      27 
     B1g        8       8 
     B2g       16      16 
     B3g       16      16 
     Au         8       8 
     B1u       27      27 
     B2u       16      16 
     B3u       16      16 
   -------------------------
    Total     134     134
   -------------------------

  ==> Iterations <==

                           Total Energy        Delta E     RMS |[F,P]|

   @DF-UKS iter SAD: -1887.17122144500468   -1.88717e+03   0.00000e+00 
    Occupation by irrep:
             Ag   B1g   B2g   B3g    Au   B1u   B2u   B3u 
    DOCC [     6,    0,    2,    2,    0,    6,    3,    3 ]
    SOCC [     0,    0,    1,    1,    0,    0,    0,    0 ]

   @DF-UKS iter   1: -1886.32068208927831    8.50539e-01   3.86912e-02 DIIS
    Occupation by irrep:
             Ag   B1g   B2g   B3g    Au   B1u   B2u   B3u 
    DOCC [     6,    1,    2,    2,    0,    5,    3,    3 ]
    SOCC [     1,    0,    0,    0,    1,    0,    0,    0 ]

   @DF-UKS iter   2: -1872.92635072367602    1.33943e+01   8.13130e-02 DIIS
    Occupation by irrep:
             Ag   B1g   B2g   B3g    Au   B1u   B2u   B3u 
    DOCC [     7,    0,    2,    2,    0,    5,    3,    3 ]
    SOCC [     0,    1,    0,    0,    0,    1,    0,    0 ]

   @DF-UKS iter   3: -1887.32008179670129   -1.43937e+01   1.56975e-02 DIIS
    Occupation by irrep:
             Ag   B1g   B2g   B3g    Au   B1u   B2u   B3u 
    DOCC [     7,    0,    2,    2,    0,    5,    3,    3 ]
    SOCC [     1,    1,    0,    0,    0,    0,    0,    0 ]

   @DF-UKS iter   4: -1886.91207831416295    4.08003e-01   2.69891e-02 DIIS
   @DF-UKS iter   5: -1887.55514688017229   -6.43069e-01   1.46997e-02 DIIS
   @DF-UKS iter   6: -1887.75991649379444   -2.04770e-01   9.32748e-03 DIIS
   @DF-UKS iter   7: -1887.82277599577196   -6.28595e-02   5.18522e-03 DIIS
   @DF-UKS iter   8: -1887.85416371852557   -3.13877e-02   2.60376e-04 DIIS
   @DF-UKS iter   9: -1887.85466663486886   -5.02916e-04   1.79357e-04 DIIS
   @DF-UKS iter  10: -1887.85473414824150   -6.75134e-05   6.43306e-05 DIIS
   @DF-UKS iter  11: -1887.85474782347615   -1.36752e-05   9.82254e-06 DIIS
   @DF-UKS iter  12: -1887.85474854364634   -7.20170e-07   4.80996e-06 DIIS
   @DF-UKS iter  13: -1887.85474866497407   -1.21328e-07   1.31721e-06 DIIS
   @DF-UKS iter  14: -1887.85474868492224   -1.99482e-08   5.82244e-07 DIIS
  Energy and wave function converged.


  ==> Post-Iterations <==

   Electrons on quadrature grid:
      Nalpha   =   24.0000041202 ; deviation = 4.120e-06
      Nbeta    =   22.0000028968 ; deviation = 2.897e-06
      Ntotal   =   46.0000070170 ; deviation = 7.017e-06 

   @Spin Contamination Metric:   3.635975024E-03
   @S^2 Expected:                2.000000000E+00
   @S^2 Observed:                2.003635975E+00
   @S   Expected:                1.000000000E+00
   @S   Observed:                1.000000000E+00

    Orbital Energies [Eh]
    ---------------------

    Alpha Occupied:                                                       

       1B1u -195.102248     1Ag  -195.102224     2B1u  -21.594284  
       2Ag   -21.593939     1B2u  -18.551063     1B3u  -18.551063  
       1B3g  -18.550936     1B2g  -18.550936     3Ag   -18.530153  
       3B1u  -18.530000     4Ag    -2.587425     4B1u   -2.526499  
       5Ag    -1.739756     2B2u   -1.697766     2B3u   -1.697766  
       2B3g   -1.660565     2B2g   -1.660565     5B1u   -1.561112  
       3B2u   -0.265096     3B3u   -0.265096     6Ag    -0.250479  
       1B1g   -0.215820     7Ag    -0.215810     8Ag    -0.196373  

    Alpha Virtual:                                                        

       6B1u   -0.065246     4B2u   -0.040881     4B3u   -0.040881  
       1Au    -0.032458     7B1u   -0.032443     3B3g    0.005339  
       3B2g    0.005339     9Ag     0.042286     8B1u    0.043283  
       9B1u    0.070700     4B3g    0.084834     4B2g    0.084834  
       5B3u    0.102040     5B2u    0.102040    10Ag     0.116006  
       2B1g    0.131246    11Ag     0.131249    12Ag     0.141543  
      10B1u    0.177069     5B3g    0.177075     5B2g    0.177075  
       6B2u    0.194874     6B3u    0.194874     2Au     0.202766  
      11B1u    0.202767    12B1u    0.226588    13Ag     0.281046  
       6B3g    0.284719     6B2g    0.284719     7B2u    0.401752  
       7B3u    0.401752    13B1u    0.441711    14Ag     0.480056  
       7B3g    0.499614     7B2g    0.499614     3B1g    0.626139  
      15Ag     0.626145    14B1u    0.670962     8B2u    0.722428  
       8B3u    0.722428     3Au     0.730644    15B1u    0.730650  
      16Ag     0.796444     8B3g    0.840020     8B2g    0.840020  
      16B1u    0.857869    17Ag     1.044109     4B1g    1.044146  
       9B2u    1.056912     9B3u    1.056912     9B3g    1.235040  
       9B2g    1.235040    10B3u    1.277086    10B2u    1.277086  
      17B1u    1.415854    18Ag     1.438287    18B1u    1.533516  
       4Au     1.533556    19Ag     1.653905    11B2u    1.719576  
      11B3u    1.719576    10B3g    1.726114    10B2g    1.726114  
      11B3g    1.940990    11B2g    1.940990    19B1u    2.013821  
      12B3u    2.352412    12B2u    2.352412     5B1g    2.357095  
      20Ag     2.357108    21Ag     2.377374    20B1u    2.434978  
       5Au     2.434982    21B1u    2.526942    12B3g    2.718579  
      12B2g    2.718579    22Ag     2.746914    22B1u    3.575462  
       6B1g    3.769315    23Ag     3.769367    13B2u    3.841729  
      13B3u    3.841729    14B2u    3.920756    14B3u    3.920756  
      24Ag     3.928840    25Ag     4.036799     7B1g    4.037065  
      23B1u    4.072415     6Au     4.072679    13B3g    4.206663  
      13B2g    4.206663     7Au     4.507241    24B1u    4.507246  
      15B3u    4.520971    15B2u    4.520971    25B1u    4.568735  
      14B2g    4.581067    14B3g    4.581067    26Ag     4.581094  
       8B1g    4.581145    15B3g    4.742996    15B2g    4.742996  
       8Au     4.847582    26B1u    4.847594    16B2u    4.923234  
      16B3u    4.923234    16B3g    5.311757    16B2g    5.311757  
      27Ag     5.414058    27B1u    5.467119  

    Beta Occupied:                                                        

       1B1u -195.102720     1Ag  -195.102696     2B1u  -21.590769  
       2Ag   -21.590418     1B2u  -18.544568     1B3u  -18.544568  
       1B3g  -18.544509     1B2g  -18.544509     3Ag   -18.529129  
       3B1u  -18.528977     4Ag    -2.569428     4B1u   -2.508655  
       5Ag    -1.730186     2B2u   -1.662093     2B3u   -1.662093  
       2B3g   -1.629124     2B2g   -1.629124     5B1u   -1.551299  
       3B2u   -0.249275     3B3u   -0.249275     6Ag    -0.236555  
       7Ag    -0.192277  

    Beta Virtual:                                                         

       6B1u   -0.065770     4B2u   -0.031641     4B3u   -0.031641  
       1B1g   -0.028249     8Ag    -0.028233     3B3g    0.010223  
       3B2g    0.010223     9Ag     0.042692     1Au     0.051032  
       7B1u    0.051052     8B1u    0.054481     9B1u    0.071643  
       4B3g    0.089376     4B2g    0.089376     5B3u    0.108201  
       5B2u    0.108201    10Ag     0.124781    11Ag     0.145512  
       2B1g    0.156534    12Ag     0.156541    10B1u    0.181674  
       5B3g    0.189354     5B2g    0.189354     6B2u    0.200077  
       6B3u    0.200077     2Au     0.220077    11B1u    0.220082  
      12B1u    0.231150    13Ag     0.289083     6B3g    0.293194  
       6B2g    0.293194     7B3u    0.421582     7B2u    0.421582  
      13B1u    0.451133    14Ag     0.487687     7B3g    0.523729  
       7B2g    0.523729    15Ag     0.663343     3B1g    0.663345  
      14B1u    0.683985     8B2u    0.731661     8B3u    0.731661  
       3Au     0.766131    15B1u    0.766136    16Ag     0.815792  
       8B3g    0.852327     8B2g    0.852327    16B1u    0.880411  
      17Ag     1.064041     4B1g    1.064066     9B2u    1.110415  
       9B3u    1.110415     9B3g    1.285661     9B2g    1.285661  
      10B3u    1.296554    10B2u    1.296554    17B1u    1.435764  
      18Ag     1.450924    18B1u    1.556938     4Au     1.556966  
      19Ag     1.663510    11B3u    1.755169    11B2u    1.755169  
      10B3g    1.768021    10B2g    1.768021    11B3g    1.955000  
      11B2g    1.955000    19B1u    2.017395    12B2u    2.362770  
      12B3u    2.362770    20Ag     2.386150     5B1g    2.399390  
      21Ag     2.399401    20B1u    2.481319     5Au     2.481323  
      21B1u    2.561453    12B3g    2.739277    12B2g    2.739277  
      22Ag     2.773800    22B1u    3.584670     6B1g    3.794563  
      23Ag     3.794626    13B2u    3.863918    13B3u    3.863918  
      24Ag     3.943040    14B2u    3.954864    14B3u    3.954864  
      25Ag     4.103530     7B1g    4.103926    23B1u    4.138753  
       6Au     4.139148    13B3g    4.242193    13B2g    4.242193  
       7Au     4.526596    24B1u    4.526618    15B3u    4.565888  
      15B2u    4.565888    25B1u    4.585145    26Ag     4.599443  
       8B1g    4.599520    14B2g    4.625724    14B3g    4.625724  
      15B3g    4.752769    15B2g    4.752769    26B1u    4.871980  
       8Au     4.872001    16B2u    4.936104    16B3u    4.936104  
      16B3g    5.329293    16B2g    5.329293    27Ag     5.424719  
      27B1u    5.470572  

    Final Occupation by Irrep:
             Ag   B1g   B2g   B3g    Au   B1u   B2u   B3u 
    DOCC [     7,    0,    2,    2,    0,    5,    3,    3 ]
    SOCC [     1,    1,    0,    0,    0,    0,    0,    0 ]

  @DF-UKS Final Energy: -1887.85474868492224

   => Energetics <=

    Nuclear Repulsion Energy =            158.1552228499604666
    One-Electron Energy =               -2908.7538616638239546
    Two-Electron Energy =                 914.6045420142716011
    DFT Exchange-Correlation Energy =     -51.8605914153303260
    Empirical Dispersion Energy =          -0.0000604700000000
    VV10 Nonlocal Energy =                  0.0000000000000000
    Total Energy =                      -1887.8547486849224697

  UHF NO Occupations:
  HONO-2 :    7 Ag 1.9991430
  HONO-1 :    1B1g 1.0000000
  HONO-0 :    8 Ag 1.0000000
  LUNO+0 :    9 Ag 0.0008570
  LUNO+1 :    4B3u 0.0003782
  LUNO+2 :    4B2u 0.0003782
  LUNO+3 :   10 Ag 0.0001422


Computation Completed


Properties will be evaluated at   0.000000,   0.000000,   0.000000 [a0]

Properties computed using the SCF density matrix

  Nuclear Dipole Moment: [e a0]
     X:     0.0000      Y:     0.0000      Z:    -0.0000

  Electronic Dipole Moment: [e a0]
     X:     0.0000      Y:     0.0000      Z:     0.0000

  Dipole Moment: [e a0]
     X:     0.0000      Y:     0.0000      Z:    -0.0000     Total:     0.0000

  Dipole Moment: [D]
     X:     0.0000      Y:     0.0000      Z:    -0.0000     Total:     0.0000


*** tstop() called on compute416.bc4.acrc.priv at Sun Nov  7 05:05:34 2021
Module time:
	user time   =     285.55 seconds =       4.76 minutes
	system time =      10.49 seconds =       0.17 minutes
	total time  =         13 seconds =       0.22 minutes
Total time:
	user time   =     285.55 seconds =       4.76 minutes
	system time =      10.49 seconds =       0.17 minutes
	total time  =         13 seconds =       0.22 minutes

    Psi4 stopped on: Sunday, 07 November 2021 05:05AM
    Psi4 wall time for execution: 0:00:12.70

*** Psi4 exiting successfully. Buy a developer a beer!
