
    -----------------------------------------------------------------------
          Psi4: An Open-Source Ab Initio Electronic Structure Package
                               Psi4 1.4.1 release

                         Git: Rev {HEAD} cd00f19 


    D. G. A. Smith, L. A. Burns, A. C. Simmonett, R. M. Parrish,
    M. C. Schieber, R. Galvelis, P. Kraus, H. Kruse, R. Di Remigio,
    A. Alenaizan, A. M. James, S. Lehtola, J. P. Misiewicz, M. Scheurer,
    R. A. Shaw, J. B. Schriber, Y. Xie, Z. L. Glick, D. A. Sirianni,
    J. S. O'Brien, J. M. Waldrop, A. Kumar, E. G. Hohenstein,
    B. P. Pritchard, B. R. Brooks, H. F. Schaefer III, A. Yu. Sokolov,
    K. Patkowski, A. E. DePrince III, U. Bozkaya, R. A. King,
    F. A. Evangelista, J. M. Turney, T. D. Crawford, C. D. Sherrill,
    J. Chem. Phys. 152(18) 184108 (2020). https://doi.org/10.1063/5.0006002

                            Additional Code Authors
    E. T. Seidl, C. L. Janssen, E. F. Valeev, M. L. Leininger,
    J. F. Gonthier, R. M. Richard, H. R. McAlexander, M. Saitow, X. Wang,
    P. Verma, and M. H. Lechner

             Previous Authors, Complete List of Code Contributors,
                       and Citations for Specific Modules
    https://github.com/psi4/psi4/blob/master/codemeta.json
    https://github.com/psi4/psi4/graphs/contributors
    http://psicode.org/psi4manual/master/introduction.html#citing-psifour

    -----------------------------------------------------------------------


    Psi4 started on: Sunday, 07 November 2021 05:05AM

    Process ID: 19823
    Host:       compute267.bc4.acrc.priv
    PSIDATADIR: /mnt/storage/home/zw18965/.conda/envs/p4env/share/psi4
    Memory:     500.0 MiB
    Threads:    28
    
  ==> Input File <==

--------------------------------------------------------------------------
memory 120 GB

molecule {
0 4
V          0.00000        0.00000        0.00000
S          0.00000        0.00000        2.04800
 }

set reference uks
set dynamic_level 1
set basis Def2-TZVPPD

energy("MN15-D3BJ")
--------------------------------------------------------------------------

  Memory set to 111.759 GiB by Python driver.

Scratch directory: /tmp/

*** tstart() called on compute267.bc4.acrc.priv
*** at Sun Nov  7 05:05:36 2021

   => Loading Basis Set <=

    Name: DEF2-TZVPPD
    Role: ORBITAL
    Keyword: BASIS
    atoms 1 entry V          line   924 file /mnt/storage/home/zw18965/.conda/envs/p4env/share/psi4/basis/def2-tzvppd.gbs 
    atoms 2 entry S          line   558 file /mnt/storage/home/zw18965/.conda/envs/p4env/share/psi4/basis/def2-tzvppd.gbs 

   => MN15-D3(BJ): Empirical Dispersion <=

    Grimme's -D3 (BJ-damping) Dispersion Correction
    Grimme S.; Ehrlich S.; Goerigk L. (2011), J. Comput. Chem., 32: 1456
    Parametrisation from:    L. Goerigk, A. Hansen, C. Bauer, S. Ehrlich, A. Najibi, S. Grimme, Phys. Chem. Chem. Phys. 19, 32184-32215, 2017

        s6 =       1.000000
        s8 =       2.097100
        a1 =       0.786200
        a2 =       7.592300


         ---------------------------------------------------------
                                   SCF
               by Justin Turney, Rob Parrish, Andy Simmonett
                          and Daniel G. A. Smith
                              UKS Reference
                       28 Threads, 114440 MiB Core
         ---------------------------------------------------------

  ==> Geometry <==

    Molecular point group: c2v
    Full point group: C_inf_v

    Geometry (in Angstrom), charge = 0, multiplicity = 4:

       Center              X                  Y                   Z               Mass       
    ------------   -----------------  -----------------  -----------------  -----------------
         V            0.000000000000     0.000000000000    -0.789700172274    50.943957040000
         S            0.000000000000     0.000000000000     1.258299827726    31.972071174400

  Running in c2v symmetry.

  Rotational constants: A = ************  B =      0.20460  C =      0.20460 [cm^-1]
  Rotational constants: A = ************  B =   6133.83852  C =   6133.83852 [MHz]
  Nuclear repulsion =   95.086530042265622

  Charge       = 0
  Multiplicity = 4
  Electrons    = 39
  Nalpha       = 21
  Nbeta        = 18

  ==> Algorithm <==

  SCF Algorithm Type is DF.
  DIIS enabled.
  MOM disabled.
  Fractional occupation disabled.
  Guess Type is SAD.
  Energy threshold   = 1.00e-06
  Density threshold  = 1.00e-06
  Integral threshold = 1.00e-12

  ==> Primary Basis <==

  Basis Set: DEF2-TZVPPD
    Blend: DEF2-TZVPPD
    Number of shells: 36
    Number of basis functions: 118
    Number of Cartesian functions: 141
    Spherical Harmonics?: true
    Max angular momentum: 4

  ==> DFT Potential <==

   => Composite Functional: MN15-D3BJ <= 

   MN15 Hybrid Meta-GGA Exchange-Correlation Functional

    H. S. Yu, X. He, S. L. Li, and D. G. Truhlar, Chem. Sci. 7, 5032-5051, 2016


    Deriv               =              1
    GGA                 =           TRUE
    Meta                =           TRUE

    Exchange Hybrid     =           TRUE
    MP2 Hybrid          =          FALSE

   => Exchange Functionals <=

    1.0000   XC_HYB_MGGA_X_MN15

   => Exact (HF) Exchange <=

    0.4400               HF 

   => Correlation Functionals <=

    1.0000   XC_MGGA_C_MN15

   => LibXC Density Thresholds  <==

    XC_MGGA_C_MN15:  1.00E-15 
    XC_HYB_MGGA_X_MN15:  1.00E-15 

   => Molecular Quadrature <=

    Radial Scheme          =       TREUTLER
    Pruning Scheme         =           NONE
    Nuclear Scheme         =       TREUTLER

    BS radius alpha        =              1
    Pruning alpha          =              1
    Radial Points          =             75
    Spherical Points       =            302
    Total Points           =          44350
    Total Blocks           =            435
    Max Points             =            255
    Max Functions          =            117
    Weights Tolerance      =       1.00E-15

   => Loading Basis Set <=

    Name: (DEF2-TZVPPD AUX)
    Role: JKFIT
    Keyword: DF_BASIS_SCF
    atoms 1 entry V          line  1600 file /mnt/storage/home/zw18965/.conda/envs/p4env/share/psi4/basis/def2-universal-jkfit.gbs 
    atoms 2 entry S          line   903 file /mnt/storage/home/zw18965/.conda/envs/p4env/share/psi4/basis/def2-universal-jkfit.gbs 

  ==> Integral Setup <==

  DFHelper Memory: AOs need 0.048 GiB; user supplied 83.514 GiB. Using in-core AOs.

  ==> MemDFJK: Density-Fitted J/K Matrices <==

    J tasked:                   Yes
    K tasked:                   Yes
    wK tasked:                   No
    OpenMP threads:              28
    Memory [MiB]:             85518
    Algorithm:                 Core
    Schwarz Cutoff:           1E-12
    Mask sparsity (%):       0.7756
    Fitting Condition:        1E-10

   => Auxiliary Basis Set <=

  Basis Set: (DEF2-TZVPPD AUX)
    Blend: DEF2-UNIVERSAL-JKFIT
    Number of shells: 96
    Number of basis functions: 392
    Number of Cartesian functions: 532
    Spherical Harmonics?: true
    Max angular momentum: 6

  Cached 100.0% of DFT collocation blocks in 0.305 [GiB].

  Minimum eigenvalue in the overlap matrix is 6.6965923759E-04.
  Reciprocal condition number of the overlap matrix is 1.4006141092E-04.
    Using symmetric orthogonalization.

  ==> Pre-Iterations <==

  SCF Guess: Superposition of Atomic Densities via on-the-fly atomic UHF (no occupation information).

   -------------------------
    Irrep   Nso     Nmo    
   -------------------------
     A1        49      49 
     A2        13      13 
     B1        28      28 
     B2        28      28 
   -------------------------
    Total     118     118
   -------------------------

  ==> Iterations <==

                           Total Energy        Delta E     RMS |[F,P]|

   @DF-UKS iter SAD: -1341.36818522662770   -1.34137e+03   0.00000e+00 
    Occupation by irrep:
             A1    A2    B1    B2 
    DOCC [    10,    0,    4,    4 ]
    SOCC [     2,    0,    1,    0 ]

   @DF-UKS iter   1: -1341.22596522021740    1.42220e-01   2.54165e-02 DIIS
    Occupation by irrep:
             A1    A2    B1    B2 
    DOCC [    10,    0,    4,    4 ]
    SOCC [     1,    1,    0,    1 ]

   @DF-UKS iter   2: -1337.07752075671897    4.14844e+00   4.40225e-02 DIIS
   @DF-UKS iter   3: -1340.95720441814024   -3.87968e+00   2.67190e-02 DIIS
   @DF-UKS iter   4: -1341.29793588861844   -3.40731e-01   2.19047e-02 DIIS
   @DF-UKS iter   5: -1342.00436208875772   -7.06426e-01   4.53784e-03 DIIS
   @DF-UKS iter   6: -1342.04092156420074   -3.65595e-02   1.16466e-03 DIIS
   @DF-UKS iter   7: -1342.04335978161225   -2.43822e-03   4.63467e-04 DIIS
   @DF-UKS iter   8: -1342.04382461743080   -4.64836e-04   1.91438e-04 DIIS
   @DF-UKS iter   9: -1342.04396447224826   -1.39855e-04   4.64908e-05 DIIS
   @DF-UKS iter  10: -1342.04402189629627   -5.74240e-05   4.16092e-05 DIIS
   @DF-UKS iter  11: -1342.04405260186559   -3.07056e-05   2.32260e-05 DIIS
   @DF-UKS iter  12: -1342.04407691925326   -2.43174e-05   2.28512e-05 DIIS
   @DF-UKS iter  13: -1342.04407082194939    6.09730e-06   2.23501e-05 DIIS
   @DF-UKS iter  14: -1342.04401562333760    5.51986e-05   1.88438e-05 DIIS
   @DF-UKS iter  15: -1342.04395100936108    6.46140e-05   1.97980e-05 DIIS
   @DF-UKS iter  16: -1342.04394969579289    1.31357e-06   1.30953e-05 DIIS
   @DF-UKS iter  17: -1342.04394996980750   -2.74015e-07   7.62704e-06 DIIS
   @DF-UKS iter  18: -1342.04395011797601   -1.48169e-07   1.93252e-06 DIIS
   @DF-UKS iter  19: -1342.04395015997170   -4.19957e-08   1.95975e-06 DIIS
   @DF-UKS iter  20: -1342.04395017390516   -1.39335e-08   5.86974e-07 DIIS
  Energy and wave function converged.


  ==> Post-Iterations <==

   Electrons on quadrature grid:
      Nalpha   =   20.9999997091 ; deviation = -2.909e-07
      Nbeta    =   18.0000007669 ; deviation = 7.669e-07
      Ntotal   =   39.0000004761 ; deviation = 4.761e-07 

   @Spin Contamination Metric:   6.821486890E-02
   @S^2 Expected:                3.750000000E+00
   @S^2 Observed:                3.818214869E+00
   @S   Expected:                1.500000000E+00
   @S   Observed:                1.500000000E+00

    Orbital Energies [Eh]
    ---------------------

    Alpha Occupied:                                                       

       1A1  -195.094130     2A1   -87.696605     3A1   -21.591475  
       4A1   -18.553907     1B1   -18.542301     1B2   -18.533986  
       5A1    -7.613935     2B1    -5.801532     6A1    -5.799032  
       2B2    -5.798212     7A1    -2.573386     8A1    -1.716330  
       3B1    -1.700094     3B2    -1.687917     9A1    -0.622718  
       4B2    -0.292947    10A1    -0.280698     4B1    -0.259094  
       1A2    -0.257822    11A1    -0.255247     5B2    -0.193855  

    Alpha Virtual:                                                        

      12A1    -0.098873     5B1    -0.048157    13A1    -0.037057  
       6B2     0.012736     6B1     0.027830    14A1     0.062477  
      15A1     0.084824     7B2     0.103736     7B1     0.105153  
       8B2     0.120071     8B1     0.120586    16A1     0.128764  
       2A2     0.151118    17A1     0.153224    18A1     0.190085  
       9B2     0.200236    19A1     0.209882     9B1     0.214749  
       3A2     0.247593    20A1     0.249548    10B2     0.298162  
      21A1     0.300921    10B1     0.303681    22A1     0.333567  
      11B2     0.436162    11B1     0.437037    23A1     0.509417  
      12B2     0.550989    12B1     0.554158     4A2     0.586670  
      24A1     0.587478    25A1     0.596291    13B2     0.609358  
      13B1     0.615044     5A2     0.683121    26A1     0.684766  
      27A1     0.717644    14B2     0.761214    14B1     0.771321  
      28A1     0.834740    29A1     1.110283     6A2     1.119325  
      30A1     1.124137    15B2     1.125963    15B1     1.126173  
      16B2     1.302353    16B1     1.312041    31A1     1.542752  
      32A1     1.665253     7A2     1.665396    17B2     1.692104  
      17B1     1.695241    18B1     1.711769    18B2     1.720012  
      19B2     1.729593    19B1     1.729619    33A1     1.749563  
       8A2     1.816405    34A1     1.817367    35A1     1.818945  
      36A1     1.863414    20B2     1.975379    20B1     1.987891  
      37A1     2.081302    21B2     2.166151    21B1     2.174254  
      38A1     2.328391     9A2     2.382800    39A1     2.383341  
      22B2     2.465586    22B1     2.468930    40A1     3.177271  
      23B2     4.023481    23B1     4.023811    41A1     4.029489  
      10A2     4.029489    11A2     4.049076    42A1     4.051867  
      43A1     4.179676    24B2     4.180112    24B1     4.182283  
      25B2     4.539503    25B1     4.539566    12A2     4.562197  
      44A1     4.565210    26B1     4.726013    26B2     4.730898  
      45A1     4.873760    13A2     6.766594    46A1     6.766726  
      27B1     6.811251    27B2     6.811365    47A1     6.921177  
      28B2     8.696519    28B1     8.700997    48A1     8.932933  
      49A1    18.450187  

    Beta Occupied:                                                        

       1A1  -195.095900     2A1   -87.697613     3A1   -21.578087  
       4A1   -18.542319     1B1   -18.523837     1B2   -18.510602  
       5A1    -7.615018     2B1    -5.803274     6A1    -5.800280  
       2B2    -5.798534     7A1    -2.511183     8A1    -1.651874  
       3B1    -1.604172     3B2    -1.580138     9A1    -0.628767  
      10A1    -0.275761     4B1    -0.257870     4B2    -0.250190  

    Beta Virtual:                                                         

      11A1    -0.042397    12A1    -0.009715     5B1     0.010416  
       5B2     0.026553     6B1     0.047509    13A1     0.047633  
       1A2     0.048392     6B2     0.055285    14A1     0.066487  
      15A1     0.088492     7B1     0.114849     7B2     0.117655  
       8B2     0.124522     8B1     0.124534    16A1     0.143296  
      17A1     0.188491     2A2     0.188703    18A1     0.195949  
      19A1     0.217686     9B1     0.225085     9B2     0.236615  
      20A1     0.258523     3A2     0.258821    10B1     0.301637  
      21A1     0.303655    10B2     0.306266    22A1     0.351772  
      11B1     0.463669    11B2     0.468745    23A1     0.515315  
      12B1     0.550024    12B2     0.555155    24A1     0.589022  
       4A2     0.589554    25A1     0.596133    13B1     0.614991  
      13B2     0.624168    26A1     0.716040    27A1     0.740905  
       5A2     0.740964    14B1     0.785258    14B2     0.794855  
      28A1     0.857958    29A1     1.108681    30A1     1.185210  
       6A2     1.185619    15B1     1.226651    15B2     1.226725  
      16B1     1.333923    16B2     1.347571    31A1     1.539369  
      32A1     1.654714     7A2     1.654875    17B1     1.675929  
      17B2     1.688822    18B1     1.717781    18B2     1.717847  
      33A1     1.754165    19B1     1.759352    19B2     1.772378  
      34A1     1.812128     8A2     1.812612    35A1     1.852881  
      36A1     1.889591    20B1     1.959042    20B2     1.982697  
      37A1     2.076503    21B1     2.165373    21B2     2.183522  
      38A1     2.368673     9A2     2.469805    39A1     2.470156  
      22B1     2.503231    22B2     2.535025    40A1     3.178402  
      41A1     4.144916    10A2     4.147550    23B2     4.150174  
      23B1     4.150190    42A1     4.170085    11A2     4.170153  
      24B1     4.241525    43A1     4.242752    24B2     4.269701  
      44A1     4.632981    12A2     4.634307    25B2     4.640589  
      25B1     4.640589    26B1     4.762673    26B2     4.789849  
      45A1     4.914356    46A1     6.762053    13A2     6.762268  
      27B1     6.802378    27B2     6.808975    47A1     6.915942  
      28B1     8.685217    28B2     8.697323    48A1     8.922922  
      49A1    18.448007  

    Final Occupation by Irrep:
             A1    A2    B1    B2 
    DOCC [    10,    0,    4,    4 ]
    SOCC [     1,    1,    0,    1 ]

  @DF-UKS Final Energy: -1342.04395017390516

   => Energetics <=

    Nuclear Repulsion Energy =             95.0865300422656219
    One-Electron Energy =               -2038.0721148104298663
    Two-Electron Energy =                 641.4705002684358988
    DFT Exchange-Correlation Energy =     -40.5288172641767019
    Empirical Dispersion Energy =          -0.0000484100000000
    VV10 Nonlocal Energy =                  0.0000000000000000
    Total Energy =                      -1342.0439501739051593

  UHF NO Occupations:
  HONO-2 :    5 B2 1.0000000
  HONO-1 :    1 A2 1.0000000
  HONO-0 :   11 A1 1.0000000
  LUNO+0 :    5 B1 0.0260546
  LUNO+1 :   12 A1 0.0060740
  LUNO+2 :    6 B2 0.0020921
  LUNO+3 :    6 B1 0.0000719


Computation Completed


Properties will be evaluated at   0.000000,   0.000000,   0.000000 [a0]

Properties computed using the SCF density matrix

  Nuclear Dipole Moment: [e a0]
     X:     0.0000      Y:     0.0000      Z:     3.7222

  Electronic Dipole Moment: [e a0]
     X:     0.0000      Y:     0.0000      Z:    -6.6491

  Dipole Moment: [e a0]
     X:     0.0000      Y:     0.0000      Z:    -2.9270     Total:     2.9270

  Dipole Moment: [D]
     X:     0.0000      Y:     0.0000      Z:    -7.4396     Total:     7.4396


*** tstop() called on compute267.bc4.acrc.priv at Sun Nov  7 05:05:51 2021
Module time:
	user time   =     328.51 seconds =       5.48 minutes
	system time =      12.42 seconds =       0.21 minutes
	total time  =         15 seconds =       0.25 minutes
Total time:
	user time   =     328.51 seconds =       5.48 minutes
	system time =      12.42 seconds =       0.21 minutes
	total time  =         15 seconds =       0.25 minutes

    Psi4 stopped on: Sunday, 07 November 2021 05:05AM
    Psi4 wall time for execution: 0:00:15.32

*** Psi4 exiting successfully. Buy a developer a beer!
