
                                 *****************
                                 * O   R   C   A *
                                 *****************

           --- An Ab Initio, DFT and Semiempirical electronic structure package ---

                  #######################################################
                  #                        -***-                        #
                  #          Department of theory and spectroscopy      #
                  #               Directorship: Frank Neese             #
                  #        Max Planck Institute fuer Kohlenforschung    #
                  #                Kaiser Wilhelm Platz 1               #
                  #                 D-45470 Muelheim/Ruhr               #
                  #                      Germany                        #
                  #                                                     #
                  #                  All rights reserved                #
                  #                        -***-                        #
                  #######################################################


                         Program Version 4.2.0 -  RELEASE  -


 With contributions from (in alphabetic order):
   Daniel Aravena         : Magnetic Suceptibility
   Michael Atanasov       : Ab Initio Ligand Field Theory (pilot matlab implementation)
   Alexander A. Auer      : GIAO ZORA, VPT2
   Ute Becker             : Parallelization
   Giovanni Bistoni       : ED, misc. LED, open-shell LED, HFLED
   Martin Brehm           : Molecular dynamics
   Dmytro Bykov           : SCF Hessian
   Vijay G. Chilkuri      : MRCI spin determinant printing, contributions to CSF-ICE
   Dipayan Datta          : RHF DLPNO-CCSD density
   Achintya Kumar Dutta   : EOM-CC, STEOM-CC
   Dmitry Ganyushin       : Spin-Orbit,Spin-Spin,Magnetic field MRCI
   Miquel Garcia          : C-PCM Hessian, Gaussian charge scheme
   Yang Guo               : DLPNO-NEVPT2, CIM, IAO-localization
   Andreas Hansen         : Spin unrestricted coupled pair/coupled cluster methods
   Benjamin Helmich-Paris : CASSCF linear response (MC-RPA)
   Lee Huntington         : MR-EOM, pCC
   Robert Izsak           : Overlap fitted RIJCOSX, COSX-SCS-MP3, EOM
   Christian Kollmar      : KDIIS, OOCD, Brueckner-CCSD(T), CCSD density
   Simone Kossmann        : Meta GGA functionals, TD-DFT gradient, OOMP2, MP2 Hessian
   Martin Krupicka        : AUTO-CI
   Lucas Lang             : DCDCAS
   Dagmar Lenk            : GEPOL surface, SMD
   Dimitrios Liakos       : Extrapolation schemes; Compound Job, initial MDCI parallelization
   Dimitrios Manganas     : Further ROCIS development; embedding schemes
   Dimitrios Pantazis     : SARC Basis sets
   Taras Petrenko         : DFT Hessian,TD-DFT gradient, ASA, ECA, R-Raman, ABS, FL, XAS/XES, NRVS
   Peter Pinski           : DLPNO-MP2, DLPNO-MP2 Gradient
   Christoph Reimann      : Effective Core Potentials
   Marius Retegan         : Local ZFS, SOC
   Christoph Riplinger    : Optimizer, TS searches, QM/MM, DLPNO-CCSD(T), (RO)-DLPNO pert. Triples
   Tobias Risthaus        : Range-separated hybrids, TD-DFT gradient, RPA, STAB
   Michael Roemelt        : Original ROCIS implementation
   Masaaki Saitow         : Open-shell DLPNO-CCSD energy and density
   Barbara Sandhoefer     : DKH picture change effects
   Avijit Sen             : IP-ROCIS
   Kantharuban Sivalingam : CASSCF convergence, NEVPT2, FIC-MRCI
   Bernardo de Souza      : ESD, SOC TD-DFT
   Georgi Stoychev        : AutoAux, RI-MP2 NMR
   Willem Van den Heuvel  : Paramagnetic NMR
   Boris Wezisla          : Elementary symmetry handling
   Frank Wennmohs         : Technical directorship


 We gratefully acknowledge several colleagues who have allowed us to
 interface, adapt or use parts of their codes:
   Stefan Grimme, W. Hujo, H. Kruse,             : VdW corrections, initial TS optimization,
                  C. Bannwarth                     DFT functionals, gCP, sTDA/sTD-DF
   Ed Valeev, F. Pavosevic, A. Kumar             : LibInt (2-el integral package), F12 methods
   Garnet Chan, S. Sharma, J. Yang, R. Olivares  : DMRG
   Ulf Ekstrom                                   : XCFun DFT Library
   Mihaly Kallay                                 : mrcc  (arbitrary order and MRCC methods)
   Andreas Klamt, Michael Diedenhofen            : otool_cosmo (COSMO solvation model)
   Jiri Pittner, Ondrej Demel                    : Mk-CCSD
   Frank Weinhold                                : gennbo (NPA and NBO analysis)
   Christopher J. Cramer and Donald G. Truhlar   : smd solvation model
   Lars Goerigk                                  : TD-DFT with DH, B97 family of functionals
   V. Asgeirsson, H. Jonsson                     : NEB implementation
   FAccTs GmbH                                   : IRC, NEB, NEB-TS, Multilevel, MM, QM/MM, CI optimization
   S Lehtola, MJT Oliveira, MAL Marques          : LibXC Library


 Your calculation uses the libint2 library for the computation of 2-el integrals
 For citations please refer to: http://libint.valeyev.net

 Your ORCA version has been built with support for libXC version: 4.2.3
 For citations please refer to: https://tddft.org/programs/libxc/

 This ORCA versions uses:
   CBLAS   interface :  Fast vector & matrix operations
   LAPACKE interface :  Fast linear algebra routines
   SCALAPACK package :  Parallel linear algebra routines


Your calculation utilizes the atom-pairwise dispersion correction
with the Becke-Johnson damping scheme (D3BJ)
Cite in your paper:
S.Grimme, S.Ehrlich, L.Goerigk, J Comput Chem, (2011), 32, 1456–1465 
S.Grimme, J.Antony, S.Ehrlich and H.Krieg, J.Chem.Phys., 132, (2010), 154104 
   

----- Orbital basis set information -----
Your calculation utilizes the basis: def2-TZVPPD
   F. Weigend and R. Ahlrichs, Phys. Chem. Chem. Phys. 7, 3297 (2005).
   D. Rappoport and F. Furche, J. Chem. Phys. 133 134105 (2010).

----- AuxC basis set information -----
Your calculation utilizes the auxiliary basis: def2-TZVPPD/C
   A. Hellweg, C. Hattig, S. Hofener and W. Klopper, Theor. Chem. Acc. 117, 587 (2007).

----- AuxJK basis set information -----
Your calculation utilizes the auxiliary basis: def2/JK
   H-Ba, Hf-Rn: F. Weigend, J. Comput. Chem. 29, 167 (2008).

cite the ECPs for Ag [Def2-ECP] as follows:
Ce-Yb(ecp-28): M. Dolg, H. Stoll, H.Preuss, J. Chem. Phys., 1989, 90, 1730-1734.
Y-Cd(ecp-28), Hf-Hg(ecp-46): D. Andrae,U. Haeussermann, M. Dolg, H. Stoll, H. Preuss, Theor. Chim. Acta, 1990, 77, 123-141.
In-Sb(ecp-28), Tl-Bi(ecp-46): B. Metz, H. Stoll, M. Dolg, J. Chem. Phys., 2000, 113, 2563-2569.
Te-Xe(ecp-28), Po-Rn(ecp-46): K. A. Peterson, D. Figgen, E. Goll, H. Stoll, M. Dolg, J. Chem. Phys., 2003, 119, 11113-11123.
Rb(ecp-28), Cs(ecp-46): T. Leininger, A. Nicklass, W. Kuechle, H. Stoll, M. Dolg, A. Bergner, Chem. Phys. Lett., 1996, 255, 274-280.
Sr(ecp-28), Ba(ecp-46): M. Kaupp, P. V. Schleyer, H. Stoll and H. Preuss, J. Chem. Phys., 1991, 94, 1360-1366.
La(ecp-46): M. Dolg, H. Stoll, A. Savin, H. Preuss, Theor. Chim. Acta, 1989, 75, 173-194.
Lu(ecp-28): X. Cao, M. Dolg, J. Chem. Phys., 2001, 115, 7348-7355.

ECP parameters for Ag [Def2-ECP] have been obtained from:
TURBOMOLE (7.0.2)

================================================================================
                                        WARNINGS
                       Please study these warnings very carefully!
================================================================================


WARNING: No MP2 level density has been requested!
         To caclulate MP2 level properties use
         %mp2 Density relaxed end
         or
         %mp2 Density unrelaxed end
         Otherwise for double-hybrid DFT only the energy is correct!

WARNING: There are different parametrizations of Gershom Martin's DSD-DFs
         for use with and without D3(BJ)!
         You are using the D3(BJ) parametrized version,
         consistent with the 2013 article (S. Kozuch and J. M. L. Martin, JCC 2013, 34, 2327)

WARNING: The frozen-core approximation is turned on by default for 
         the MP2 part of double-hybrid DFT.

INFO   : the flag for use of LIBINT has been found!

================================================================================
                                       INPUT FILE
================================================================================
NAME = AgH.in
|  1> #
|  2> # AgH ri-DSD-BLYP/2013-D3BJ/Def2-TZVPPD
|  3> #
|  4> ! rijk ri-dsd-blyp/2013 d3bj def2-tzvppd def2/jk def2-tzvppd/c grid4 nofinalgrid
|  5> 
|  6> *xyz 0 1
|  7> Ag         0.00000        0.00000        0.00000
|  8> H          0.00000        0.00000        1.61800
|  9> *
| 10> 
| 11> %maxcore 5000
| 12> 
| 13> %pal
| 14> nprocs = 28
| 15> end
| 16> 
| 17> 
| 18>                          ****END OF INPUT****
================================================================================

                       ****************************
                       * Single Point Calculation *
                       ****************************

---------------------------------
CARTESIAN COORDINATES (ANGSTROEM)
---------------------------------
  Ag     0.000000    0.000000    0.000000
  H      0.000000    0.000000    1.618000

----------------------------
CARTESIAN COORDINATES (A.U.)
----------------------------
  NO LB      ZA    FRAG     MASS         X           Y           Z
   0 Ag   19.0000*   0   107.870    0.000000    0.000000    0.000000
   1 H     1.0000    0     1.008    0.000000    0.000000    3.057577
* core charge reduced due to ECP

--------------------------------
INTERNAL COORDINATES (ANGSTROEM)
--------------------------------
 Ag     0   0   0     0.000000000000     0.00000000     0.00000000
 H      1   0   0     1.618000000000     0.00000000     0.00000000

---------------------------
INTERNAL COORDINATES (A.U.)
---------------------------
 Ag     0   0   0     0.000000000000     0.00000000     0.00000000
 H      1   0   0     3.057576884685     0.00000000     0.00000000

---------------------
BASIS SET INFORMATION
---------------------
There are 2 groups of distinct atoms

 Group   1 Type Ag  : 7s7p6d2f1g contracted to 6s4p3d2f1g pattern {211111/4111/411/11/1}
 Group   2 Type H   : 5s3p1d contracted to 3s3p1d pattern {311/111/1}

Atom   0Ag   basis set group =>   1
Atom   1H    basis set group =>   2
---------------------------------
AUXILIARY/C BASIS SET INFORMATION
---------------------------------
There are 2 groups of distinct atoms

 Group   1 Type Ag  : 8s7p6d5f4g3h1i contracted to 8s7p6d5f4g3h1i pattern {11111111/1111111/111111/11111/1111/111/1}
 Group   2 Type H   : 5s4p3d1f contracted to 5s4p3d1f pattern {11111/1111/111/1}

Atom   0Ag   basis set group =>   1
Atom   1H    basis set group =>   2
----------------------------------
AUXILIARY/JK BASIS SET INFORMATION
----------------------------------
There are 2 groups of distinct atoms

 Group   1 Type Ag  : 13s12p10d9f6g3h2i contracted to 11s10p9d8f6g3h2i pattern {31111111111/3111111111/211111111/21111111/111111/111/11}
 Group   2 Type H   : 4s2p2d contracted to 2s2p2d pattern {31/11/11}

Atom   0Ag   basis set group =>   1
Atom   1H    basis set group =>   2
-------------------------
ECP PARAMETER INFORMATION
-------------------------

 Group 1, Type Ag ECP Def2-ECP (replacing 28 core electrons, lmax=3)

Atom   0Ag   ECP group =>   1



           ************************************************************
           *        Program running with 28 parallel MPI-processes    *
           *              working on a common directory               *
           ************************************************************
------------------------------------------------------------------------------
                           ORCA GTO INTEGRAL CALCULATION
                           -- RI-GTO INTEGRALS CHOSEN --
------------------------------------------------------------------------------

                         BASIS SET STATISTICS AND STARTUP INFO

Gaussian basis set:
 # of primitive gaussian shells          ...   32
 # of primitive gaussian functions       ...  100
 # of contracted shells                  ...   23
 # of contracted basis functions         ...   73
 Highest angular momentum                ...    4
 Maximum contraction depth               ...    4
Auxiliary gaussian basis set:
 # of primitive gaussian shells          ...   63
 # of primitive gaussian functions       ...  295
 # of contracted shells                  ...   55
 # of contracted aux-basis functions     ...  273
 Highest angular momentum                ...    6
 Maximum contraction depth               ...    3
Ratio of auxiliary to basis functions    ...  3.74
Integral package used                  ... LIBINT
 One Electron integrals                  
   ECP integrals                         ... done
 Ordering auxiliary basis shells         ... done
 Integral threshhold             Thresh  ...  1.000e-10
 Primitive cut-off               TCut    ...  1.000e-11
 Pre-screening matrix                    ... done
 Shell pair data                         ... 
 Ordering of the shell pairs             ... done (   0.000 sec) 276 of 276 pairs
 Determination of significant pairs      ... done (   0.000 sec)
 Creation of shell pair data             ... done (   0.000 sec)
 Storage of shell pair data              ... done (   0.007 sec)
 Shell pair data done in (   0.007 sec)
 Computing two index integrals           ... done
 Cholesky decomposition of the V-matrix  ... done


Timings:
 Total evaluation time                   ...   0.244 sec (  0.004 min)
 One electron matrix time                ...   0.077 sec (  0.001 min) = 31.7%
 Schwartz matrix evaluation time         ...   0.104 sec (  0.002 min) = 42.7%
 Two index repulsion integral time       ...   0.025 sec (  0.000 min) = 10.3%
 Cholesky decomposition of V             ...   0.004 sec (  0.000 min) =  1.5%
 Three index repulsion integral time     ...   0.000 sec (  0.000 min) =  0.0%



           ************************************************************
           *        Program running with 28 parallel MPI-processes    *
           *              working on a common directory               *
           ************************************************************
-------------------------------------------------------------------------------
                                 ORCA SCF
-------------------------------------------------------------------------------

------------
SCF SETTINGS
------------
Hamiltonian:
 Density Functional     Method          .... DFT(GTOs)
 Exchange Functional    Exchange        .... B88
   X-Alpha parameter    XAlpha          ....  0.666667
   Becke's b parameter  XBeta           ....  0.004200
 Correlation Functional Correlation     .... LYP
 LDA part of GGA corr.  LDAOpt          .... VWN-5
 Gradients option       PostSCFGGA      .... off
 Hybrid DFT is turned on
   Fraction HF Exchange ScalHFX         ....  0.710000
   Scaling of DF-GGA-X  ScalDFX         ....  0.290000
   Scaling of DF-GGA-C  ScalDFC         ....  0.540000
   Scaling of DF-LDA-C  ScalLDAC        ....  0.540000
   Perturbative correction              ....  1.000000
   Density functional embedding theory  .... OFF
 RI-approximation to the Coulomb term is turned on
   Number of auxiliary basis functions  .... 273
   RI-JK (J+K treated both via RI)      .... on


General Settings:
 Integral files         IntName         .... AgH
 Hartree-Fock type      HFTyp           .... RHF
 Total Charge           Charge          ....    0
 Multiplicity           Mult            ....    1
 Number of Electrons    NEL             ....   20
 Basis Dimension        Dim             ....   73
 Nuclear Repulsion      ENuc            ....      6.2140710493 Eh

Convergence Acceleration:
 DIIS                   CNVDIIS         .... on
   Start iteration      DIISMaxIt       ....    12
   Startup error        DIISStart       ....  0.200000
   # of expansion vecs  DIISMaxEq       ....     5
   Bias factor          DIISBfac        ....   1.050
   Max. coefficient     DIISMaxC        ....  10.000
 Newton-Raphson         CNVNR           .... off
 SOSCF                  CNVSOSCF        .... off
 Level Shifting         CNVShift        .... on
   Level shift para.    LevelShift      ....    0.2500
   Turn off err/grad.   ShiftErr        ....    0.0010
 Zerner damping         CNVZerner       .... off
 Static damping         CNVDamp         .... on
   Fraction old density DampFac         ....    0.7000
   Max. Damping (<1)    DampMax         ....    0.9800
   Min. Damping (>=0)   DampMin         ....    0.0000
   Turn off err/grad.   DampErr         ....    0.1000
 Fernandez-Rico         CNVRico         .... off

SCF Procedure:
 Maximum # iterations   MaxIter         ....   125
 SCF integral mode      SCFMode         .... Direct
   Integral package                     .... LIBINT
 Reset frequency        DirectResetFreq ....    20
 Integral Threshold     Thresh          ....  1.000e-10 Eh
 Primitive CutOff       TCut            ....  1.000e-11 Eh

Convergence Tolerance:
 Convergence Check Mode ConvCheckMode   .... Total+1el-Energy
 Convergence forced     ConvForced      .... 0
 Energy Change          TolE            ....  1.000e-06 Eh
 1-El. energy change                    ....  1.000e-03 Eh
 DIIS Error             TolErr          ....  1.000e-06


Diagonalization of the overlap matrix:
Smallest eigenvalue                        ... 3.417e-03
Time for diagonalization                   ...    0.002 sec
Threshold for overlap eigenvalues          ... 1.000e-08
Number of eigenvalues below threshold      ... 0
Time for construction of square roots      ...    0.021 sec
Total time needed                          ...    0.023 sec

-------------------
DFT GRID GENERATION
-------------------

General Integration Accuracy     IntAcc      ...  4.670
Radial Grid Type                 RadialGrid  ... Gauss-Chebyshev
Angular Grid (max. acc.)         AngularGrid ... Lebedev-302
Angular grid pruning method      GridPruning ... 3 (G Style)
Weight generation scheme         WeightScheme... Becke
Basis function cutoff            BFCut       ...    1.0000e-10
Integration weight cutoff        WCut        ...    1.0000e-14
Grids for H and He will be reduced by one unit

# of grid points (after initial pruning)     ...  14052 (   0.0 sec)
# of grid points (after weights+screening)   ...  13996 (   0.0 sec)
nearest neighbour list constructed           ...    0.0 sec
Grid point re-assignment to atoms done       ...    0.0 sec
Grid point division into batches done        ...    0.1 sec
Reduced shell lists constructed in    0.1 sec

Total number of grid points                  ...    13996
Total number of batches                      ...      220
Average number of points per batch           ...       63
Average number of grid points per atom       ...     6998
Average number of shells per batch           ...     1.78 ( 7.73%)
Average number of basis functions per batch  ...     3.56 ( 4.87%)
Average number of large shells per batch     ...     1.67 (93.75%)
Average number of large basis fcns per batch ...     3.44 (96.88%)
Average number of aux-shells per batch       ...     1.78 ( 3.23%)
Average number of aux functions per batch    ...     3.56 ( 1.30%)
Maximum spatial batch extension              ...  40.43, 36.77, 24.61 au
Average spatial batch extension              ...   1.13,  0.98,  0.73 au

Time for grid setup =    0.140 sec

------------------------------
INITIAL GUESS: MODEL POTENTIAL
------------------------------
Loading Hartree-Fock densities                     ... done
  calling /mnt/storage/software/apps/orca-4.2.0/orca_4_2_0_linux_x86-64_openmpi314/orca AgH_atom47.inp > AgH_atom47.out in order to generate an atomic fitting density for atom 0 (Ag with ECP) on-the-fly... 
    atom 0 (Ag), assumed electronic state with S=2: 1s2 2s2 2p6 3s2 3p6 4s2 3d10 4p6 5s2 4d9           ... done
Calculating cut-offs                               ... done
Setting up the integral package                    ... done
Initializing the effective Hamiltonian             ... done
Starting the Coulomb interaction                   ... done (   0.0 sec)
Reading the grid                                   ... done
Mapping shells                                     ... done
Starting the XC term evaluation                    ... done (   0.0 sec)
  promolecular density results
     # of electrons  =     48.000708681
     EX              =   -144.352876485
     EC              =     -0.318304718
     EX+EC           =   -144.671181203
Transforming the Hamiltonian                       ... done (   0.0 sec)
Diagonalizing the Hamiltonian                      ... done (   0.0 sec)
Back transforming the eigenvectors                 ... done (   0.0 sec)
Now organizing SCF variables                       ... done
                      ------------------
                      INITIAL GUESS DONE (   3.3 sec)
                      ------------------
--------------
SCF ITERATIONS
--------------
ITER       Energy         Delta-E        Max-DP      RMS-DP      [F,P]     Damp
  0   -147.0208016346   0.000000000000 0.10498079  0.00278689  0.4834292 0.7000
  1   -146.9074674469   0.113334187688 0.07748294  0.00232721  0.3422379 0.7000
  2   -146.9444747366  -0.037007289695 0.04173516  0.00133113  0.2253543 0.7000
                               ***Turning on DIIS***
  3   -147.0196000968  -0.075125360226 0.02670506  0.00071224  0.1499062 0.7000
  4   -147.0725813372  -0.052981240374 0.02261338  0.00051703  0.1033754 0.7000
  5   -147.1032966716  -0.030715334456 0.09065163  0.00178710  0.0746761 0.0000
  6   -147.0904655496   0.012831122022 0.00959148  0.00041084  0.0241599 0.0000
  7   -147.0914240983  -0.000958548706 0.00324492  0.00014002  0.0068893 0.0000
  8   -147.0915319869  -0.000107888648 0.00217573  0.00008601  0.0039410 0.0000
  9   -147.0915653001  -0.000033313115 0.00268236  0.00006379  0.0006755 0.0000
 10   -147.0915690088  -0.000003708693 0.00031863  0.00001267  0.0001723 0.0000
                 **** Energy Check signals convergence ****

               *****************************************************
               *                     SUCCESS                       *
               *           SCF CONVERGED AFTER  11 CYCLES          *
               *****************************************************


----------------
TOTAL SCF ENERGY
----------------

Total Energy       :         -147.09156923 Eh           -4002.56509 eV

Components:
Nuclear Repulsion  :            6.21407105 Eh             169.09347 eV
Electronic Energy  :         -153.30564028 Eh           -4171.65856 eV
One Electron Energy:         -274.17879063 Eh           -7460.78419 eV
Two Electron Energy:          120.87315035 Eh            3289.12564 eV

Virial components:
Potential Energy   :         -204.05684344 Eh           -5552.66900 eV
Kinetic Energy     :           56.96527421 Eh            1550.10392 eV
Virial Ratio       :            3.58212694


DFT components:
N(Alpha)           :        9.999999046335 electrons
N(Beta)            :        9.999999046335 electrons
N(Total)           :       19.999998092670 electrons
E(X)               :       -3.985361984918 Eh       
E(C)               :       -0.398508379743 Eh       
E(XC)              :       -4.383870364661 Eh       
DFET-embed. en.    :        0.000000000000 Eh       

---------------
SCF CONVERGENCE
---------------

  Last Energy change         ...   -2.2415e-07  Tolerance :   1.0000e-06
  Last MAX-Density change    ...    9.5498e-05  Tolerance :   1.0000e-05
  Last RMS-Density change    ...    5.0679e-06  Tolerance :   1.0000e-06
  Last DIIS Error            ...    7.3280e-05  Tolerance :   1.0000e-06

             **** THE GBW FILE WAS UPDATED (AgH.gbw) ****
             **** DENSITY FILE WAS UPDATED (AgH.scfp) ****
             **** ENERGY FILE WAS UPDATED (AgH.en.tmp) ****
             **** THE GBW FILE WAS UPDATED (AgH.gbw) ****
             **** DENSITY FILE WAS UPDATED (AgH.scfp) ****
----------------
ORBITAL ENERGIES
----------------

  NO   OCC          E(Eh)            E(eV) 
   0   2.0000      -4.133372      -112.4748 
   1   2.0000      -2.638948       -71.8094 
   2   2.0000      -2.633604       -71.6640 
   3   2.0000      -2.633604       -71.6640 
   4   2.0000      -0.493364       -13.4251 
   5   2.0000      -0.461127       -12.5479 
   6   2.0000      -0.461127       -12.5479 
   7   2.0000      -0.455869       -12.4048 
   8   2.0000      -0.455869       -12.4048 
   9   2.0000      -0.300728        -8.1832 
  10   0.0000      -0.023056        -0.6274 
  11   0.0000       0.038071         1.0360 
  12   0.0000       0.038071         1.0360 
  13   0.0000       0.111742         3.0407 
  14   0.0000       0.154241         4.1971 
  15   0.0000       0.232249         6.3198 
  16   0.0000       0.232249         6.3198 
  17   0.0000       0.238410         6.4875 
  18   0.0000       0.290960         7.9174 
  19   0.0000       0.290960         7.9174 
  20   0.0000       0.468479        12.7480 
  21   0.0000       0.498453        13.5636 
  22   0.0000       0.498453        13.5636 
  23   0.0000       0.535086        14.5604 
  24   0.0000       0.604211        16.4414 
  25   0.0000       0.604211        16.4414 
  26   0.0000       0.687620        18.7111 
  27   0.0000       0.991683        26.9851 
  28   0.0000       0.991683        26.9851 
  29   0.0000       1.200639        32.6710 
  30   0.0000       1.766770        48.0763 
  31   0.0000       1.766772        48.0763 
  32   0.0000       1.776591        48.3435 
  33   0.0000       1.776591        48.3435 
  34   0.0000       1.796928        48.8969 
  35   0.0000       1.796928        48.8969 
  36   0.0000       1.846459        50.2447 
  37   0.0000       1.846459        50.2447 
  38   0.0000       1.868140        50.8347 
  39   0.0000       2.053613        55.8817 
  40   0.0000       2.250048        61.2269 
  41   0.0000       2.259441        61.4825 
  42   0.0000       2.259443        61.4826 
  43   0.0000       2.320573        63.1460 
  44   0.0000       2.320573        63.1460 
  45   0.0000       2.454293        66.7847 
  46   0.0000       2.859671        77.8156 
  47   0.0000       3.432563        93.4048 
  48   0.0000       3.432597        93.4057 
  49   0.0000       3.671806        99.9149 
  50   0.0000       3.671806        99.9149 
  51   0.0000       4.093859       111.3996 
  52   0.0000       4.093859       111.3996 
  53   0.0000       4.160730       113.2192 
  54   0.0000       4.762762       129.6013 
  55   0.0000       5.199137       141.4757 
  56   0.0000       5.199137       141.4757 
  57   0.0000       5.210462       141.7839 
  58   0.0000       5.210464       141.7839 
  59   0.0000       5.373814       146.2289 
  60   0.0000       5.373814       146.2289 
  61   0.0000       5.564941       151.4297 
  62   0.0000       5.892346       160.3389 
  63   0.0000       5.892346       160.3389 
  64   0.0000       5.894947       160.4097 
  65   0.0000       5.894949       160.4097 
  66   0.0000       5.895259       160.4181 
  67   0.0000       5.895268       160.4184 
  68   0.0000       6.021064       163.8415 
  69   0.0000       6.021064       163.8415 
  70   0.0000       6.460196       175.7909 
  71   0.0000      33.831069       920.5902 
  72   0.0000     109.968828      2992.4040 

                    ********************************
                    * MULLIKEN POPULATION ANALYSIS *
                    ********************************

-----------------------
MULLIKEN ATOMIC CHARGES
-----------------------
   0 Ag:    0.125953
   1 H :   -0.125953
Sum of atomic charges:   -0.0000000

--------------------------------
MULLIKEN REDUCED ORBITAL CHARGES
--------------------------------
  0 Ags       :     2.843318  s :     2.843318
      pz      :     2.124065  p :     6.125035
      px      :     2.000485
      py      :     2.000485
      dz2     :     1.913769  d :     9.903664
      dxz     :     1.995098
      dyz     :     1.995098
      dx2y2   :     1.999850
      dxy     :     1.999850
      f0      :     0.001493  f :     0.001991
      f+1     :     0.000123
      f-1     :     0.000123
      f+2     :     0.000126
      f-2     :     0.000126
      f+3     :     0.000000
      f-3     :     0.000000
      g0      :     0.000033  g :     0.000038
      g+1     :     0.000002
      g-1     :     0.000002
      g+2     :     0.000000
      g-2     :     0.000000
      g+3     :     0.000000
      g-3     :     0.000000
      g+4     :     0.000000
      g-4     :     0.000000
  1 H s       :     1.118371  s :     1.118371
      pz      :    -0.001722  p :     0.005995
      px      :     0.003859
      py      :     0.003859
      dz2     :     0.000672  d :     0.001587
      dxz     :     0.000434
      dyz     :     0.000434
      dx2y2   :     0.000023
      dxy     :     0.000023


                     *******************************
                     * LOEWDIN POPULATION ANALYSIS *
                     *******************************

----------------------
LOEWDIN ATOMIC CHARGES
----------------------
   0 Ag:    0.321896
   1 H :   -0.321896

-------------------------------
LOEWDIN REDUCED ORBITAL CHARGES
-------------------------------
  0 Ags       :     2.690269  s :     2.690269
      pz      :     2.126879  p :     6.124745
      px      :     1.998933
      py      :     1.998933
      dz2     :     1.911616  d :     9.859155
      dxz     :     1.974102
      dyz     :     1.974102
      dx2y2   :     1.999668
      dxy     :     1.999668
      f0      :     0.003043  f :     0.003883
      f+1     :     0.000292
      f-1     :     0.000292
      f+2     :     0.000129
      f-2     :     0.000129
      f+3     :     0.000000
      f-3     :     0.000000
      g0      :     0.000051  g :     0.000052
      g+1     :     0.000000
      g-1     :     0.000000
      g+2     :     0.000000
      g-2     :     0.000000
      g+3     :     0.000000
      g-3     :     0.000000
      g+4     :     0.000000
      g-4     :     0.000000
  1 H s       :     1.157416  s :     1.157416
      pz      :     0.100499  p :     0.145638
      px      :     0.022569
      py      :     0.022569
      dz2     :     0.010227  d :     0.018843
      dxz     :     0.004104
      dyz     :     0.004104
      dx2y2   :     0.000203
      dxy     :     0.000203


                      *****************************
                      * MAYER POPULATION ANALYSIS *
                      *****************************

  NA   - Mulliken gross atomic population
  ZA   - Total nuclear charge
  QA   - Mulliken gross atomic charge
  VA   - Mayer's total valence
  BVA  - Mayer's bonded valence
  FA   - Mayer's free valence

  ATOM       NA         ZA         QA         VA         BVA        FA
  0 Ag    18.8740    19.0000     0.1260     1.0437     1.0437    -0.0000
  1 H      1.1260     1.0000    -0.1260     1.0437     1.0437    -0.0000

  Mayer bond orders larger than 0.100000
B(  0-Ag,  1-H ) :   1.0437 

-------
TIMINGS
-------

Total SCF time: 0 days 0 hours 0 min 16 sec 

Total time                  ....      16.722 sec
Sum of individual times     ....      16.384 sec  ( 98.0%)

Fock matrix formation       ....      12.789 sec  ( 76.5%)
  XC integration            ....      10.978 sec  ( 85.8% of F)
    Basis function eval.    ....       0.008 sec  (  0.1% of XC)
    Density eval.           ....       0.007 sec  (  0.1% of XC)
    XC-Functional eval.     ....       0.013 sec  (  0.1% of XC)
    XC-Potential eval.      ....       0.007 sec  (  0.1% of XC)
Diagonalization             ....       0.122 sec  (  0.7%)
Density matrix formation    ....       0.003 sec  (  0.0%)
Population analysis         ....       0.017 sec  (  0.1%)
Initial guess               ....       3.179 sec  ( 19.0%)
Orbital Transformation      ....       0.000 sec  (  0.0%)
Orbital Orthonormalization  ....       0.000 sec  (  0.0%)
DIIS solution               ....       0.134 sec  (  0.8%)
Grid generation             ....       0.140 sec  (  0.8%)


           ************************************************************
           *        Program running with 28 parallel MPI-processes    *
           *              working on a common directory               *
           ************************************************************

------------------------------------------------------------------------------
                                ORCA  MP2 
------------------------------------------------------------------------------

Freezing NCore=0 chemical core electrons

-------------
RI-MP2 ENERGY
-------------
Dimension of the basis                    ...   73
Memory devoted to MP2                     ... 5000 MB   
Data format for buffers                   ... DOUBLE
Compression type for matrix containers    ... UNCOMPRESSED
Scaling for aa/bb pairs                   ...   4.000e-01
Scaling for ab pairs                      ...   4.700e-01
Overall scaling of the MP2 energy         ...   1.000e+00
Calculating two index integrals           ... done (    0.004 sec)
Cholesky decomposition of V**-1           ... done (    0.014 sec)

-----------------
RI-TRANSFORMATION (AUX index driven)
-----------------

Dimension of the orbital-basis         ... 73
Dimension of the aux-basis             ... 215
Transformation of internal/external MOs...    0-   9 to   10-  72
Number Format for Storage              ... Double (8 Byte)
Integral mode                          ... Direct

First Phase: integral generation and transformation of MO indices
  Aux angular momentum 0               ... done (    0.000 sec)
  Aux angular momentum 1               ... done (    0.002 sec)
  Aux angular momentum 2               ... done (    0.000 sec)
  Aux angular momentum 3               ... done (    0.001 sec)
  Aux angular momentum 4               ... done (    0.001 sec)
  Aux angular momentum 5               ... done (    0.002 sec)
  Aux angular momentum 6               ... done (    0.003 sec)
Closing buffer VIA ( 0.00 GB; CompressionRatio= 1.00)
  Phase 1 completed in     0.221 sec
Second Phase: sorting and transformation of aux index

IA-Transformation
Memory available                       ... 5000 MB 
Max. # MO pairs treated in a batch     ... 1    
# of internal orbitals                 ... 10
# batches for internal orbitals        ... 1
Closing buffer IAV ( 0.00 GB; CompressionRatio= 1.00)
(ia|v) transformation done in     0.021 sec

  Phase 2 completed in     0.146 sec
RI-Integral transformation completed in     0.418 sec
Opening buffers                              ... done

Starting loop over batches of integrals:

Operator 0  - window                       ... (  0-  9)x( 10- 72)
Operator 0  - Memory available             ...  5000 MB
Operator 0  - Memory needed per MO         ...   0.1 MB
Operator 0  - Number of orbitals per batch ... 1
Operator 0  - Number of batches            ... 1

OPERATOR  0   PASS   0:  MOs     0 ...    0 +    1 ...    1 +    2 ...    2 +    3 ...    3
                            +    4 ...    4 +    5 ...    5 +    6 ...    6 +    7 ...    7
                            +    8 ...    8 +    9 ...    9
  Reading integrals       ... ok
Time spent in pair loops =     0.001 sec

-----------------------------------------------
 RI-MP2 CORRELATION ENERGY:     -0.339293964 Eh
-----------------------------------------------


-------
TIMINGS
-------

Total time                :    0.482 sec
Integral trafo            :    0.438 sec ( 90.9%)
I/O of integrals          :    0.000 sec (  0.0%)
K(i,j) Operators          :    0.000 sec (  0.0%)
T(i,j) pair energies      :    0.000 sec (  0.0%)
V-calculation             :    0.004 sec (  0.7%)
V**(-1/2)                 :    0.014 sec (  2.9%)
Gamma(ia|P)               :    0.000 sec (  0.0%)
Gamma-Trafo               :    0.000 sec (  0.0%)
D(virtual)                :    0.000 sec (  0.0%)
D(internal)               :    0.000 sec (  0.0%)
W(virtual)                :    0.000 sec (  0.0%)
W(internal)               :    0.000 sec (  0.0%)
L(virtual)                :    0.000 sec (  0.0%)
L(internal)               :    0.000 sec (  0.0%)
G(D)                      :    0.000 sec (  0.0%)
G(Z)                      :    0.000 sec (  0.0%)
Z-Vector Solution         :    0.000 sec (  0.0%)
Z-Vector Solution         :    0.000 sec (  0.0%)
3-Index Derivative 
+ Separable RIJ part      :    0.000 sec (  0.0%)
2-Index Derivative 
+ Separable RIJ part      :    0.000 sec (  0.0%)
Separable Gradient (X)    :    0.000 sec (  0.0%)


---------------------------------------
MP2 TOTAL ENERGY:     -147.430863197 Eh
---------------------------------------


-------------------------------------------------------------------------------
                          DFT DISPERSION CORRECTION                            
                                                                               
                              DFTD3 V3.1  Rev 1                                
                          USING Becke-Johnson damping                          
-------------------------------------------------------------------------------
The DSD-BLYP/2013 functional is recognized
Active option DFTDOPT                   ...         4   

molecular C6(AA) [au] = 331.684380 


            DFT-D V3
 parameters
 s6 scaling factor         :     0.5700 
 a1 scaling factor         :     0.0000 
 s8 scaling factor         :     0.0000 
 a2 scaling factor         :     5.4000 
 ad hoc parameters k1-k3   :    16.0000     1.3333    -4.0000 

 Edisp/kcal,au: -0.397712430642  -0.000633795034 
 E6   /kcal   :  -0.397712431 
 E8   /kcal   :  -0.000000000 
 % E8         :   0.000000000 

-------------------------   ----------------
Dispersion correction           -0.000633795
-------------------------   ----------------


-------------------------   --------------------
FINAL SINGLE POINT ENERGY      -147.431496992283
-------------------------   --------------------


                            ***************************************
                            *     ORCA property calculations      *
                            ***************************************


  WARNING: The energy has been calculated at the MP2 level but the densities
           used in the property calculations are still SCF densities
           MP2 response densities have not been calculated 
           use %mp2 Density relaxed end
           or  %mp2 Density unrelaxed end

                                    ---------------------
                                    Active property flags
                                    ---------------------
   (+) Dipole Moment


------------------------------------------------------------------------------
                       ORCA ELECTRIC PROPERTIES CALCULATION
------------------------------------------------------------------------------

Dipole Moment Calculation                       ... on
Quadrupole Moment Calculation                   ... off
Polarizability Calculation                      ... off
GBWName                                         ... AgH.gbw
Electron density file                           ... AgH.scfp
The origin for moment calculation is the CENTER OF MASS  = ( 0.000000,  0.000000  0.028307)

-------------
DIPOLE MOMENT
-------------
                                X             Y             Z
Electronic contribution:      0.00000      -0.00000      -3.93813
Nuclear contribution   :      0.00000       0.00000       2.49143
                        -----------------------------------------
Total Dipole Moment    :      0.00000      -0.00000      -1.44670
                        -----------------------------------------
Magnitude (a.u.)       :      1.44670
Magnitude (Debye)      :      3.67722



--------------------
Rotational spectrum 
--------------------
 
Rotational constants in cm-1:     0.000000     6.447907     6.447907 
Rotational constants in MHz :     0.000000 193303.400141 193303.400141 

 Dipole components along the rotational axes: 
x,y,z [a.u.] :    -1.446699    -0.000000     0.000000 
x,y,z [Debye]:    -3.677217    -0.000000     0.000000 

 

Timings for individual modules:

Sum of individual times         ...       19.197 sec (=   0.320 min)
GTO integral calculation        ...        0.827 sec (=   0.014 min)   4.3 %
SCF iterations                  ...       17.241 sec (=   0.287 min)  89.8 %
MP2 module                      ...        1.129 sec (=   0.019 min)   5.9 %
                             ****ORCA TERMINATED NORMALLY****
TOTAL RUN TIME: 0 days 0 hours 0 minutes 22 seconds 55 msec
