
                                 *****************
                                 * O   R   C   A *
                                 *****************

           --- An Ab Initio, DFT and Semiempirical electronic structure package ---

                  #######################################################
                  #                        -***-                        #
                  #          Department of theory and spectroscopy      #
                  #               Directorship: Frank Neese             #
                  #        Max Planck Institute fuer Kohlenforschung    #
                  #                Kaiser Wilhelm Platz 1               #
                  #                 D-45470 Muelheim/Ruhr               #
                  #                      Germany                        #
                  #                                                     #
                  #                  All rights reserved                #
                  #                        -***-                        #
                  #######################################################


                         Program Version 4.2.0 -  RELEASE  -


 With contributions from (in alphabetic order):
   Daniel Aravena         : Magnetic Suceptibility
   Michael Atanasov       : Ab Initio Ligand Field Theory (pilot matlab implementation)
   Alexander A. Auer      : GIAO ZORA, VPT2
   Ute Becker             : Parallelization
   Giovanni Bistoni       : ED, misc. LED, open-shell LED, HFLED
   Martin Brehm           : Molecular dynamics
   Dmytro Bykov           : SCF Hessian
   Vijay G. Chilkuri      : MRCI spin determinant printing, contributions to CSF-ICE
   Dipayan Datta          : RHF DLPNO-CCSD density
   Achintya Kumar Dutta   : EOM-CC, STEOM-CC
   Dmitry Ganyushin       : Spin-Orbit,Spin-Spin,Magnetic field MRCI
   Miquel Garcia          : C-PCM Hessian, Gaussian charge scheme
   Yang Guo               : DLPNO-NEVPT2, CIM, IAO-localization
   Andreas Hansen         : Spin unrestricted coupled pair/coupled cluster methods
   Benjamin Helmich-Paris : CASSCF linear response (MC-RPA)
   Lee Huntington         : MR-EOM, pCC
   Robert Izsak           : Overlap fitted RIJCOSX, COSX-SCS-MP3, EOM
   Christian Kollmar      : KDIIS, OOCD, Brueckner-CCSD(T), CCSD density
   Simone Kossmann        : Meta GGA functionals, TD-DFT gradient, OOMP2, MP2 Hessian
   Martin Krupicka        : AUTO-CI
   Lucas Lang             : DCDCAS
   Dagmar Lenk            : GEPOL surface, SMD
   Dimitrios Liakos       : Extrapolation schemes; Compound Job, initial MDCI parallelization
   Dimitrios Manganas     : Further ROCIS development; embedding schemes
   Dimitrios Pantazis     : SARC Basis sets
   Taras Petrenko         : DFT Hessian,TD-DFT gradient, ASA, ECA, R-Raman, ABS, FL, XAS/XES, NRVS
   Peter Pinski           : DLPNO-MP2, DLPNO-MP2 Gradient
   Christoph Reimann      : Effective Core Potentials
   Marius Retegan         : Local ZFS, SOC
   Christoph Riplinger    : Optimizer, TS searches, QM/MM, DLPNO-CCSD(T), (RO)-DLPNO pert. Triples
   Tobias Risthaus        : Range-separated hybrids, TD-DFT gradient, RPA, STAB
   Michael Roemelt        : Original ROCIS implementation
   Masaaki Saitow         : Open-shell DLPNO-CCSD energy and density
   Barbara Sandhoefer     : DKH picture change effects
   Avijit Sen             : IP-ROCIS
   Kantharuban Sivalingam : CASSCF convergence, NEVPT2, FIC-MRCI
   Bernardo de Souza      : ESD, SOC TD-DFT
   Georgi Stoychev        : AutoAux, RI-MP2 NMR
   Willem Van den Heuvel  : Paramagnetic NMR
   Boris Wezisla          : Elementary symmetry handling
   Frank Wennmohs         : Technical directorship


 We gratefully acknowledge several colleagues who have allowed us to
 interface, adapt or use parts of their codes:
   Stefan Grimme, W. Hujo, H. Kruse,             : VdW corrections, initial TS optimization,
                  C. Bannwarth                     DFT functionals, gCP, sTDA/sTD-DF
   Ed Valeev, F. Pavosevic, A. Kumar             : LibInt (2-el integral package), F12 methods
   Garnet Chan, S. Sharma, J. Yang, R. Olivares  : DMRG
   Ulf Ekstrom                                   : XCFun DFT Library
   Mihaly Kallay                                 : mrcc  (arbitrary order and MRCC methods)
   Andreas Klamt, Michael Diedenhofen            : otool_cosmo (COSMO solvation model)
   Jiri Pittner, Ondrej Demel                    : Mk-CCSD
   Frank Weinhold                                : gennbo (NPA and NBO analysis)
   Christopher J. Cramer and Donald G. Truhlar   : smd solvation model
   Lars Goerigk                                  : TD-DFT with DH, B97 family of functionals
   V. Asgeirsson, H. Jonsson                     : NEB implementation
   FAccTs GmbH                                   : IRC, NEB, NEB-TS, Multilevel, MM, QM/MM, CI optimization
   S Lehtola, MJT Oliveira, MAL Marques          : LibXC Library


 Your calculation uses the libint2 library for the computation of 2-el integrals
 For citations please refer to: http://libint.valeyev.net

 Your ORCA version has been built with support for libXC version: 4.2.3
 For citations please refer to: https://tddft.org/programs/libxc/

 This ORCA versions uses:
   CBLAS   interface :  Fast vector & matrix operations
   LAPACKE interface :  Fast linear algebra routines
   SCALAPACK package :  Parallel linear algebra routines


Your calculation utilizes the atom-pairwise dispersion correction
with the Becke-Johnson damping scheme (D3BJ)
Cite in your paper:
S.Grimme, S.Ehrlich, L.Goerigk, J Comput Chem, (2011), 32, 1456–1465 
S.Grimme, J.Antony, S.Ehrlich and H.Krieg, J.Chem.Phys., 132, (2010), 154104 
   

----- Orbital basis set information -----
Your calculation utilizes the basis: def2-TZVPPD
   F. Weigend and R. Ahlrichs, Phys. Chem. Chem. Phys. 7, 3297 (2005).
   D. Rappoport and F. Furche, J. Chem. Phys. 133 134105 (2010).

----- AuxC basis set information -----
Your calculation utilizes the auxiliary basis: def2-TZVPPD/C
   A. Hellweg, C. Hattig, S. Hofener and W. Klopper, Theor. Chem. Acc. 117, 587 (2007).

----- AuxJK basis set information -----
Your calculation utilizes the auxiliary basis: def2/JK
   H-Ba, Hf-Rn: F. Weigend, J. Comput. Chem. 29, 167 (2008).

================================================================================
                                        WARNINGS
                       Please study these warnings very carefully!
================================================================================


WARNING: your system is open-shell and RHF/RKS was chosen
  ===> : WILL SWITCH to UHF/UKS


WARNING: No MP2 level density has been requested!
         To caclulate MP2 level properties use
         %mp2 Density relaxed end
         or
         %mp2 Density unrelaxed end
         Otherwise for double-hybrid DFT only the energy is correct!

WARNING: There are different parametrizations of Gershom Martin's DSD-DFs
         for use with and without D3(BJ)!
         You are using the D3(BJ) parametrized version,
         consistent with the 2013 article (S. Kozuch and J. M. L. Martin, JCC 2013, 34, 2327)

WARNING: The frozen-core approximation is turned on by default for 
         the MP2 part of double-hybrid DFT.

INFO   : the flag for use of LIBINT has been found!

================================================================================
                                       INPUT FILE
================================================================================
NAME = CoH.in
|  1> #
|  2> # CoH ri-DSD-BLYP/2013-D3BJ/Def2-TZVPPD
|  3> #
|  4> ! rijk ri-dsd-blyp/2013 d3bj def2-tzvppd def2/jk def2-tzvppd/c grid4 nofinalgrid
|  5> 
|  6> *xyz 0 3
|  7> Co         0.00000        0.00000        0.00000
|  8> H          0.00000        0.00000        1.53100
|  9> *
| 10> 
| 11> %maxcore 5000
| 12> 
| 13> %pal
| 14> nprocs = 28
| 15> end
| 16> 
| 17> 
| 18>                          ****END OF INPUT****
================================================================================

                       ****************************
                       * Single Point Calculation *
                       ****************************

---------------------------------
CARTESIAN COORDINATES (ANGSTROEM)
---------------------------------
  Co     0.000000    0.000000    0.000000
  H      0.000000    0.000000    1.531000

----------------------------
CARTESIAN COORDINATES (A.U.)
----------------------------
  NO LB      ZA    FRAG     MASS         X           Y           Z
   0 Co   27.0000    0    58.930    0.000000    0.000000    0.000000
   1 H     1.0000    0     1.008    0.000000    0.000000    2.893171

--------------------------------
INTERNAL COORDINATES (ANGSTROEM)
--------------------------------
 Co     0   0   0     0.000000000000     0.00000000     0.00000000
 H      1   0   0     1.531000000000     0.00000000     0.00000000

---------------------------
INTERNAL COORDINATES (A.U.)
---------------------------
 Co     0   0   0     0.000000000000     0.00000000     0.00000000
 H      1   0   0     2.893170711033     0.00000000     0.00000000

---------------------
BASIS SET INFORMATION
---------------------
There are 2 groups of distinct atoms

 Group   1 Type Co  : 17s13p7d2f1g contracted to 6s6p4d2f1g pattern {842111/631111/4111/11/1}
 Group   2 Type H   : 5s3p1d contracted to 3s3p1d pattern {311/111/1}

Atom   0Co   basis set group =>   1
Atom   1H    basis set group =>   2
---------------------------------
AUXILIARY/C BASIS SET INFORMATION
---------------------------------
There are 2 groups of distinct atoms

 Group   1 Type Co  : 10s10p9d7f5g3h1i contracted to 10s10p9d7f5g3h1i pattern {1111111111/1111111111/111111111/1111111/11111/111/1}
 Group   2 Type H   : 5s4p3d1f contracted to 5s4p3d1f pattern {11111/1111/111/1}

Atom   0Co   basis set group =>   1
Atom   1H    basis set group =>   2
----------------------------------
AUXILIARY/JK BASIS SET INFORMATION
----------------------------------
There are 2 groups of distinct atoms

 Group   1 Type Co  : 19s14p12d10f7g3h1i contracted to 16s13p11d9f5g3h1i pattern {4111111111111111/2111111111111/21111111111/211111111/31111/111/1}
 Group   2 Type H   : 4s2p2d contracted to 2s2p2d pattern {31/11/11}

Atom   0Co   basis set group =>   1
Atom   1H    basis set group =>   2


           ************************************************************
           *        Program running with 28 parallel MPI-processes    *
           *              working on a common directory               *
           ************************************************************
------------------------------------------------------------------------------
                           ORCA GTO INTEGRAL CALCULATION
                           -- RI-GTO INTEGRALS CHOSEN --
------------------------------------------------------------------------------

                         BASIS SET STATISTICS AND STARTUP INFO

Gaussian basis set:
 # of primitive gaussian shells          ...   49
 # of primitive gaussian functions       ...  133
 # of contracted shells                  ...   26
 # of contracted basis functions         ...   84
 Highest angular momentum                ...    4
 Maximum contraction depth               ...    8
Auxiliary gaussian basis set:
 # of primitive gaussian shells          ...   74
 # of primitive gaussian functions       ...  320
 # of contracted shells                  ...   64
 # of contracted aux-basis functions     ...  282
 Highest angular momentum                ...    6
 Maximum contraction depth               ...    4
Ratio of auxiliary to basis functions    ...  3.36
Integral package used                  ... LIBINT
 One Electron integrals                  ... done
 Ordering auxiliary basis shells         ... done
 Integral threshhold             Thresh  ...  1.000e-10
 Primitive cut-off               TCut    ...  1.000e-11
 Pre-screening matrix                    ... done
 Shell pair data                         ... 
 Ordering of the shell pairs             ... done (   0.000 sec) 351 of 351 pairs
 Determination of significant pairs      ... done (   0.000 sec)
 Creation of shell pair data             ... done (   0.000 sec)
 Storage of shell pair data              ... done (   0.006 sec)
 Shell pair data done in (   0.006 sec)
 Computing two index integrals           ... done
 Cholesky decomposition of the V-matrix  ... done


Timings:
 Total evaluation time                   ...   0.252 sec (  0.004 min)
 One electron matrix time                ...   0.045 sec (  0.001 min) = 17.9%
 Schwartz matrix evaluation time         ...   0.119 sec (  0.002 min) = 47.3%
 Two index repulsion integral time       ...   0.033 sec (  0.001 min) = 13.2%
 Cholesky decomposition of V             ...   0.021 sec (  0.000 min) =  8.4%
 Three index repulsion integral time     ...   0.000 sec (  0.000 min) =  0.0%



           ************************************************************
           *        Program running with 28 parallel MPI-processes    *
           *              working on a common directory               *
           ************************************************************
-------------------------------------------------------------------------------
                                 ORCA SCF
-------------------------------------------------------------------------------

------------
SCF SETTINGS
------------
Hamiltonian:
 Density Functional     Method          .... DFT(GTOs)
 Exchange Functional    Exchange        .... B88
   X-Alpha parameter    XAlpha          ....  0.666667
   Becke's b parameter  XBeta           ....  0.004200
 Correlation Functional Correlation     .... LYP
 LDA part of GGA corr.  LDAOpt          .... VWN-5
 Gradients option       PostSCFGGA      .... off
 Hybrid DFT is turned on
   Fraction HF Exchange ScalHFX         ....  0.710000
   Scaling of DF-GGA-X  ScalDFX         ....  0.290000
   Scaling of DF-GGA-C  ScalDFC         ....  0.540000
   Scaling of DF-LDA-C  ScalLDAC        ....  0.540000
   Perturbative correction              ....  1.000000
   Density functional embedding theory  .... OFF
 RI-approximation to the Coulomb term is turned on
   Number of auxiliary basis functions  .... 282
   RI-JK (J+K treated both via RI)      .... on


General Settings:
 Integral files         IntName         .... CoH
 Hartree-Fock type      HFTyp           .... UHF
 Total Charge           Charge          ....    0
 Multiplicity           Mult            ....    3
 Number of Electrons    NEL             ....   28
 Basis Dimension        Dim             ....   84
 Nuclear Repulsion      ENuc            ....      9.3323217662 Eh

Convergence Acceleration:
 DIIS                   CNVDIIS         .... on
   Start iteration      DIISMaxIt       ....    12
   Startup error        DIISStart       ....  0.200000
   # of expansion vecs  DIISMaxEq       ....     5
   Bias factor          DIISBfac        ....   1.050
   Max. coefficient     DIISMaxC        ....  10.000
 Newton-Raphson         CNVNR           .... off
 SOSCF                  CNVSOSCF        .... off
 Level Shifting         CNVShift        .... on
   Level shift para.    LevelShift      ....    0.2500
   Turn off err/grad.   ShiftErr        ....    0.0010
 Zerner damping         CNVZerner       .... off
 Static damping         CNVDamp         .... on
   Fraction old density DampFac         ....    0.7000
   Max. Damping (<1)    DampMax         ....    0.9800
   Min. Damping (>=0)   DampMin         ....    0.0000
   Turn off err/grad.   DampErr         ....    0.1000
 Fernandez-Rico         CNVRico         .... off

SCF Procedure:
 Maximum # iterations   MaxIter         ....   125
 SCF integral mode      SCFMode         .... Direct
   Integral package                     .... LIBINT
 Reset frequency        DirectResetFreq ....    20
 Integral Threshold     Thresh          ....  1.000e-10 Eh
 Primitive CutOff       TCut            ....  1.000e-11 Eh

Convergence Tolerance:
 Convergence Check Mode ConvCheckMode   .... Total+1el-Energy
 Convergence forced     ConvForced      .... 0
 Energy Change          TolE            ....  1.000e-06 Eh
 1-El. energy change                    ....  1.000e-03 Eh
 DIIS Error             TolErr          ....  1.000e-06


Diagonalization of the overlap matrix:
Smallest eigenvalue                        ... 3.034e-03
Time for diagonalization                   ...    0.002 sec
Threshold for overlap eigenvalues          ... 1.000e-08
Number of eigenvalues below threshold      ... 0
Time for construction of square roots      ...    0.037 sec
Total time needed                          ...    0.039 sec

-------------------
DFT GRID GENERATION
-------------------

General Integration Accuracy     IntAcc      ...  4.670
Radial Grid Type                 RadialGrid  ... Gauss-Chebyshev
Angular Grid (max. acc.)         AngularGrid ... Lebedev-302
Angular grid pruning method      GridPruning ... 3 (G Style)
Weight generation scheme         WeightScheme... Becke
Basis function cutoff            BFCut       ...    1.0000e-10
Integration weight cutoff        WCut        ...    1.0000e-14
Grids for H and He will be reduced by one unit

# of grid points (after initial pruning)     ...  13034 (   0.0 sec)
# of grid points (after weights+screening)   ...  12998 (   0.0 sec)
nearest neighbour list constructed           ...    0.0 sec
Grid point re-assignment to atoms done       ...    0.0 sec
Grid point division into batches done        ...    0.1 sec
Reduced shell lists constructed in    0.1 sec

Total number of grid points                  ...    12998
Total number of batches                      ...      204
Average number of points per batch           ...       63
Average number of grid points per atom       ...     6499
Average number of shells per batch           ...     5.22 (20.09%)
Average number of basis functions per batch  ...    13.89 (16.53%)
Average number of large shells per batch     ...     2.44 (46.81%)
Average number of large basis fcns per batch ...     6.22 (44.80%)
Average number of aux-shells per batch       ...     5.22 ( 8.16%)
Average number of aux functions per batch    ...    13.89 ( 4.93%)
Maximum spatial batch extension              ...  31.41, 28.57, 18.66 au
Average spatial batch extension              ...   0.94,  0.82,  0.62 au

Time for grid setup =    0.464 sec

------------------------------
INITIAL GUESS: MODEL POTENTIAL
------------------------------
Loading Hartree-Fock densities                     ... done
Calculating cut-offs                               ... done
Setting up the integral package                    ... done
Initializing the effective Hamiltonian             ... done
Starting the Coulomb interaction                   ... done (   0.0 sec)
Reading the grid                                   ... done
Mapping shells                                     ... done
Starting the XC term evaluation                    ... done (   0.0 sec)
  promolecular density results
     # of electrons  =     27.999537490
     EX              =    -58.293990362
     EC              =     -0.177839478
     EX+EC           =    -58.471829841
Transforming the Hamiltonian                       ... done (   0.0 sec)
Diagonalizing the Hamiltonian                      ... done (   0.0 sec)
Back transforming the eigenvectors                 ... done (   0.0 sec)
Now organizing SCF variables                       ... done
                      ------------------
                      INITIAL GUESS DONE (   0.6 sec)
                      ------------------
--------------
SCF ITERATIONS
--------------
ITER       Energy         Delta-E        Max-DP      RMS-DP      [F,P]     Damp
  0  -1382.5415106465   0.000000000000 0.03056876  0.00080731  0.1894674 0.7000
  1  -1382.3757072203   0.165803426128 0.02575335  0.00069177  0.1214507 0.7000
                               ***Turning on DIIS***
  2  -1382.4456295565  -0.069922336188 0.04772634  0.00147195  0.0917859 0.0000
  3  -1382.6181171799  -0.172487623373 0.01808799  0.00061384  0.0822829 0.0000
  4  -1382.6257864946  -0.007669314668 0.00782094  0.00028969  0.0418674 0.0000
  5  -1382.6284152355  -0.002628740913 0.00525698  0.00015952  0.0109260 0.0000
  6  -1382.6292075087  -0.000792273185 0.00433014  0.00010939  0.0065718 0.0000
  7  -1382.6295512997  -0.000343791072 0.00441029  0.00009526  0.0040748 0.0000
  8  -1382.6297305658  -0.000179266084 0.00262641  0.00005558  0.0021250 0.0000
  9  -1382.6297933792  -0.000062813345 0.00212174  0.00004329  0.0011904 0.0000
 10  -1382.6298240415  -0.000030662325 0.00212959  0.00004989  0.0007281 0.0000
 11  -1382.6298420042  -0.000017962737 0.00082965  0.00001840  0.0002274 0.0000
 12  -1382.6298437220  -0.000001717723 0.00004702  0.00000156  0.0000978 0.0000
 13  -1382.6298437675  -0.000000045573 0.00008240  0.00000184  0.0000829 0.0000
                 **** Energy Check signals convergence ****

               *****************************************************
               *                     SUCCESS                       *
               *           SCF CONVERGED AFTER  14 CYCLES          *
               *****************************************************


----------------
TOTAL SCF ENERGY
----------------

Total Energy       :        -1382.62984379 Eh          -37623.27078 eV

Components:
Nuclear Repulsion  :            9.33232177 Eh             253.94539 eV
Electronic Energy  :        -1391.96216556 Eh          -37877.21617 eV
One Electron Energy:        -1937.89759087 Eh          -52732.87434 eV
Two Electron Energy:          545.93542531 Eh           14855.65817 eV

Virial components:
Potential Energy   :        -2764.15165868 Eh          -75216.39056 eV
Kinetic Energy     :         1381.52181489 Eh           37593.11978 eV
Virial Ratio       :            2.00080204


DFT components:
N(Alpha)           :       14.999999178027 electrons
N(Beta)            :       12.999999723739 electrons
N(Total)           :       27.999998901766 electrons
E(X)               :      -17.005365839488 Eh       
E(C)               :       -0.684952612368 Eh       
E(XC)              :      -17.690318451856 Eh       
DFET-embed. en.    :        0.000000000000 Eh       

---------------
SCF CONVERGENCE
---------------

  Last Energy change         ...   -2.6979e-08  Tolerance :   1.0000e-06
  Last MAX-Density change    ...    3.0846e-05  Tolerance :   1.0000e-05
  Last RMS-Density change    ...    6.3537e-07  Tolerance :   1.0000e-06
  Last DIIS Error            ...    9.8240e-06  Tolerance :   1.0000e-06

             **** THE GBW FILE WAS UPDATED (CoH.gbw) ****
             **** DENSITY FILE WAS UPDATED (CoH.scfp) ****
             **** ENERGY FILE WAS UPDATED (CoH.en.tmp) ****
----------------------
UHF SPIN CONTAMINATION
----------------------

Warning: in a DFT calculation there is little theoretical justification to 
         calculate <S**2> as in Hartree-Fock theory. We will do it anyways
         but you should keep in mind that the values have only limited relevance

Expectation value of <S**2>     :     2.043137
Ideal value S*(S+1) for S=1.0   :     2.000000
Deviation                       :     0.043137

             **** THE GBW FILE WAS UPDATED (CoH.gbw) ****
             **** DENSITY FILE WAS UPDATED (CoH.scfp) ****
----------------
ORBITAL ENERGIES
----------------
                 SPIN UP ORBITALS
  NO   OCC          E(Eh)            E(eV) 
   0   1.0000    -280.932042     -7644.5495 
   1   1.0000     -33.992766      -924.9902 
   2   1.0000     -29.387628      -799.6780 
   3   1.0000     -29.387628      -799.6780 
   4   1.0000     -29.386148      -799.6377 
   5   1.0000      -4.146377      -112.8287 
   6   1.0000      -2.722876       -74.0932 
   7   1.0000      -2.721784       -74.0635 
   8   1.0000      -2.721784       -74.0635 
   9   1.0000      -0.424088       -11.5400 
  10   1.0000      -0.419072       -11.4035 
  11   1.0000      -0.374836       -10.1998 
  12   1.0000      -0.374836       -10.1998 
  13   1.0000      -0.372844       -10.1456 
  14   1.0000      -0.281644        -7.6639 
  15   0.0000      -0.015823        -0.4306 
  16   0.0000       0.030309         0.8247 
  17   0.0000       0.030309         0.8247 
  18   0.0000       0.109659         2.9840 
  19   0.0000       0.126228         3.4348 
  20   0.0000       0.179524         4.8851 
  21   0.0000       0.179524         4.8851 
  22   0.0000       0.219650         5.9770 
  23   0.0000       0.249353         6.7852 
  24   0.0000       0.249353         6.7852 
  25   0.0000       0.265832         7.2336 
  26   0.0000       0.268463         7.3053 
  27   0.0000       0.363557         9.8929 
  28   0.0000       0.366841         9.9822 
  29   0.0000       0.366841         9.9822 
  30   0.0000       0.491249        13.3676 
  31   0.0000       0.573170        15.5968 
  32   0.0000       0.724904        19.7256 
  33   0.0000       0.724904        19.7256 
  34   0.0000       0.774954        21.0876 
  35   0.0000       0.988253        26.8917 
  36   0.0000       0.988253        26.8917 
  37   0.0000       1.120933        30.5021 
  38   0.0000       1.136259        30.9192 
  39   0.0000       1.239916        33.7398 
  40   0.0000       1.298194        35.3256 
  41   0.0000       1.298194        35.3256 
  42   0.0000       1.432946        38.9924 
  43   0.0000       2.675965        72.8167 
  44   0.0000       2.811160        76.4956 
  45   0.0000       2.811160        76.4956 
  46   0.0000       2.865531        77.9751 
  47   0.0000       2.901639        78.9576 
  48   0.0000       2.917243        79.3822 
  49   0.0000       2.922524        79.5259 
  50   0.0000       2.922524        79.5259 
  51   0.0000       2.956251        80.4437 
  52   0.0000       2.956251        80.4437 
  53   0.0000       3.208809        87.3161 
  54   0.0000       3.422521        93.1315 
  55   0.0000       3.505889        95.4001 
  56   0.0000       3.507488        95.4436 
  57   0.0000       3.930280       106.9484 
  58   0.0000       3.930280       106.9484 
  59   0.0000       3.997450       108.7761 
  60   0.0000       4.146055       112.8199 
  61   0.0000       4.177898       113.6864 
  62   0.0000       4.203487       114.3827 
  63   0.0000       4.203487       114.3827 
  64   0.0000       4.231700       115.1504 
  65   0.0000       4.231700       115.1504 
  66   0.0000       4.397746       119.6688 
  67   0.0000       5.333858       145.1416 
  68   0.0000      10.430054       283.8162 
  69   0.0000      10.431735       283.8619 
  70   0.0000      10.441733       284.1340 
  71   0.0000      10.450649       284.3766 
  72   0.0000      10.450649       284.3766 
  73   0.0000      10.466440       284.8063 
  74   0.0000      10.472497       284.9711 
  75   0.0000      10.472497       284.9711 
  76   0.0000      10.489412       285.4314 
  77   0.0000      11.006401       299.4994 
  78   0.0000      11.006401       299.4994 
  79   0.0000      11.024505       299.9920 
  80   0.0000      11.057015       300.8767 
  81   0.0000      11.123236       302.6786 
  82   0.0000      11.123236       302.6786 
  83   0.0000      11.402667       310.2824 

                 SPIN DOWN ORBITALS
  NO   OCC          E(Eh)            E(eV) 
   0   1.0000    -280.930569     -7644.5094 
   1   1.0000     -33.939058      -923.5287 
   2   1.0000     -29.338618      -798.3444 
   3   1.0000     -29.336493      -798.2865 
   4   1.0000     -29.336493      -798.2865 
   5   1.0000      -4.002982      -108.9267 
   6   1.0000      -2.556397       -69.5631 
   7   1.0000      -2.554628       -69.5149 
   8   1.0000      -2.554628       -69.5149 
   9   1.0000      -0.343815        -9.3557 
  10   1.0000      -0.318908        -8.6779 
  11   1.0000      -0.316174        -8.6035 
  12   1.0000      -0.316174        -8.6035 
  13   0.0000      -0.018677        -0.5082 
  14   0.0000       0.037196         1.0121 
  15   0.0000       0.037196         1.0121 
  16   0.0000       0.083750         2.2790 
  17   0.0000       0.133965         3.6454 
  18   0.0000       0.181306         4.9336 
  19   0.0000       0.192322         5.2334 
  20   0.0000       0.192322         5.2334 
  21   0.0000       0.192707         5.2438 
  22   0.0000       0.251360         6.8399 
  23   0.0000       0.251360         6.8399 
  24   0.0000       0.273511         7.4426 
  25   0.0000       0.282914         7.6985 
  26   0.0000       0.363606         9.8942 
  27   0.0000       0.368884        10.0379 
  28   0.0000       0.368884        10.0379 
  29   0.0000       0.406206        11.0534 
  30   0.0000       0.504040        13.7156 
  31   0.0000       0.576048        15.6751 
  32   0.0000       0.745106        20.2754 
  33   0.0000       0.745106        20.2754 
  34   0.0000       0.790615        21.5137 
  35   0.0000       0.986145        26.8344 
  36   0.0000       0.986145        26.8344 
  37   0.0000       1.155093        31.4317 
  38   0.0000       1.232460        33.5369 
  39   0.0000       1.305434        35.5227 
  40   0.0000       1.308127        35.5959 
  41   0.0000       1.308127        35.5959 
  42   0.0000       1.447483        39.3880 
  43   0.0000       2.703986        73.5792 
  44   0.0000       2.849705        77.5444 
  45   0.0000       2.849705        77.5444 
  46   0.0000       2.859990        77.8243 
  47   0.0000       2.921660        79.5024 
  48   0.0000       2.951915        80.3257 
  49   0.0000       2.998247        81.5864 
  50   0.0000       2.998247        81.5864 
  51   0.0000       3.016934        82.0949 
  52   0.0000       3.016934        82.0949 
  53   0.0000       3.254069        88.5477 
  54   0.0000       3.478446        94.6533 
  55   0.0000       3.496158        95.1353 
  56   0.0000       3.498962        95.2116 
  57   0.0000       3.931275       106.9754 
  58   0.0000       3.931275       106.9754 
  59   0.0000       4.097582       111.5009 
  60   0.0000       4.195850       114.1749 
  61   0.0000       4.195850       114.1749 
  62   0.0000       4.208249       114.5123 
  63   0.0000       4.259257       115.9003 
  64   0.0000       4.259257       115.9003 
  65   0.0000       4.289509       116.7235 
  66   0.0000       4.400153       119.7343 
  67   0.0000       5.372389       146.1901 
  68   0.0000      10.498756       285.6857 
  69   0.0000      10.500269       285.7269 
  70   0.0000      10.500269       285.7269 
  71   0.0000      10.513238       286.0798 
  72   0.0000      10.515568       286.1432 
  73   0.0000      10.516293       286.1629 
  74   0.0000      10.538270       286.7609 
  75   0.0000      10.538270       286.7609 
  76   0.0000      10.576683       287.8062 
  77   0.0000      11.076738       301.4134 
  78   0.0000      11.121463       302.6304 
  79   0.0000      11.133259       302.9514 
  80   0.0000      11.133259       302.9514 
  81   0.0000      11.237337       305.7835 
  82   0.0000      11.237337       305.7835 
  83   0.0000      11.543931       314.1263 

                    ********************************
                    * MULLIKEN POPULATION ANALYSIS *
                    ********************************

--------------------------------------------
MULLIKEN ATOMIC CHARGES AND SPIN POPULATIONS
--------------------------------------------
   0 Co:    0.207150    2.171238
   1 H :   -0.207150   -0.171238
Sum of atomic charges         :   -0.0000000
Sum of atomic spin populations:    2.0000000

-----------------------------------------------------
MULLIKEN REDUCED ORBITAL CHARGES AND SPIN POPULATIONS
-----------------------------------------------------
CHARGE
  0 Cos       :     6.680788  s :     6.680788
      pz      :     4.105484  p :    12.107891
      px      :     4.001204
      py      :     4.001204
      dz2     :     1.008855  d :     8.002932
      dxz     :     1.997087
      dyz     :     1.997087
      dx2y2   :     1.999933
      dxy     :     0.999970
      f0      :     0.000616  f :     0.001197
      f+1     :     0.000126
      f-1     :     0.000126
      f+2     :     0.000058
      f-2     :     0.000028
      f+3     :     0.000122
      f-3     :     0.000122
      g0      :     0.000016  g :     0.000041
      g+1     :     0.000000
      g-1     :     0.000000
      g+2     :     0.000003
      g-2     :     0.000005
      g+3     :     0.000003
      g-3     :     0.000003
      g+4     :     0.000012
      g-4     :     0.000000
  1 H s       :     1.208358  s :     1.208358
      pz      :    -0.004566  p :    -0.002225
      px      :     0.001171
      py      :     0.001171
      dz2     :     0.000438  d :     0.001017
      dxz     :     0.000287
      dyz     :     0.000287
      dx2y2   :     0.000006
      dxy     :    -0.000002

SPIN
  0 Cos       :     0.279368  s :     0.279368
      pz      :    -0.010667  p :    -0.010916
      px      :    -0.000124
      py      :    -0.000124
      dz2     :     0.901423  d :     1.903280
      dxz     :     0.000938
      dyz     :     0.000938
      dx2y2   :     0.000011
      dxy     :     0.999970
      f0      :    -0.000193  f :    -0.000496
      f+1     :    -0.000060
      f-1     :    -0.000060
      f+2     :    -0.000002
      f-2     :     0.000028
      f+3     :    -0.000105
      f-3     :    -0.000105
      g0      :    -0.000000  g :     0.000002
      g+1     :     0.000000
      g-1     :     0.000000
      g+2     :    -0.000001
      g-2     :     0.000005
      g+3     :    -0.000001
      g-3     :    -0.000001
      g+4     :    -0.000001
      g-4     :    -0.000000
  1 H s       :    -0.170276  s :    -0.170276
      pz      :     0.000018  p :    -0.001235
      px      :    -0.000626
      py      :    -0.000626
      dz2     :     0.000329  d :     0.000273
      dxz     :    -0.000022
      dyz     :    -0.000022
      dx2y2   :    -0.000008
      dxy     :    -0.000002


                     *******************************
                     * LOEWDIN POPULATION ANALYSIS *
                     *******************************

-------------------------------------------
LOEWDIN ATOMIC CHARGES AND SPIN POPULATIONS
-------------------------------------------
   0 Co:    0.246342    2.055337
   1 H :   -0.246342   -0.055337

----------------------------------------------------
LOEWDIN REDUCED ORBITAL CHARGES AND SPIN POPULATIONS
----------------------------------------------------
CHARGE
  0 Cos       :     6.598888  s :     6.598888
      pz      :     4.160537  p :    12.162862
      px      :     4.001162
      py      :     4.001162
      dz2     :     1.039773  d :     7.989629
      dxz     :     1.975163
      dyz     :     1.975163
      dx2y2   :     1.999668
      dxy     :     0.999861
      f0      :     0.001429  f :     0.002233
      f+1     :     0.000236
      f-1     :     0.000236
      f+2     :     0.000060
      f-2     :     0.000029
      f+3     :     0.000122
      f-3     :     0.000122
      g0      :     0.000019  g :     0.000046
      g+1     :     0.000001
      g-1     :     0.000001
      g+2     :     0.000003
      g-2     :     0.000005
      g+3     :     0.000003
      g-3     :     0.000003
      g+4     :     0.000012
      g-4     :     0.000000
  1 H s       :     1.121314  s :     1.121314
      pz      :     0.071499  p :     0.109668
      px      :     0.019085
      py      :     0.019085
      dz2     :     0.006530  d :     0.015360
      dxz     :     0.004228
      dyz     :     0.004228
      dx2y2   :     0.000269
      dxy     :     0.000105

SPIN
  0 Cos       :     0.216551  s :     0.216551
      pz      :    -0.040359  p :    -0.041294
      px      :    -0.000467
      py      :    -0.000467
      dz2     :     0.875116  d :     1.880847
      dxz     :     0.002922
      dyz     :     0.002922
      dx2y2   :     0.000026
      dxy     :     0.999861
      f0      :    -0.000449  f :    -0.000763
      f+1     :    -0.000066
      f-1     :    -0.000066
      f+2     :    -0.000002
      f-2     :     0.000029
      f+3     :    -0.000105
      f-3     :    -0.000105
      g0      :    -0.000006  g :    -0.000005
      g+1     :    -0.000001
      g-1     :    -0.000001
      g+2     :    -0.000001
      g-2     :     0.000005
      g+3     :    -0.000001
      g-3     :    -0.000001
      g+4     :    -0.000001
      g-4     :    -0.000000
  1 H s       :    -0.073226  s :    -0.073226
      pz      :     0.019891  p :     0.015641
      px      :    -0.002125
      py      :    -0.002125
      dz2     :     0.002483  d :     0.002249
      dxz     :    -0.000158
      dyz     :    -0.000158
      dx2y2   :    -0.000023
      dxy     :     0.000105


                      *****************************
                      * MAYER POPULATION ANALYSIS *
                      *****************************

  NA   - Mulliken gross atomic population
  ZA   - Total nuclear charge
  QA   - Mulliken gross atomic charge
  VA   - Mayer's total valence
  BVA  - Mayer's bonded valence
  FA   - Mayer's free valence

  ATOM       NA         ZA         QA         VA         BVA        FA
  0 Co    26.7928    27.0000     0.2072     2.9491     0.9168     2.0323
  1 H      1.2072     1.0000    -0.2072     0.9492     0.9168     0.0325

  Mayer bond orders larger than 0.100000
B(  0-Co,  1-H ) :   0.9168 

-------
TIMINGS
-------

Total SCF time: 0 days 0 hours 0 min 42 sec 

Total time                  ....      42.080 sec
Sum of individual times     ....      41.468 sec  ( 98.5%)

Fock matrix formation       ....      39.809 sec  ( 94.6%)
  XC integration            ....      36.187 sec  ( 90.9% of F)
    Basis function eval.    ....       0.014 sec  (  0.0% of XC)
    Density eval.           ....       0.015 sec  (  0.0% of XC)
    XC-Functional eval.     ....       0.020 sec  (  0.1% of XC)
    XC-Potential eval.      ....       0.029 sec  (  0.1% of XC)
Diagonalization             ....       0.634 sec  (  1.5%)
Density matrix formation    ....       0.007 sec  (  0.0%)
Population analysis         ....       0.286 sec  (  0.7%)
Initial guess               ....       0.113 sec  (  0.3%)
Orbital Transformation      ....       0.000 sec  (  0.0%)
Orbital Orthonormalization  ....       0.000 sec  (  0.0%)
DIIS solution               ....       0.155 sec  (  0.4%)
Grid generation             ....       0.464 sec  (  1.1%)


           ************************************************************
           *        Program running with 28 parallel MPI-processes    *
           *              working on a common directory               *
           ************************************************************

------------------------------------------------------------------------------
                                ORCA  MP2 
------------------------------------------------------------------------------

Freezing NCore=10 chemical core electrons

-------------
RI-MP2 ENERGY
-------------
Dimension of the basis                    ...   84
Memory devoted to MP2                     ... 5000 MB   
Data format for buffers                   ... DOUBLE
Compression type for matrix containers    ... UNCOMPRESSED
Scaling for aa/bb pairs                   ...   4.000e-01
Scaling for ab pairs                      ...   4.700e-01
Overall scaling of the MP2 energy         ...   1.000e+00
Calculating two index integrals           ... done (    0.016 sec)
Cholesky decomposition of V**-1           ... done (    0.062 sec)

-----------------
RI-TRANSFORMATION (AUX index driven)
-----------------

Dimension of the orbital-basis         ... 84
Dimension of the aux-basis             ... 264
Transformation of internal/external MOs...    5-  14 to   15-  83
Number Format for Storage              ... Double (8 Byte)
Integral mode                          ... Direct

First Phase: integral generation and transformation of MO indices
  Aux angular momentum 0               ... done (    0.000 sec)
  Aux angular momentum 1               ... done (    0.002 sec)
  Aux angular momentum 2               ... done (    0.001 sec)
  Aux angular momentum 3               ... done (    0.001 sec)
  Aux angular momentum 4               ... done (    0.001 sec)
  Aux angular momentum 5               ... done (    0.002 sec)
  Aux angular momentum 6               ... done (    0.004 sec)
Closing buffer VIA ( 0.00 GB; CompressionRatio= 1.00)
  Phase 1 completed in     0.571 sec
Second Phase: sorting and transformation of aux index

IA-Transformation
Memory available                       ... 4999 MB 
Max. # MO pairs treated in a batch     ... 1    
# of internal orbitals                 ... 10
# batches for internal orbitals        ... 1
Closing buffer IAV ( 0.00 GB; CompressionRatio= 1.00)
(ia|v) transformation done in     0.193 sec

  Phase 2 completed in     1.060 sec
RI-Integral transformation completed in     1.887 sec

-----------------
RI-TRANSFORMATION (AUX index driven)
-----------------

Dimension of the orbital-basis         ... 84
Dimension of the aux-basis             ... 264
Transformation of internal/external MOs...    5-  12 to   13-  83
Number Format for Storage              ... Double (8 Byte)
Integral mode                          ... Direct

First Phase: integral generation and transformation of MO indices
  Aux angular momentum 0               ... done (    0.000 sec)
  Aux angular momentum 1               ... done (    0.002 sec)
  Aux angular momentum 2               ... done (    0.001 sec)
  Aux angular momentum 3               ... done (    0.001 sec)
  Aux angular momentum 4               ... done (    0.001 sec)
  Aux angular momentum 5               ... done (    0.002 sec)
  Aux angular momentum 6               ... done (    0.004 sec)
Closing buffer VIA ( 0.00 GB; CompressionRatio= 1.00)
  Phase 1 completed in     0.901 sec
Second Phase: sorting and transformation of aux index

IA-Transformation
Memory available                       ... 4999 MB 
Max. # MO pairs treated in a batch     ... 1    
# of internal orbitals                 ... 8
# batches for internal orbitals        ... 1
Closing buffer IAV ( 0.00 GB; CompressionRatio= 1.00)
(ia|v) transformation done in     0.193 sec

  Phase 2 completed in     0.662 sec
RI-Integral transformation completed in     1.882 sec
Opening buffers                              ... done

Starting loop over batches of integrals:

Operator 0  - window                       ... (  5- 14)x( 15- 83)
Operator 0  - Memory available             ...  5000 MB
Operator 0  - Memory needed per MO         ...   0.1 MB
Operator 0  - Number of orbitals per batch ... 1
Operator 0  - Number of batches            ... 1

OPERATOR  0   PASS   0:  MOs     5 ...    5 +    6 ...    6 +    7 ...    7 +    8 ...    8
                            +    9 ...    9 +   10 ...   10 +   11 ...   11 +   12 ...   12
                            +   13 ...   13 +   14 ...   14
  Reading integrals       ... ok

Operator 1  - window                       ... (  5- 12)x( 13- 83)
Operator 1  - Memory available             ...  5000 MB
Operator 1  - Memory needed per MO         ...   0.1 MB
Operator 1  - Number of orbitals per batch ... 1
Operator 1  - Number of batches            ... 1

OPERATOR  1   PASS   0:  MOs     5 ...    5 +    6 ...    6 +    7 ...    7 +    8 ...    8
                            +    9 ...    9 +   10 ...   10 +   11 ...   11 +   12 ...   12
  Reading integrals       ... ok
Time spent in pair loops =     0.011 sec
Deleting buffer (Ka|jb)[aa] ...done
Deleting buffer (Ka|jb)[ab] ...done
Deleting buffer (Ka|jb)[ba] ...done
Deleting buffer (Ka|jb)[bb] ...done

Spin-scaled correlation energy components}
 E2 and T2 for alpha/alpha pairs :     -0.065625813 Eh      0.000000000
 E2 and T2 for beta/beta   pairs :     -0.035950450 Eh      0.000000000
 E2 and T2 for alpha/beta  pairs :     -0.244887901 Eh      0.000000000


-----------------------------------------------
 RI-MP2 CORRELATION ENERGY:     -0.346464164 Eh
-----------------------------------------------


-------
TIMINGS
-------

Total time                :    4.392 sec
Integral trafo            :    3.791 sec ( 86.3%)
I/O of integrals          :    0.000 sec (  0.0%)
K(i,j) Operators          :    0.002 sec (  0.0%)
T(i,j) pair energies      :    0.000 sec (  0.0%)
V-calculation             :    0.016 sec (  0.4%)
V**(-1/2)                 :    0.062 sec (  1.4%)
Gamma(ia|P)               :    0.000 sec (  0.0%)
Gamma-Trafo               :    0.000 sec (  0.0%)
D(virtual)                :    0.000 sec (  0.0%)
D(internal)               :    0.000 sec (  0.0%)
W(virtual)                :    0.000 sec (  0.0%)
W(internal)               :    0.000 sec (  0.0%)
L(virtual)                :    0.000 sec (  0.0%)
L(internal)               :    0.000 sec (  0.0%)
G(D)                      :    0.000 sec (  0.0%)
G(Z)                      :    0.000 sec (  0.0%)
Z-Vector Solution         :    0.000 sec (  0.0%)
Z-Vector Solution         :    0.000 sec (  0.0%)
3-Index Derivative 
+ Separable RIJ part      :    0.000 sec (  0.0%)
2-Index Derivative 
+ Separable RIJ part      :    0.000 sec (  0.0%)
Separable Gradient (X)    :    0.000 sec (  0.0%)


---------------------------------------
MP2 TOTAL ENERGY:    -1382.976307959 Eh
---------------------------------------


-------------------------------------------------------------------------------
                          DFT DISPERSION CORRECTION                            
                                                                               
                              DFTD3 V3.1  Rev 1                                
                          USING Becke-Johnson damping                          
-------------------------------------------------------------------------------
The DSD-BLYP/2013 functional is recognized
Active option DFTDOPT                   ...         4   

molecular C6(AA) [au] = 329.498670 


            DFT-D V3
 parameters
 s6 scaling factor         :     0.5700 
 a1 scaling factor         :     0.0000 
 s8 scaling factor         :     0.0000 
 a2 scaling factor         :     5.4000 
 ad hoc parameters k1-k3   :    16.0000     1.3333    -4.0000 

 Edisp/kcal,au: -0.392484814576  -0.000625464298 
 E6   /kcal   :  -0.392484815 
 E8   /kcal   :  -0.000000000 
 % E8         :   0.000000000 

-------------------------   ----------------
Dispersion correction           -0.000625464
-------------------------   ----------------


-------------------------   --------------------
FINAL SINGLE POINT ENERGY     -1382.976933422868
-------------------------   --------------------


                            ***************************************
                            *     ORCA property calculations      *
                            ***************************************


  WARNING: The energy has been calculated at the MP2 level but the densities
           used in the property calculations are still SCF densities
           MP2 response densities have not been calculated 
           use %mp2 Density relaxed end
           or  %mp2 Density unrelaxed end

                                    ---------------------
                                    Active property flags
                                    ---------------------
   (+) Dipole Moment


------------------------------------------------------------------------------
                       ORCA ELECTRIC PROPERTIES CALCULATION
------------------------------------------------------------------------------

Dipole Moment Calculation                       ... on
Quadrupole Moment Calculation                   ... off
Polarizability Calculation                      ... off
GBWName                                         ... CoH.gbw
Electron density file                           ... CoH.scfp
The origin for moment calculation is the CENTER OF MASS  = ( 0.000000,  0.000000  0.048656)

-------------
DIPOLE MOMENT
-------------
                                X             Y             Z
Electronic contribution:      0.00000       0.00000      -3.03637
Nuclear contribution   :      0.00000       0.00000       1.53082
                        -----------------------------------------
Total Dipole Moment    :      0.00000       0.00000      -1.50555
                        -----------------------------------------
Magnitude (a.u.)       :      1.50555
Magnitude (Debye)      :      3.82681



--------------------
Rotational spectrum 
--------------------
 
Rotational constants in cm-1:     0.000000     7.256911     7.256911 
Rotational constants in MHz :     0.000000 217556.717096 217556.717096 

 Dipole components along the rotational axes: 
x,y,z [a.u.] :    -1.505553     0.000000     0.000000 
x,y,z [Debye]:    -3.826813     0.000000     0.000000 

 

Timings for individual modules:

Sum of individual times         ...       48.620 sec (=   0.810 min)
GTO integral calculation        ...        0.823 sec (=   0.014 min)   1.7 %
SCF iterations                  ...       42.644 sec (=   0.711 min)  87.7 %
MP2 module                      ...        5.152 sec (=   0.086 min)  10.6 %
                             ****ORCA TERMINATED NORMALLY****
TOTAL RUN TIME: 0 days 0 hours 0 minutes 53 seconds 965 msec
