
                                 *****************
                                 * O   R   C   A *
                                 *****************

           --- An Ab Initio, DFT and Semiempirical electronic structure package ---

                  #######################################################
                  #                        -***-                        #
                  #          Department of theory and spectroscopy      #
                  #               Directorship: Frank Neese             #
                  #        Max Planck Institute fuer Kohlenforschung    #
                  #                Kaiser Wilhelm Platz 1               #
                  #                 D-45470 Muelheim/Ruhr               #
                  #                      Germany                        #
                  #                                                     #
                  #                  All rights reserved                #
                  #                        -***-                        #
                  #######################################################


                         Program Version 4.2.0 -  RELEASE  -


 With contributions from (in alphabetic order):
   Daniel Aravena         : Magnetic Suceptibility
   Michael Atanasov       : Ab Initio Ligand Field Theory (pilot matlab implementation)
   Alexander A. Auer      : GIAO ZORA, VPT2
   Ute Becker             : Parallelization
   Giovanni Bistoni       : ED, misc. LED, open-shell LED, HFLED
   Martin Brehm           : Molecular dynamics
   Dmytro Bykov           : SCF Hessian
   Vijay G. Chilkuri      : MRCI spin determinant printing, contributions to CSF-ICE
   Dipayan Datta          : RHF DLPNO-CCSD density
   Achintya Kumar Dutta   : EOM-CC, STEOM-CC
   Dmitry Ganyushin       : Spin-Orbit,Spin-Spin,Magnetic field MRCI
   Miquel Garcia          : C-PCM Hessian, Gaussian charge scheme
   Yang Guo               : DLPNO-NEVPT2, CIM, IAO-localization
   Andreas Hansen         : Spin unrestricted coupled pair/coupled cluster methods
   Benjamin Helmich-Paris : CASSCF linear response (MC-RPA)
   Lee Huntington         : MR-EOM, pCC
   Robert Izsak           : Overlap fitted RIJCOSX, COSX-SCS-MP3, EOM
   Christian Kollmar      : KDIIS, OOCD, Brueckner-CCSD(T), CCSD density
   Simone Kossmann        : Meta GGA functionals, TD-DFT gradient, OOMP2, MP2 Hessian
   Martin Krupicka        : AUTO-CI
   Lucas Lang             : DCDCAS
   Dagmar Lenk            : GEPOL surface, SMD
   Dimitrios Liakos       : Extrapolation schemes; Compound Job, initial MDCI parallelization
   Dimitrios Manganas     : Further ROCIS development; embedding schemes
   Dimitrios Pantazis     : SARC Basis sets
   Taras Petrenko         : DFT Hessian,TD-DFT gradient, ASA, ECA, R-Raman, ABS, FL, XAS/XES, NRVS
   Peter Pinski           : DLPNO-MP2, DLPNO-MP2 Gradient
   Christoph Reimann      : Effective Core Potentials
   Marius Retegan         : Local ZFS, SOC
   Christoph Riplinger    : Optimizer, TS searches, QM/MM, DLPNO-CCSD(T), (RO)-DLPNO pert. Triples
   Tobias Risthaus        : Range-separated hybrids, TD-DFT gradient, RPA, STAB
   Michael Roemelt        : Original ROCIS implementation
   Masaaki Saitow         : Open-shell DLPNO-CCSD energy and density
   Barbara Sandhoefer     : DKH picture change effects
   Avijit Sen             : IP-ROCIS
   Kantharuban Sivalingam : CASSCF convergence, NEVPT2, FIC-MRCI
   Bernardo de Souza      : ESD, SOC TD-DFT
   Georgi Stoychev        : AutoAux, RI-MP2 NMR
   Willem Van den Heuvel  : Paramagnetic NMR
   Boris Wezisla          : Elementary symmetry handling
   Frank Wennmohs         : Technical directorship


 We gratefully acknowledge several colleagues who have allowed us to
 interface, adapt or use parts of their codes:
   Stefan Grimme, W. Hujo, H. Kruse,             : VdW corrections, initial TS optimization,
                  C. Bannwarth                     DFT functionals, gCP, sTDA/sTD-DF
   Ed Valeev, F. Pavosevic, A. Kumar             : LibInt (2-el integral package), F12 methods
   Garnet Chan, S. Sharma, J. Yang, R. Olivares  : DMRG
   Ulf Ekstrom                                   : XCFun DFT Library
   Mihaly Kallay                                 : mrcc  (arbitrary order and MRCC methods)
   Andreas Klamt, Michael Diedenhofen            : otool_cosmo (COSMO solvation model)
   Jiri Pittner, Ondrej Demel                    : Mk-CCSD
   Frank Weinhold                                : gennbo (NPA and NBO analysis)
   Christopher J. Cramer and Donald G. Truhlar   : smd solvation model
   Lars Goerigk                                  : TD-DFT with DH, B97 family of functionals
   V. Asgeirsson, H. Jonsson                     : NEB implementation
   FAccTs GmbH                                   : IRC, NEB, NEB-TS, Multilevel, MM, QM/MM, CI optimization
   S Lehtola, MJT Oliveira, MAL Marques          : LibXC Library


 Your calculation uses the libint2 library for the computation of 2-el integrals
 For citations please refer to: http://libint.valeyev.net

 Your ORCA version has been built with support for libXC version: 4.2.3
 For citations please refer to: https://tddft.org/programs/libxc/

 This ORCA versions uses:
   CBLAS   interface :  Fast vector & matrix operations
   LAPACKE interface :  Fast linear algebra routines
   SCALAPACK package :  Parallel linear algebra routines


Your calculation utilizes the atom-pairwise dispersion correction
with the Becke-Johnson damping scheme (D3BJ)
Cite in your paper:
S.Grimme, S.Ehrlich, L.Goerigk, J Comput Chem, (2011), 32, 1456–1465 
S.Grimme, J.Antony, S.Ehrlich and H.Krieg, J.Chem.Phys., 132, (2010), 154104 
   

----- Orbital basis set information -----
Your calculation utilizes the basis: def2-TZVPPD
   F. Weigend and R. Ahlrichs, Phys. Chem. Chem. Phys. 7, 3297 (2005).
   D. Rappoport and F. Furche, J. Chem. Phys. 133 134105 (2010).

----- AuxC basis set information -----
Your calculation utilizes the auxiliary basis: def2-TZVPPD/C
   A. Hellweg, C. Hattig, S. Hofener and W. Klopper, Theor. Chem. Acc. 117, 587 (2007).

----- AuxJK basis set information -----
Your calculation utilizes the auxiliary basis: def2/JK
   H-Ba, Hf-Rn: F. Weigend, J. Comput. Chem. 29, 167 (2008).

================================================================================
                                        WARNINGS
                       Please study these warnings very carefully!
================================================================================


WARNING: your system is open-shell and RHF/RKS was chosen
  ===> : WILL SWITCH to UHF/UKS


WARNING: No MP2 level density has been requested!
         To caclulate MP2 level properties use
         %mp2 Density relaxed end
         or
         %mp2 Density unrelaxed end
         Otherwise for double-hybrid DFT only the energy is correct!

WARNING: There are different parametrizations of Gershom Martin's DSD-DFs
         for use with and without D3(BJ)!
         You are using the D3(BJ) parametrized version,
         consistent with the 2013 article (S. Kozuch and J. M. L. Martin, JCC 2013, 34, 2327)

WARNING: The frozen-core approximation is turned on by default for 
         the MP2 part of double-hybrid DFT.

INFO   : the flag for use of LIBINT has been found!

================================================================================
                                       INPUT FILE
================================================================================
NAME = Cr+.in
|  1> #
|  2> # Cr+ ri-DSD-BLYP/2013-D3BJ/Def2-TZVPPD
|  3> #
|  4> ! rijk ri-dsd-blyp/2013 d3bj def2-tzvppd def2/jk def2-tzvppd/c grid4 nofinalgrid
|  5> 
|  6> *xyz 1 6
|  7> Cr         0.00000        0.00000        0.00000
|  8> *
|  9> 
| 10> %maxcore 5000
| 11> 
| 12> %pal
| 13> nprocs = 28
| 14> end
| 15> 
| 16> 
| 17>                          ****END OF INPUT****
================================================================================

                       ****************************
                       * Single Point Calculation *
                       ****************************

---------------------------------
CARTESIAN COORDINATES (ANGSTROEM)
---------------------------------
  Cr     0.000000    0.000000    0.000000

----------------------------
CARTESIAN COORDINATES (A.U.)
----------------------------
  NO LB      ZA    FRAG     MASS         X           Y           Z
   0 Cr   24.0000    0    52.000    0.000000    0.000000    0.000000

--------------------------------
INTERNAL COORDINATES (ANGSTROEM)
--------------------------------
 Cr     0   0   0     0.000000000000     0.00000000     0.00000000

---------------------------
INTERNAL COORDINATES (A.U.)
---------------------------
 Cr     0   0   0     0.000000000000     0.00000000     0.00000000

---------------------
BASIS SET INFORMATION
---------------------
There are 1 groups of distinct atoms

 Group   1 Type Cr  : 17s13p7d2f1g contracted to 6s6p4d2f1g pattern {842111/631111/4111/11/1}

Atom   0Cr   basis set group =>   1
---------------------------------
AUXILIARY/C BASIS SET INFORMATION
---------------------------------
There are 1 groups of distinct atoms

 Group   1 Type Cr  : 10s10p9d7f5g3h1i contracted to 10s10p9d7f5g3h1i pattern {1111111111/1111111111/111111111/1111111/11111/111/1}

Atom   0Cr   basis set group =>   1
----------------------------------
AUXILIARY/JK BASIS SET INFORMATION
----------------------------------
There are 1 groups of distinct atoms

 Group   1 Type Cr  : 19s14p12d10f7g3h1i contracted to 16s13p11d9f5g3h1i pattern {4111111111111111/2111111111111/21111111111/211111111/31111/111/1}

Atom   0Cr   basis set group =>   1


           ************************************************************
           *        Program running with 28 parallel MPI-processes    *
           *              working on a common directory               *
           ************************************************************
------------------------------------------------------------------------------
                           ORCA GTO INTEGRAL CALCULATION
                           -- RI-GTO INTEGRALS CHOSEN --
------------------------------------------------------------------------------

                         BASIS SET STATISTICS AND STARTUP INFO

Gaussian basis set:
 # of primitive gaussian shells          ...   40
 # of primitive gaussian functions       ...  114
 # of contracted shells                  ...   19
 # of contracted basis functions         ...   67
 Highest angular momentum                ...    4
 Maximum contraction depth               ...    8
Auxiliary gaussian basis set:
 # of primitive gaussian shells          ...   66
 # of primitive gaussian functions       ...  300
 # of contracted shells                  ...   58
 # of contracted aux-basis functions     ...  264
 Highest angular momentum                ...    6
 Maximum contraction depth               ...    4
Ratio of auxiliary to basis functions    ...  3.94
Integral package used                  ... LIBINT
 One Electron integrals                  ... done
 Ordering auxiliary basis shells         ... done
 Integral threshhold             Thresh  ...  1.000e-10
 Primitive cut-off               TCut    ...  1.000e-11
 Pre-screening matrix                    ... done
 Shell pair data                         ... 
 Ordering of the shell pairs             ... done (   0.000 sec) 190 of 190 pairs
 Determination of significant pairs      ... done (   0.000 sec)
 Creation of shell pair data             ... done (   0.000 sec)
 Storage of shell pair data              ... done (   0.018 sec)
 Shell pair data done in (   0.019 sec)
 Computing two index integrals           ... done
 Cholesky decomposition of the V-matrix  ... done


Timings:
 Total evaluation time                   ...   0.215 sec (  0.004 min)
 One electron matrix time                ...   0.014 sec (  0.000 min) =  6.4%
 Schwartz matrix evaluation time         ...   0.124 sec (  0.002 min) = 57.9%
 Two index repulsion integral time       ...   0.022 sec (  0.000 min) = 10.4%
 Cholesky decomposition of V             ...   0.002 sec (  0.000 min) =  1.0%
 Three index repulsion integral time     ...   0.000 sec (  0.000 min) =  0.0%



           ************************************************************
           *        Program running with 28 parallel MPI-processes    *
           *              working on a common directory               *
           ************************************************************
-------------------------------------------------------------------------------
                                 ORCA SCF
-------------------------------------------------------------------------------

------------
SCF SETTINGS
------------
Hamiltonian:
 Density Functional     Method          .... DFT(GTOs)
 Exchange Functional    Exchange        .... B88
   X-Alpha parameter    XAlpha          ....  0.666667
   Becke's b parameter  XBeta           ....  0.004200
 Correlation Functional Correlation     .... LYP
 LDA part of GGA corr.  LDAOpt          .... VWN-5
 Gradients option       PostSCFGGA      .... off
 Hybrid DFT is turned on
   Fraction HF Exchange ScalHFX         ....  0.710000
   Scaling of DF-GGA-X  ScalDFX         ....  0.290000
   Scaling of DF-GGA-C  ScalDFC         ....  0.540000
   Scaling of DF-LDA-C  ScalLDAC        ....  0.540000
   Perturbative correction              ....  1.000000
   Density functional embedding theory  .... OFF
 RI-approximation to the Coulomb term is turned on
   Number of auxiliary basis functions  .... 264
   RI-JK (J+K treated both via RI)      .... on


General Settings:
 Integral files         IntName         .... Cr+
 Hartree-Fock type      HFTyp           .... UHF
 Total Charge           Charge          ....    1
 Multiplicity           Mult            ....    6
 Number of Electrons    NEL             ....   23
 Basis Dimension        Dim             ....   67
 Nuclear Repulsion      ENuc            ....      0.0000000000 Eh

Convergence Acceleration:
 DIIS                   CNVDIIS         .... on
   Start iteration      DIISMaxIt       ....    12
   Startup error        DIISStart       ....  0.200000
   # of expansion vecs  DIISMaxEq       ....     5
   Bias factor          DIISBfac        ....   1.050
   Max. coefficient     DIISMaxC        ....  10.000
 Newton-Raphson         CNVNR           .... off
 SOSCF                  CNVSOSCF        .... off
 Level Shifting         CNVShift        .... on
   Level shift para.    LevelShift      ....    0.2500
   Turn off err/grad.   ShiftErr        ....    0.0010
 Zerner damping         CNVZerner       .... off
 Static damping         CNVDamp         .... on
   Fraction old density DampFac         ....    0.7000
   Max. Damping (<1)    DampMax         ....    0.9800
   Min. Damping (>=0)   DampMin         ....    0.0000
   Turn off err/grad.   DampErr         ....    0.1000
 Fernandez-Rico         CNVRico         .... off

SCF Procedure:
 Maximum # iterations   MaxIter         ....   125
 SCF integral mode      SCFMode         .... Direct
   Integral package                     .... LIBINT
 Reset frequency        DirectResetFreq ....    20
 Integral Threshold     Thresh          ....  1.000e-10 Eh
 Primitive CutOff       TCut            ....  1.000e-11 Eh

Convergence Tolerance:
 Convergence Check Mode ConvCheckMode   .... Total+1el-Energy
 Convergence forced     ConvForced      .... 0
 Energy Change          TolE            ....  1.000e-06 Eh
 1-El. energy change                    ....  1.000e-03 Eh
 DIIS Error             TolErr          ....  1.000e-06


Diagonalization of the overlap matrix:
Smallest eigenvalue                        ... 4.166e-02
Time for diagonalization                   ...    0.002 sec
Threshold for overlap eigenvalues          ... 1.000e-08
Number of eigenvalues below threshold      ... 0
Time for construction of square roots      ...    0.014 sec
Total time needed                          ...    0.016 sec

-------------------
DFT GRID GENERATION
-------------------

General Integration Accuracy     IntAcc      ...  4.670
Radial Grid Type                 RadialGrid  ... Gauss-Chebyshev
Angular Grid (max. acc.)         AngularGrid ... Lebedev-302
Angular grid pruning method      GridPruning ... 3 (G Style)
Weight generation scheme         WeightScheme... Becke
Basis function cutoff            BFCut       ...    1.0000e-10
Integration weight cutoff        WCut        ...    1.0000e-14
Grids for H and He will be reduced by one unit

# of grid points (after initial pruning)     ...   9664 (   0.0 sec)
# of grid points (after weights+screening)   ...   9664 (   0.0 sec)
Grid point division into batches done        ...    0.1 sec
Reduced shell lists constructed in    0.1 sec

Total number of grid points                  ...     9664
Total number of batches                      ...      152
Average number of points per batch           ...       63
Average number of grid points per atom       ...     9664
Average number of shells per batch           ...     3.43 (18.05%)
Average number of basis functions per batch  ...    10.29 (15.35%)
Average number of large shells per batch     ...     3.43 (100.00%)
Average number of large basis fcns per batch ...    10.29 (100.00%)
Average number of aux-shells per batch       ...     3.43 ( 5.91%)
Average number of aux functions per batch    ...    10.29 ( 3.90%)
Maximum spatial batch extension              ...  22.27, 22.27, 22.27 au
Average spatial batch extension              ...   0.77,  0.76,  0.74 au

Time for grid setup =    0.137 sec

------------------------------
INITIAL GUESS: MODEL POTENTIAL
------------------------------
Loading Hartree-Fock densities                     ... done
Calculating cut-offs                               ... done
Setting up the integral package                    ... done
Initializing the effective Hamiltonian             ... done
Starting the Coulomb interaction                   ... done (   0.0 sec)
Reading the grid                                   ... done
Mapping shells                                     ... done
Starting the XC term evaluation                    ... done (   0.0 sec)
  promolecular density results
     # of electrons  =     24.000004859
     EX              =    -47.405755184
     EC              =     -0.144674905
     EX+EC           =    -47.550430089
Transforming the Hamiltonian                       ... done (   0.0 sec)
Diagonalizing the Hamiltonian                      ... done (   0.0 sec)
Back transforming the eigenvectors                 ... done (   0.0 sec)
Now organizing SCF variables                       ... done
                      ------------------
                      INITIAL GUESS DONE (   0.3 sec)
                      ------------------
--------------
SCF ITERATIONS
--------------
ITER       Energy         Delta-E        Max-DP      RMS-DP      [F,P]     Damp
  0  -1043.6646840007   0.000000000000 0.01023807  0.00040178  0.0834068 0.7000
  1  -1043.6600208715   0.004663129275 0.00884018  0.00037290  0.0685990 0.7000
                               ***Turning on DIIS***
  2  -1043.6708750951  -0.010854223607 0.01979129  0.00091933  0.0461644 0.0000
  3  -1043.6814380969  -0.010563001872 0.00298901  0.00015321  0.0049417 0.0000
  4  -1043.6815142723  -0.000076175396 0.00114180  0.00004465  0.0034930 0.0000
  5  -1043.6815400328  -0.000025760428 0.00037602  0.00001593  0.0004749 0.0000
  6  -1043.6815413063  -0.000001273521 0.00005090  0.00000182  0.0000348 0.0000
                 **** Energy Check signals convergence ****

               *****************************************************
               *                     SUCCESS                       *
               *           SCF CONVERGED AFTER   7 CYCLES          *
               *****************************************************


----------------
TOTAL SCF ENERGY
----------------

Total Energy       :        -1043.68154133 Eh          -28400.01857 eV

Components:
Nuclear Repulsion  :            0.00000000 Eh               0.00000 eV
Electronic Energy  :        -1043.68154133 Eh          -28400.01857 eV
One Electron Energy:        -1433.07036201 Eh          -38995.82706 eV
Two Electron Energy:          389.38882069 Eh           10595.80849 eV

Virial components:
Potential Energy   :        -2086.56496796 Eh          -56778.31933 eV
Kinetic Energy     :         1042.88342664 Eh           28378.30076 eV
Virial Ratio       :            2.00076530


DFT components:
N(Alpha)           :       13.999999985059 electrons
N(Beta)            :        8.999999985095 electrons
N(Total)           :       22.999999970153 electrons
E(X)               :      -13.837468176541 Eh       
E(C)               :       -0.544918587667 Eh       
E(XC)              :      -14.382386764207 Eh       
DFET-embed. en.    :        0.000000000000 Eh       

---------------
SCF CONVERGENCE
---------------

  Last Energy change         ...   -1.8735e-08  Tolerance :   1.0000e-06
  Last MAX-Density change    ...    7.5839e-06  Tolerance :   1.0000e-05
  Last RMS-Density change    ...    2.8849e-07  Tolerance :   1.0000e-06
  Last DIIS Error            ...    4.5676e-06  Tolerance :   1.0000e-06

             **** THE GBW FILE WAS UPDATED (Cr+.gbw) ****
             **** DENSITY FILE WAS UPDATED (Cr+.scfp) ****
             **** ENERGY FILE WAS UPDATED (Cr+.en.tmp) ****
----------------------
UHF SPIN CONTAMINATION
----------------------

Warning: in a DFT calculation there is little theoretical justification to 
         calculate <S**2> as in Hartree-Fock theory. We will do it anyways
         but you should keep in mind that the values have only limited relevance

Expectation value of <S**2>     :     8.750216
Ideal value S*(S+1) for S=2.5   :     8.750000
Deviation                       :     0.000216

             **** THE GBW FILE WAS UPDATED (Cr+.gbw) ****
             **** DENSITY FILE WAS UPDATED (Cr+.scfp) ****
----------------
ORBITAL ENERGIES
----------------
                 SPIN UP ORBITALS
  NO   OCC          E(Eh)            E(eV) 
   0   1.0000    -218.948509     -5957.8918 
   1   1.0000     -25.920923      -705.3442 
   2   1.0000     -21.981753      -598.1539 
   3   1.0000     -21.981753      -598.1539 
   4   1.0000     -21.981753      -598.1539 
   5   1.0000      -3.505282       -95.3836 
   6   1.0000      -2.369635       -64.4810 
   7   1.0000      -2.369635       -64.4810 
   8   1.0000      -2.369635       -64.4810 
   9   1.0000      -0.577125       -15.7044 
  10   1.0000      -0.577125       -15.7044 
  11   1.0000      -0.577125       -15.7044 
  12   1.0000      -0.577125       -15.7044 
  13   1.0000      -0.577125       -15.7044 
  14   0.0000      -0.255132        -6.9425 
  15   0.0000      -0.144473        -3.9313 
  16   0.0000      -0.144473        -3.9313 
  17   0.0000      -0.144473        -3.9313 
  18   0.0000      -0.030295        -0.8244 
  19   0.0000      -0.027211        -0.7405 
  20   0.0000      -0.027211        -0.7405 
  21   0.0000      -0.027211        -0.7405 
  22   0.0000      -0.020840        -0.5671 
  23   0.0000      -0.020840        -0.5671 
  24   0.0000      -0.020840        -0.5671 
  25   0.0000      -0.020840        -0.5671 
  26   0.0000      -0.020840        -0.5671 
  27   0.0000       0.279032         7.5928 
  28   0.0000       0.279032         7.5929 
  29   0.0000       0.279032         7.5929 
  30   0.0000       0.375400        10.2151 
  31   0.0000       0.375400        10.2151 
  32   0.0000       0.375400        10.2151 
  33   0.0000       0.375400        10.2151 
  34   0.0000       0.375400        10.2151 
  35   0.0000       1.413776        38.4708 
  36   0.0000       1.413776        38.4708 
  37   0.0000       1.413776        38.4708 
  38   0.0000       1.413776        38.4708 
  39   0.0000       1.413776        38.4708 
  40   0.0000       1.413776        38.4708 
  41   0.0000       1.413776        38.4708 
  42   0.0000       1.750895        47.6443 
  43   0.0000       1.750895        47.6443 
  44   0.0000       1.750895        47.6443 
  45   0.0000       1.917149        52.1683 
  46   0.0000       2.073922        56.4343 
  47   0.0000       2.073922        56.4343 
  48   0.0000       2.073922        56.4343 
  49   0.0000       2.073922        56.4343 
  50   0.0000       2.073922        56.4343 
  51   0.0000       5.639884       153.4691 
  52   0.0000       5.639884       153.4691 
  53   0.0000       5.639884       153.4691 
  54   0.0000       5.639884       153.4691 
  55   0.0000       5.639884       153.4691 
  56   0.0000       5.639884       153.4691 
  57   0.0000       5.639884       153.4691 
  58   0.0000       5.639884       153.4691 
  59   0.0000       5.639884       153.4691 
  60   0.0000       6.325795       172.1336 
  61   0.0000       6.325795       172.1336 
  62   0.0000       6.325795       172.1336 
  63   0.0000       6.325795       172.1336 
  64   0.0000       6.325795       172.1336 
  65   0.0000       6.325795       172.1336 
  66   0.0000       6.325795       172.1336 

                 SPIN DOWN ORBITALS
  NO   OCC          E(Eh)            E(eV) 
   0   1.0000    -218.947811     -5957.8728 
   1   1.0000     -25.833247      -702.9584 
   2   1.0000     -21.897927      -595.8729 
   3   1.0000     -21.897927      -595.8729 
   4   1.0000     -21.897927      -595.8729 
   5   1.0000      -3.217159       -87.5433 
   6   1.0000      -2.026364       -55.1402 
   7   1.0000      -2.026364       -55.1402 
   8   1.0000      -2.026364       -55.1402 
   9   0.0000      -0.230167        -6.2632 
  10   0.0000      -0.133051        -3.6205 
  11   0.0000      -0.133051        -3.6205 
  12   0.0000      -0.133051        -3.6205 
  13   0.0000      -0.062069        -1.6890 
  14   0.0000      -0.062069        -1.6890 
  15   0.0000      -0.062069        -1.6890 
  16   0.0000      -0.062069        -1.6890 
  17   0.0000      -0.062069        -1.6890 
  18   0.0000      -0.018829        -0.5124 
  19   0.0000      -0.018829        -0.5124 
  20   0.0000      -0.018829        -0.5124 
  21   0.0000      -0.012491        -0.3399 
  22   0.0000       0.054059         1.4710 
  23   0.0000       0.054059         1.4710 
  24   0.0000       0.054059         1.4710 
  25   0.0000       0.054059         1.4710 
  26   0.0000       0.054060         1.4710 
  27   0.0000       0.306457         8.3391 
  28   0.0000       0.306457         8.3391 
  29   0.0000       0.306457         8.3391 
  30   0.0000       0.480047        13.0627 
  31   0.0000       0.480047        13.0627 
  32   0.0000       0.480047        13.0627 
  33   0.0000       0.480047        13.0627 
  34   0.0000       0.480047        13.0627 
  35   0.0000       1.517820        41.3020 
  36   0.0000       1.517820        41.3020 
  37   0.0000       1.517820        41.3020 
  38   0.0000       1.517820        41.3020 
  39   0.0000       1.517820        41.3020 
  40   0.0000       1.517820        41.3020 
  41   0.0000       1.517820        41.3020 
  42   0.0000       1.839557        50.0569 
  43   0.0000       1.839557        50.0569 
  44   0.0000       1.839557        50.0569 
  45   0.0000       2.023296        55.0567 
  46   0.0000       2.221772        60.4575 
  47   0.0000       2.221772        60.4575 
  48   0.0000       2.221772        60.4575 
  49   0.0000       2.221772        60.4575 
  50   0.0000       2.221772        60.4575 
  51   0.0000       5.756731       156.6486 
  52   0.0000       5.756731       156.6486 
  53   0.0000       5.756731       156.6486 
  54   0.0000       5.756731       156.6486 
  55   0.0000       5.756731       156.6486 
  56   0.0000       5.756731       156.6486 
  57   0.0000       5.756731       156.6486 
  58   0.0000       5.756731       156.6486 
  59   0.0000       5.756731       156.6486 
  60   0.0000       6.540144       177.9664 
  61   0.0000       6.540144       177.9664 
  62   0.0000       6.540144       177.9664 
  63   0.0000       6.540144       177.9664 
  64   0.0000       6.540144       177.9664 
  65   0.0000       6.540144       177.9664 
  66   0.0000       6.540144       177.9664 

                    ********************************
                    * MULLIKEN POPULATION ANALYSIS *
                    ********************************

--------------------------------------------
MULLIKEN ATOMIC CHARGES AND SPIN POPULATIONS
--------------------------------------------
   0 Cr:    1.000000    5.000000
Sum of atomic charges         :    1.0000000
Sum of atomic spin populations:    5.0000000

-----------------------------------------------------
MULLIKEN REDUCED ORBITAL CHARGES AND SPIN POPULATIONS
-----------------------------------------------------
CHARGE
  0 Crs       :     6.000000  s :     6.000000
      pz      :     4.000000  p :    12.000000
      px      :     4.000000
      py      :     4.000000
      dz2     :     1.000000  d :     5.000000
      dxz     :     1.000000
      dyz     :     1.000000
      dx2y2   :     1.000000
      dxy     :     1.000000
      f0      :     0.000000  f :     0.000000
      f+1     :     0.000000
      f-1     :     0.000000
      f+2     :     0.000000
      f-2     :     0.000000
      f+3     :     0.000000
      f-3     :     0.000000
      g0      :     0.000000  g :     0.000000
      g+1     :     0.000000
      g-1     :     0.000000
      g+2     :     0.000000
      g-2     :     0.000000
      g+3     :     0.000000
      g-3     :     0.000000
      g+4     :     0.000000
      g-4     :     0.000000

SPIN
  0 Crs       :    -0.000000  s :    -0.000000
      pz      :    -0.000000  p :    -0.000000
      px      :    -0.000000
      py      :    -0.000000
      dz2     :     1.000000  d :     5.000000
      dxz     :     1.000000
      dyz     :     1.000000
      dx2y2   :     1.000000
      dxy     :     1.000000
      f0      :     0.000000  f :     0.000000
      f+1     :     0.000000
      f-1     :     0.000000
      f+2     :     0.000000
      f-2     :     0.000000
      f+3     :     0.000000
      f-3     :     0.000000
      g0      :     0.000000  g :    -0.000000
      g+1     :    -0.000000
      g-1     :    -0.000000
      g+2     :    -0.000000
      g-2     :     0.000000
      g+3     :    -0.000000
      g-3     :     0.000000
      g+4     :     0.000000
      g-4     :    -0.000000


                     *******************************
                     * LOEWDIN POPULATION ANALYSIS *
                     *******************************

-------------------------------------------
LOEWDIN ATOMIC CHARGES AND SPIN POPULATIONS
-------------------------------------------
   0 Cr:    1.000000    5.000000

----------------------------------------------------
LOEWDIN REDUCED ORBITAL CHARGES AND SPIN POPULATIONS
----------------------------------------------------
CHARGE
  0 Crs       :     6.000000  s :     6.000000
      pz      :     4.000000  p :    12.000000
      px      :     4.000000
      py      :     4.000000
      dz2     :     1.000000  d :     5.000000
      dxz     :     1.000000
      dyz     :     1.000000
      dx2y2   :     1.000000
      dxy     :     1.000000
      f0      :     0.000000  f :     0.000000
      f+1     :     0.000000
      f-1     :     0.000000
      f+2     :     0.000000
      f-2     :     0.000000
      f+3     :     0.000000
      f-3     :     0.000000
      g0      :     0.000000  g :     0.000000
      g+1     :     0.000000
      g-1     :     0.000000
      g+2     :     0.000000
      g-2     :     0.000000
      g+3     :     0.000000
      g-3     :     0.000000
      g+4     :     0.000000
      g-4     :     0.000000

SPIN
  0 Crs       :    -0.000000  s :    -0.000000
      pz      :    -0.000000  p :    -0.000000
      px      :    -0.000000
      py      :    -0.000000
      dz2     :     1.000000  d :     5.000000
      dxz     :     1.000000
      dyz     :     1.000000
      dx2y2   :     1.000000
      dxy     :     1.000000
      f0      :     0.000000  f :     0.000000
      f+1     :     0.000000
      f-1     :     0.000000
      f+2     :     0.000000
      f-2     :     0.000000
      f+3     :     0.000000
      f-3     :     0.000000
      g0      :     0.000000  g :    -0.000000
      g+1     :    -0.000000
      g-1     :    -0.000000
      g+2     :    -0.000000
      g-2     :     0.000000
      g+3     :    -0.000000
      g-3     :     0.000000
      g+4     :     0.000000
      g-4     :    -0.000000


                      *****************************
                      * MAYER POPULATION ANALYSIS *
                      *****************************

  NA   - Mulliken gross atomic population
  ZA   - Total nuclear charge
  QA   - Mulliken gross atomic charge
  VA   - Mayer's total valence
  BVA  - Mayer's bonded valence
  FA   - Mayer's free valence

  ATOM       NA         ZA         QA         VA         BVA        FA
  0 Cr    23.0000    24.0000     1.0000     5.0004     0.0000     5.0004

  Mayer bond orders larger than 0.100000


-------
TIMINGS
-------

Total SCF time: 0 days 0 hours 0 min 10 sec 

Total time                  ....      10.700 sec
Sum of individual times     ....      10.377 sec  ( 97.0%)

Fock matrix formation       ....       9.760 sec  ( 91.2%)
  XC integration            ....       8.005 sec  ( 82.0% of F)
    Basis function eval.    ....       0.006 sec  (  0.1% of XC)
    Density eval.           ....       0.008 sec  (  0.1% of XC)
    XC-Functional eval.     ....       0.010 sec  (  0.1% of XC)
    XC-Potential eval.      ....       0.009 sec  (  0.1% of XC)
Diagonalization             ....       0.194 sec  (  1.8%)
Density matrix formation    ....       0.003 sec  (  0.0%)
Population analysis         ....       0.124 sec  (  1.2%)
Initial guess               ....       0.119 sec  (  1.1%)
Orbital Transformation      ....       0.000 sec  (  0.0%)
Orbital Orthonormalization  ....       0.000 sec  (  0.0%)
DIIS solution               ....       0.041 sec  (  0.4%)
Grid generation             ....       0.137 sec  (  1.3%)


           ************************************************************
           *        Program running with 28 parallel MPI-processes    *
           *              working on a common directory               *
           ************************************************************

------------------------------------------------------------------------------
                                ORCA  MP2 
------------------------------------------------------------------------------

Freezing NCore=10 chemical core electrons

-------------
RI-MP2 ENERGY
-------------
Dimension of the basis                    ...   67
Memory devoted to MP2                     ... 5000 MB   
Data format for buffers                   ... DOUBLE
Compression type for matrix containers    ... UNCOMPRESSED
Scaling for aa/bb pairs                   ...   4.000e-01
Scaling for ab pairs                      ...   4.700e-01
Overall scaling of the MP2 energy         ...   1.000e+00
Calculating two index integrals           ... done (    0.004 sec)
Cholesky decomposition of V**-1           ... done (    0.008 sec)

-----------------
RI-TRANSFORMATION (AUX index driven)
-----------------

Dimension of the orbital-basis         ... 67
Dimension of the aux-basis             ... 225
Transformation of internal/external MOs...    5-  13 to   14-  66
Number Format for Storage              ... Double (8 Byte)
Integral mode                          ... Direct

First Phase: integral generation and transformation of MO indices
  Aux angular momentum 0               ... done (    0.000 sec)
  Aux angular momentum 1               ... done (    0.002 sec)
  Aux angular momentum 2               ... done (    0.001 sec)
  Aux angular momentum 3               ... done (    0.001 sec)
  Aux angular momentum 4               ... done (    0.001 sec)
  Aux angular momentum 5               ... done (    0.002 sec)
  Aux angular momentum 6               ... done (    0.003 sec)
Closing buffer VIA ( 0.00 GB; CompressionRatio= 1.00)
  Phase 1 completed in     0.130 sec
Second Phase: sorting and transformation of aux index

IA-Transformation
Memory available                       ... 5000 MB 
Max. # MO pairs treated in a batch     ... 1    
# of internal orbitals                 ... 9
# batches for internal orbitals        ... 1
Closing buffer IAV ( 0.00 GB; CompressionRatio= 1.00)
(ia|v) transformation done in     0.020 sec

  Phase 2 completed in     0.316 sec
RI-Integral transformation completed in     0.536 sec

-----------------
RI-TRANSFORMATION (AUX index driven)
-----------------

Dimension of the orbital-basis         ... 67
Dimension of the aux-basis             ... 225
Transformation of internal/external MOs...    5-   8 to    9-  66
Number Format for Storage              ... Double (8 Byte)
Integral mode                          ... Direct

First Phase: integral generation and transformation of MO indices
  Aux angular momentum 0               ... done (    0.000 sec)
  Aux angular momentum 1               ... done (    0.002 sec)
  Aux angular momentum 2               ... done (    0.001 sec)
  Aux angular momentum 3               ... done (    0.001 sec)
  Aux angular momentum 4               ... done (    0.001 sec)
  Aux angular momentum 5               ... done (    0.002 sec)
  Aux angular momentum 6               ... done (    0.003 sec)
Closing buffer VIA ( 0.00 GB; CompressionRatio= 0.99)
  Phase 1 completed in     0.160 sec
Second Phase: sorting and transformation of aux index

IA-Transformation
Memory available                       ... 5000 MB 
Max. # MO pairs treated in a batch     ... 1    
# of internal orbitals                 ... 4
# batches for internal orbitals        ... 1
Closing buffer IAV ( 0.00 GB; CompressionRatio= 1.00)
(ia|v) transformation done in     0.021 sec

  Phase 2 completed in     0.086 sec
RI-Integral transformation completed in     0.256 sec
Opening buffers                              ... done

Starting loop over batches of integrals:

Operator 0  - window                       ... (  5- 13)x( 14- 66)
Operator 0  - Memory available             ...  5000 MB
Operator 0  - Memory needed per MO         ...   0.1 MB
Operator 0  - Number of orbitals per batch ... 1
Operator 0  - Number of batches            ... 1

OPERATOR  0   PASS   0:  MOs     5 ...    5 +    6 ...    6 +    7 ...    7 +    8 ...    8
                            +    9 ...    9 +   10 ...   10 +   11 ...   11 +   12 ...   12
                            +   13 ...   13
  Reading integrals       ... ok

Operator 1  - window                       ... (  5-  8)x(  9- 66)
Operator 1  - Memory available             ...  5000 MB
Operator 1  - Memory needed per MO         ...   0.1 MB
Operator 1  - Number of orbitals per batch ... 1
Operator 1  - Number of batches            ... 1

OPERATOR  1   PASS   0:  MOs     5 ...    5 +    6 ...    6 +    7 ...    7 +    8 ...    8
  Reading integrals       ... ok
Time spent in pair loops =     0.005 sec
Deleting buffer (Ka|jb)[aa] ...done
Deleting buffer (Ka|jb)[ab] ...done
Deleting buffer (Ka|jb)[ba] ...done
Deleting buffer (Ka|jb)[bb] ...done

Spin-scaled correlation energy components}
 E2 and T2 for alpha/alpha pairs :     -0.054080153 Eh      0.000000000
 E2 and T2 for beta/beta   pairs :     -0.012593311 Eh      0.000000000
 E2 and T2 for alpha/beta  pairs :     -0.117508328 Eh      0.000000000


-----------------------------------------------
 RI-MP2 CORRELATION ENERGY:     -0.184181792 Eh
-----------------------------------------------


-------
TIMINGS
-------

Total time                :    0.864 sec
Integral trafo            :    0.821 sec ( 95.1%)
I/O of integrals          :    0.000 sec (  0.0%)
K(i,j) Operators          :    0.001 sec (  0.1%)
T(i,j) pair energies      :    0.000 sec (  0.0%)
V-calculation             :    0.004 sec (  0.5%)
V**(-1/2)                 :    0.008 sec (  0.9%)
Gamma(ia|P)               :    0.000 sec (  0.0%)
Gamma-Trafo               :    0.000 sec (  0.0%)
D(virtual)                :    0.000 sec (  0.0%)
D(internal)               :    0.000 sec (  0.0%)
W(virtual)                :    0.000 sec (  0.0%)
W(internal)               :    0.000 sec (  0.0%)
L(virtual)                :    0.000 sec (  0.0%)
L(internal)               :    0.000 sec (  0.0%)
G(D)                      :    0.000 sec (  0.0%)
G(Z)                      :    0.000 sec (  0.0%)
Z-Vector Solution         :    0.000 sec (  0.0%)
Z-Vector Solution         :    0.000 sec (  0.0%)
3-Index Derivative 
+ Separable RIJ part      :    0.000 sec (  0.0%)
2-Index Derivative 
+ Separable RIJ part      :    0.000 sec (  0.0%)
Separable Gradient (X)    :    0.000 sec (  0.0%)


---------------------------------------
MP2 TOTAL ENERGY:    -1043.865723117 Eh
---------------------------------------


-------------------------------------------------------------------------------
                          DFT DISPERSION CORRECTION                            
                                                                               
                              DFTD3 V3.1  Rev 1                                
                          USING Becke-Johnson damping                          
-------------------------------------------------------------------------------
The DSD-BLYP/2013 functional is recognized
Active option DFTDOPT                   ...         4   

molecular C6(AA) [au] = 690.741670 


            DFT-D V3
 parameters
 s6 scaling factor         :     0.5700 
 a1 scaling factor         :     0.0000 
 s8 scaling factor         :     0.0000 
 a2 scaling factor         :     5.4000 
 ad hoc parameters k1-k3   :    16.0000     1.3333    -4.0000 

 Edisp/kcal,au: -0.000000000000  -0.000000000000 
 E6   /kcal   :  -0.000000000 
 E8   /kcal   :  -0.000000000 
 % E8         :          -nan 

-------------------------   ----------------
Dispersion correction            0.000000000
-------------------------   ----------------


-------------------------   --------------------
FINAL SINGLE POINT ENERGY     -1043.865723117488
-------------------------   --------------------


                            ***************************************
                            *     ORCA property calculations      *
                            ***************************************


  WARNING: The energy has been calculated at the MP2 level but the densities
           used in the property calculations are still SCF densities
           MP2 response densities have not been calculated 
           use %mp2 Density relaxed end
           or  %mp2 Density unrelaxed end

                                    ---------------------
                                    Active property flags
                                    ---------------------
   (+) Dipole Moment


------------------------------------------------------------------------------
                       ORCA ELECTRIC PROPERTIES CALCULATION
------------------------------------------------------------------------------

Dipole Moment Calculation                       ... on
Quadrupole Moment Calculation                   ... off
Polarizability Calculation                      ... off
GBWName                                         ... Cr+.gbw
Electron density file                           ... Cr+.scfp
The origin for moment calculation is the CENTER OF MASS  = ( 0.000000,  0.000000  0.000000)

-------------
DIPOLE MOMENT
-------------
                                X             Y             Z
Electronic contribution:     -0.00000      -0.00000       0.00000
Nuclear contribution   :      0.00000       0.00000       0.00000
                        -----------------------------------------
Total Dipole Moment    :     -0.00000      -0.00000       0.00000
                        -----------------------------------------
Magnitude (a.u.)       :      0.00000
Magnitude (Debye)      :      0.00000



--------------------
Rotational spectrum 
--------------------
 
Rotational constants in cm-1:     0.000000     0.000000     0.000000 
Rotational constants in MHz :     0.000000     0.000000     0.000000 

 Dipole components along the rotational axes: 
x,y,z [a.u.] :    -0.000000    -0.000000     0.000000 
x,y,z [Debye]:    -0.000000    -0.000000     0.000000 

 

Timings for individual modules:

Sum of individual times         ...       13.816 sec (=   0.230 min)
GTO integral calculation        ...        0.843 sec (=   0.014 min)   6.1 %
SCF iterations                  ...       11.273 sec (=   0.188 min)  81.6 %
MP2 module                      ...        1.700 sec (=   0.028 min)  12.3 %
                             ****ORCA TERMINATED NORMALLY****
TOTAL RUN TIME: 0 days 0 hours 0 minutes 14 seconds 602 msec
