
                                 *****************
                                 * O   R   C   A *
                                 *****************

           --- An Ab Initio, DFT and Semiempirical electronic structure package ---

                  #######################################################
                  #                        -***-                        #
                  #          Department of theory and spectroscopy      #
                  #               Directorship: Frank Neese             #
                  #        Max Planck Institute fuer Kohlenforschung    #
                  #                Kaiser Wilhelm Platz 1               #
                  #                 D-45470 Muelheim/Ruhr               #
                  #                      Germany                        #
                  #                                                     #
                  #                  All rights reserved                #
                  #                        -***-                        #
                  #######################################################


                         Program Version 4.2.0 -  RELEASE  -


 With contributions from (in alphabetic order):
   Daniel Aravena         : Magnetic Suceptibility
   Michael Atanasov       : Ab Initio Ligand Field Theory (pilot matlab implementation)
   Alexander A. Auer      : GIAO ZORA, VPT2
   Ute Becker             : Parallelization
   Giovanni Bistoni       : ED, misc. LED, open-shell LED, HFLED
   Martin Brehm           : Molecular dynamics
   Dmytro Bykov           : SCF Hessian
   Vijay G. Chilkuri      : MRCI spin determinant printing, contributions to CSF-ICE
   Dipayan Datta          : RHF DLPNO-CCSD density
   Achintya Kumar Dutta   : EOM-CC, STEOM-CC
   Dmitry Ganyushin       : Spin-Orbit,Spin-Spin,Magnetic field MRCI
   Miquel Garcia          : C-PCM Hessian, Gaussian charge scheme
   Yang Guo               : DLPNO-NEVPT2, CIM, IAO-localization
   Andreas Hansen         : Spin unrestricted coupled pair/coupled cluster methods
   Benjamin Helmich-Paris : CASSCF linear response (MC-RPA)
   Lee Huntington         : MR-EOM, pCC
   Robert Izsak           : Overlap fitted RIJCOSX, COSX-SCS-MP3, EOM
   Christian Kollmar      : KDIIS, OOCD, Brueckner-CCSD(T), CCSD density
   Simone Kossmann        : Meta GGA functionals, TD-DFT gradient, OOMP2, MP2 Hessian
   Martin Krupicka        : AUTO-CI
   Lucas Lang             : DCDCAS
   Dagmar Lenk            : GEPOL surface, SMD
   Dimitrios Liakos       : Extrapolation schemes; Compound Job, initial MDCI parallelization
   Dimitrios Manganas     : Further ROCIS development; embedding schemes
   Dimitrios Pantazis     : SARC Basis sets
   Taras Petrenko         : DFT Hessian,TD-DFT gradient, ASA, ECA, R-Raman, ABS, FL, XAS/XES, NRVS
   Peter Pinski           : DLPNO-MP2, DLPNO-MP2 Gradient
   Christoph Reimann      : Effective Core Potentials
   Marius Retegan         : Local ZFS, SOC
   Christoph Riplinger    : Optimizer, TS searches, QM/MM, DLPNO-CCSD(T), (RO)-DLPNO pert. Triples
   Tobias Risthaus        : Range-separated hybrids, TD-DFT gradient, RPA, STAB
   Michael Roemelt        : Original ROCIS implementation
   Masaaki Saitow         : Open-shell DLPNO-CCSD energy and density
   Barbara Sandhoefer     : DKH picture change effects
   Avijit Sen             : IP-ROCIS
   Kantharuban Sivalingam : CASSCF convergence, NEVPT2, FIC-MRCI
   Bernardo de Souza      : ESD, SOC TD-DFT
   Georgi Stoychev        : AutoAux, RI-MP2 NMR
   Willem Van den Heuvel  : Paramagnetic NMR
   Boris Wezisla          : Elementary symmetry handling
   Frank Wennmohs         : Technical directorship


 We gratefully acknowledge several colleagues who have allowed us to
 interface, adapt or use parts of their codes:
   Stefan Grimme, W. Hujo, H. Kruse,             : VdW corrections, initial TS optimization,
                  C. Bannwarth                     DFT functionals, gCP, sTDA/sTD-DF
   Ed Valeev, F. Pavosevic, A. Kumar             : LibInt (2-el integral package), F12 methods
   Garnet Chan, S. Sharma, J. Yang, R. Olivares  : DMRG
   Ulf Ekstrom                                   : XCFun DFT Library
   Mihaly Kallay                                 : mrcc  (arbitrary order and MRCC methods)
   Andreas Klamt, Michael Diedenhofen            : otool_cosmo (COSMO solvation model)
   Jiri Pittner, Ondrej Demel                    : Mk-CCSD
   Frank Weinhold                                : gennbo (NPA and NBO analysis)
   Christopher J. Cramer and Donald G. Truhlar   : smd solvation model
   Lars Goerigk                                  : TD-DFT with DH, B97 family of functionals
   V. Asgeirsson, H. Jonsson                     : NEB implementation
   FAccTs GmbH                                   : IRC, NEB, NEB-TS, Multilevel, MM, QM/MM, CI optimization
   S Lehtola, MJT Oliveira, MAL Marques          : LibXC Library


 Your calculation uses the libint2 library for the computation of 2-el integrals
 For citations please refer to: http://libint.valeyev.net

 Your ORCA version has been built with support for libXC version: 4.2.3
 For citations please refer to: https://tddft.org/programs/libxc/

 This ORCA versions uses:
   CBLAS   interface :  Fast vector & matrix operations
   LAPACKE interface :  Fast linear algebra routines
   SCALAPACK package :  Parallel linear algebra routines


Your calculation utilizes the atom-pairwise dispersion correction
with the Becke-Johnson damping scheme (D3BJ)
Cite in your paper:
S.Grimme, S.Ehrlich, L.Goerigk, J Comput Chem, (2011), 32, 1456–1465 
S.Grimme, J.Antony, S.Ehrlich and H.Krieg, J.Chem.Phys., 132, (2010), 154104 
   

----- Orbital basis set information -----
Your calculation utilizes the basis: def2-TZVPPD
   F. Weigend and R. Ahlrichs, Phys. Chem. Chem. Phys. 7, 3297 (2005).
   D. Rappoport and F. Furche, J. Chem. Phys. 133 134105 (2010).

----- AuxC basis set information -----
Your calculation utilizes the auxiliary basis: def2-TZVPPD/C
   A. Hellweg, C. Hattig, S. Hofener and W. Klopper, Theor. Chem. Acc. 117, 587 (2007).

----- AuxJK basis set information -----
Your calculation utilizes the auxiliary basis: def2/JK
   H-Ba, Hf-Rn: F. Weigend, J. Comput. Chem. 29, 167 (2008).

================================================================================
                                        WARNINGS
                       Please study these warnings very carefully!
================================================================================


WARNING: your system is open-shell and RHF/RKS was chosen
  ===> : WILL SWITCH to UHF/UKS


WARNING: No MP2 level density has been requested!
         To caclulate MP2 level properties use
         %mp2 Density relaxed end
         or
         %mp2 Density unrelaxed end
         Otherwise for double-hybrid DFT only the energy is correct!

WARNING: There are different parametrizations of Gershom Martin's DSD-DFs
         for use with and without D3(BJ)!
         You are using the D3(BJ) parametrized version,
         consistent with the 2013 article (S. Kozuch and J. M. L. Martin, JCC 2013, 34, 2327)

WARNING: The frozen-core approximation is turned on by default for 
         the MP2 part of double-hybrid DFT.

INFO   : the flag for use of LIBINT has been found!

================================================================================
                                       INPUT FILE
================================================================================
NAME = CrCH3+.in
|  1> #
|  2> # CrCH3+ ri-DSD-BLYP/2013-D3BJ/Def2-TZVPPD
|  3> #
|  4> ! rijk ri-dsd-blyp/2013 d3bj def2-tzvppd def2/jk def2-tzvppd/c grid4 nofinalgrid
|  5> 
|  6> *xyz 1 5
|  7> C          0.00000        0.00000        0.00000
|  8> H          0.00000        0.00000        1.10000
|  9> H          1.03709        0.00000       -0.36667
| 10> H         -0.51855        0.89815       -0.36667
| 11> Cr        -0.89567       -1.55134       -0.63333
| 12> *
| 13> 
| 14> %maxcore 5000
| 15> 
| 16> %pal
| 17> nprocs = 28
| 18> end
| 19> 
| 20> 
| 21>                          ****END OF INPUT****
================================================================================

                       ****************************
                       * Single Point Calculation *
                       ****************************

---------------------------------
CARTESIAN COORDINATES (ANGSTROEM)
---------------------------------
  C      0.000000    0.000000    0.000000
  H      0.000000    0.000000    1.100000
  H      1.037090    0.000000   -0.366670
  H     -0.518550    0.898150   -0.366670
  Cr    -0.895670   -1.551340   -0.633330

----------------------------
CARTESIAN COORDINATES (A.U.)
----------------------------
  NO LB      ZA    FRAG     MASS         X           Y           Z
   0 C     6.0000    0    12.011    0.000000    0.000000    0.000000
   1 H     1.0000    0     1.008    0.000000    0.000000    2.078699
   2 H     1.0000    0     1.008    1.959816    0.000000   -0.692906
   3 H     1.0000    0     1.008   -0.979917    1.697258   -0.692906
   4 Cr   24.0000    0    52.000   -1.692571   -2.931608   -1.196820

--------------------------------
INTERNAL COORDINATES (ANGSTROEM)
--------------------------------
 C      0   0   0     0.000000000000     0.00000000     0.00000000
 H      1   0   0     1.100000000000     0.00000000     0.00000000
 H      1   2   0     1.100001162272   109.47138339     0.00000000
 H      1   2   3     1.100006551753   109.47128414   239.99986337
 Cr     1   2   3     1.899996692997   109.47114928   120.00009510

---------------------------
INTERNAL COORDINATES (A.U.)
---------------------------
 C      0   0   0     0.000000000000     0.00000000     0.00000000
 H      1   0   0     2.078698747313     0.00000000     0.00000000
 H      1   2   0     2.078700943689   109.47138339     0.00000000
 H      1   2   3     2.078711128333   109.47128414   239.99986337
 Cr     1   2   3     3.590473405121   109.47114928   120.00009510

---------------------
BASIS SET INFORMATION
---------------------
There are 3 groups of distinct atoms

 Group   1 Type C   : 12s6p3d1f contracted to 6s3p3d1f pattern {621111/411/111/1}
 Group   2 Type H   : 5s3p1d contracted to 3s3p1d pattern {311/111/1}
 Group   3 Type Cr  : 17s13p7d2f1g contracted to 6s6p4d2f1g pattern {842111/631111/4111/11/1}

Atom   0C    basis set group =>   1
Atom   1H    basis set group =>   2
Atom   2H    basis set group =>   2
Atom   3H    basis set group =>   2
Atom   4Cr   basis set group =>   3
---------------------------------
AUXILIARY/C BASIS SET INFORMATION
---------------------------------
There are 3 groups of distinct atoms

 Group   1 Type C   : 9s7p6d4f1g contracted to 9s7p5d4f1g pattern {111111111/1111111/21111/1111/1}
 Group   2 Type H   : 5s4p3d1f contracted to 5s4p3d1f pattern {11111/1111/111/1}
 Group   3 Type Cr  : 10s10p9d7f5g3h1i contracted to 10s10p9d7f5g3h1i pattern {1111111111/1111111111/111111111/1111111/11111/111/1}

Atom   0C    basis set group =>   1
Atom   1H    basis set group =>   2
Atom   2H    basis set group =>   2
Atom   3H    basis set group =>   2
Atom   4Cr   basis set group =>   3
----------------------------------
AUXILIARY/JK BASIS SET INFORMATION
----------------------------------
There are 3 groups of distinct atoms

 Group   1 Type C   : 14s10p6d2f1g contracted to 10s8p5d1f1g pattern {5111111111/31111111/21111/2/1}
 Group   2 Type H   : 4s2p2d contracted to 2s2p2d pattern {31/11/11}
 Group   3 Type Cr  : 19s14p12d10f7g3h1i contracted to 16s13p11d9f5g3h1i pattern {4111111111111111/2111111111111/21111111111/211111111/31111/111/1}

Atom   0C    basis set group =>   1
Atom   1H    basis set group =>   2
Atom   2H    basis set group =>   2
Atom   3H    basis set group =>   2
Atom   4Cr   basis set group =>   3


           ************************************************************
           *        Program running with 28 parallel MPI-processes    *
           *              working on a common directory               *
           ************************************************************
------------------------------------------------------------------------------
                           ORCA GTO INTEGRAL CALCULATION
                           -- RI-GTO INTEGRALS CHOSEN --
------------------------------------------------------------------------------

                         BASIS SET STATISTICS AND STARTUP INFO

Gaussian basis set:
 # of primitive gaussian shells          ...   89
 # of primitive gaussian functions       ...  223
 # of contracted shells                  ...   53
 # of contracted basis functions         ...  155
 Highest angular momentum                ...    4
 Maximum contraction depth               ...    8
Auxiliary gaussian basis set:
 # of primitive gaussian shells          ...  123
 # of primitive gaussian functions       ...  457
 # of contracted shells                  ...  101
 # of contracted aux-basis functions     ...  393
 Highest angular momentum                ...    6
 Maximum contraction depth               ...    5
Ratio of auxiliary to basis functions    ...  2.54
Integral package used                  ... LIBINT
 One Electron integrals                  ... done
 Ordering auxiliary basis shells         ... done
 Integral threshhold             Thresh  ...  1.000e-10
 Primitive cut-off               TCut    ...  1.000e-11
 Pre-screening matrix                    ... done
 Shell pair data                         ... 
 Ordering of the shell pairs             ... done (   0.000 sec) 1424 of 1431 pairs
 Determination of significant pairs      ... done (   0.000 sec)
 Creation of shell pair data             ... done (   0.000 sec)
 Storage of shell pair data              ... done (   0.014 sec)
 Shell pair data done in (   0.015 sec)
 Computing two index integrals           ... done
 Cholesky decomposition of the V-matrix  ... done


Timings:
 Total evaluation time                   ...   0.393 sec (  0.007 min)
 One electron matrix time                ...   0.051 sec (  0.001 min) = 13.1%
 Schwartz matrix evaluation time         ...   0.140 sec (  0.002 min) = 35.7%
 Two index repulsion integral time       ...   0.038 sec (  0.001 min) =  9.6%
 Cholesky decomposition of V             ...   0.102 sec (  0.002 min) = 26.1%
 Three index repulsion integral time     ...   0.000 sec (  0.000 min) =  0.0%



           ************************************************************
           *        Program running with 28 parallel MPI-processes    *
           *              working on a common directory               *
           ************************************************************
-------------------------------------------------------------------------------
                                 ORCA SCF
-------------------------------------------------------------------------------

------------
SCF SETTINGS
------------
Hamiltonian:
 Density Functional     Method          .... DFT(GTOs)
 Exchange Functional    Exchange        .... B88
   X-Alpha parameter    XAlpha          ....  0.666667
   Becke's b parameter  XBeta           ....  0.004200
 Correlation Functional Correlation     .... LYP
 LDA part of GGA corr.  LDAOpt          .... VWN-5
 Gradients option       PostSCFGGA      .... off
 Hybrid DFT is turned on
   Fraction HF Exchange ScalHFX         ....  0.710000
   Scaling of DF-GGA-X  ScalDFX         ....  0.290000
   Scaling of DF-GGA-C  ScalDFC         ....  0.540000
   Scaling of DF-LDA-C  ScalLDAC        ....  0.540000
   Perturbative correction              ....  1.000000
   Density functional embedding theory  .... OFF
 RI-approximation to the Coulomb term is turned on
   Number of auxiliary basis functions  .... 393
   RI-JK (J+K treated both via RI)      .... on


General Settings:
 Integral files         IntName         .... CrCH3+
 Hartree-Fock type      HFTyp           .... UHF
 Total Charge           Charge          ....    1
 Multiplicity           Mult            ....    5
 Number of Electrons    NEL             ....   32
 Basis Dimension        Dim             ....  155
 Nuclear Repulsion      ENuc            ....     64.9343749420 Eh

Convergence Acceleration:
 DIIS                   CNVDIIS         .... on
   Start iteration      DIISMaxIt       ....    12
   Startup error        DIISStart       ....  0.200000
   # of expansion vecs  DIISMaxEq       ....     5
   Bias factor          DIISBfac        ....   1.050
   Max. coefficient     DIISMaxC        ....  10.000
 Newton-Raphson         CNVNR           .... off
 SOSCF                  CNVSOSCF        .... off
 Level Shifting         CNVShift        .... on
   Level shift para.    LevelShift      ....    0.2500
   Turn off err/grad.   ShiftErr        ....    0.0010
 Zerner damping         CNVZerner       .... off
 Static damping         CNVDamp         .... on
   Fraction old density DampFac         ....    0.7000
   Max. Damping (<1)    DampMax         ....    0.9800
   Min. Damping (>=0)   DampMin         ....    0.0000
   Turn off err/grad.   DampErr         ....    0.1000
 Fernandez-Rico         CNVRico         .... off

SCF Procedure:
 Maximum # iterations   MaxIter         ....   125
 SCF integral mode      SCFMode         .... Direct
   Integral package                     .... LIBINT
 Reset frequency        DirectResetFreq ....    20
 Integral Threshold     Thresh          ....  1.000e-10 Eh
 Primitive CutOff       TCut            ....  1.000e-11 Eh

Convergence Tolerance:
 Convergence Check Mode ConvCheckMode   .... Total+1el-Energy
 Convergence forced     ConvForced      .... 0
 Energy Change          TolE            ....  1.000e-06 Eh
 1-El. energy change                    ....  1.000e-03 Eh
 DIIS Error             TolErr          ....  1.000e-06


Diagonalization of the overlap matrix:
Smallest eigenvalue                        ... 3.767e-05
Time for diagonalization                   ...    0.005 sec
Threshold for overlap eigenvalues          ... 1.000e-08
Number of eigenvalues below threshold      ... 0
Time for construction of square roots      ...    0.040 sec
Total time needed                          ...    0.045 sec

-------------------
DFT GRID GENERATION
-------------------

General Integration Accuracy     IntAcc      ...  4.670
Radial Grid Type                 RadialGrid  ... Gauss-Chebyshev
Angular Grid (max. acc.)         AngularGrid ... Lebedev-302
Angular grid pruning method      GridPruning ... 3 (G Style)
Weight generation scheme         WeightScheme... Becke
Basis function cutoff            BFCut       ...    1.0000e-10
Integration weight cutoff        WCut        ...    1.0000e-14
Grids for H and He will be reduced by one unit

# of grid points (after initial pruning)     ...  26058 (   0.0 sec)
# of grid points (after weights+screening)   ...  25443 (   0.0 sec)
nearest neighbour list constructed           ...    0.0 sec
Grid point re-assignment to atoms done       ...    0.0 sec
Grid point division into batches done        ...    0.1 sec
Reduced shell lists constructed in    0.2 sec

Total number of grid points                  ...    25443
Total number of batches                      ...      402
Average number of points per batch           ...       63
Average number of grid points per atom       ...     5089
Average number of shells per batch           ...    47.00 (88.68%)
Average number of basis functions per batch  ...   140.12 (90.40%)
Average number of large shells per batch     ...    44.88 (95.48%)
Average number of large basis fcns per batch ...   134.12 (95.72%)
Average number of aux-shells per batch       ...    47.00 (46.53%)
Average number of aux functions per batch    ...   140.12 (35.66%)
Maximum spatial batch extension              ...   1.69,  1.76,  1.53 au
Average spatial batch extension              ...   0.05,  0.05,  0.04 au

Time for grid setup =    0.657 sec

------------------------------
INITIAL GUESS: MODEL POTENTIAL
------------------------------
Loading Hartree-Fock densities                     ... done
Calculating cut-offs                               ... done
Setting up the integral package                    ... done
Initializing the effective Hamiltonian             ... done
Starting the Coulomb interaction                   ... done (   0.0 sec)
Reading the grid                                   ... done
Mapping shells                                     ... done
Starting the XC term evaluation                    ... done (   0.0 sec)
  promolecular density results
     # of electrons  =     32.998539096
     EX              =    -53.462392731
     EC              =     -0.177480115
     EX+EC           =    -53.639872847
Transforming the Hamiltonian                       ... done (   0.0 sec)
Diagonalizing the Hamiltonian                      ... done (   0.0 sec)
Back transforming the eigenvectors                 ... done (   0.0 sec)
Now organizing SCF variables                       ... done
                      ------------------
                      INITIAL GUESS DONE (   0.8 sec)
                      ------------------
--------------
SCF ITERATIONS
--------------
ITER       Energy         Delta-E        Max-DP      RMS-DP      [F,P]     Damp
  0  -1083.2047585950   0.000000000000 0.02682167  0.00069319  0.2799738 0.7000
  1  -1083.3173772618  -0.112618666760 0.03345680  0.00073243  0.2314459 0.7000
                               ***Turning on DIIS***
  2  -1083.3393072023  -0.021929940511 0.02388926  0.00048869  0.1088769 0.7000
  3  -1083.3325005711   0.006806631214 0.03229827  0.00085614  0.0599105 0.0000
  4  -1083.3882686286  -0.055768057566 0.02456199  0.00039225  0.0773138 0.0000
  5  -1083.4024836621  -0.014215033511 0.01346603  0.00022170  0.0386247 0.0000
  6  -1083.4086119114  -0.006128249247 0.00701523  0.00015370  0.0178962 0.0000
  7  -1083.4107041748  -0.002092263380 0.00370734  0.00010171  0.0110745 0.0000
  8  -1083.4115639975  -0.000859822679 0.00218163  0.00006323  0.0038264 0.0000
  9  -1083.4118275115  -0.000263514031 0.00236088  0.00004355  0.0026633 0.0000
 10  -1083.4119442928  -0.000116781297 0.00190386  0.00003954  0.0008673 0.0000
 11  -1083.4120066425  -0.000062349744 0.00032517  0.00001181  0.0004681 0.0000
 12  -1083.4120186009  -0.000011958333 0.00070249  0.00001537  0.0002297 0.0000
 13  -1083.4120296892  -0.000011088331 0.00090875  0.00001615  0.0002084 0.0000
 14  -1083.4120384920  -0.000008802836 0.00103887  0.00001672  0.0001401 0.0000
 15  -1083.4120450714  -0.000006579425 0.00180637  0.00002859  0.0001035 0.0000
 16  -1083.4120512639  -0.000006192471 0.00101308  0.00001529  0.0000405 0.0000
 17  -1083.4120520093  -0.000000745383 0.00026081  0.00000366  0.0000177 0.0000
 18  -1083.4120519425   0.000000066769 0.00016763  0.00000272  0.0000175 0.0000
                 **** Energy Check signals convergence ****

               *****************************************************
               *                     SUCCESS                       *
               *           SCF CONVERGED AFTER  19 CYCLES          *
               *****************************************************


----------------
TOTAL SCF ENERGY
----------------

Total Energy       :        -1083.41205201 Eh          -29481.14073 eV

Components:
Nuclear Repulsion  :           64.93437494 Eh            1766.95417 eV
Electronic Energy  :        -1148.34642695 Eh          -31248.09490 eV
One Electron Energy:        -1611.78388407 Eh          -43858.86923 eV
Two Electron Energy:          463.43745712 Eh           12610.77433 eV

Virial components:
Potential Energy   :        -2166.05643612 Eh          -58941.39215 eV
Kinetic Energy     :         1082.64438412 Eh           29460.25142 eV
Virial Ratio       :            2.00070907


DFT components:
N(Alpha)           :       17.999997263443 electrons
N(Beta)            :       13.999997671846 electrons
N(Total)           :       31.999994935289 electrons
E(X)               :      -15.611266104275 Eh       
E(C)               :       -0.701669378730 Eh       
E(XC)              :      -16.312935483004 Eh       
DFET-embed. en.    :        0.000000000000 Eh       

---------------
SCF CONVERGENCE
---------------

  Last Energy change         ...   -6.4519e-08  Tolerance :   1.0000e-06
  Last MAX-Density change    ...    6.6205e-05  Tolerance :   1.0000e-05
  Last RMS-Density change    ...    1.2664e-06  Tolerance :   1.0000e-06
  Last DIIS Error            ...    6.3516e-06  Tolerance :   1.0000e-06

             **** THE GBW FILE WAS UPDATED (CrCH3+.gbw) ****
             **** DENSITY FILE WAS UPDATED (CrCH3+.scfp) ****
             **** ENERGY FILE WAS UPDATED (CrCH3+.en.tmp) ****
----------------------
UHF SPIN CONTAMINATION
----------------------

Warning: in a DFT calculation there is little theoretical justification to 
         calculate <S**2> as in Hartree-Fock theory. We will do it anyways
         but you should keep in mind that the values have only limited relevance

Expectation value of <S**2>     :     6.133691
Ideal value S*(S+1) for S=2.0   :     6.000000
Deviation                       :     0.133691

             **** THE GBW FILE WAS UPDATED (CrCH3+.gbw) ****
             **** DENSITY FILE WAS UPDATED (CrCH3+.scfp) ****
----------------
ORBITAL ENERGIES
----------------
                 SPIN UP ORBITALS
  NO   OCC          E(Eh)            E(eV) 
   0   1.0000    -219.033682     -5960.2095 
   1   1.0000     -26.021134      -708.0710 
   2   1.0000     -22.083750      -600.9294 
   3   1.0000     -22.077419      -600.7571 
   4   1.0000     -22.077418      -600.7571 
   5   1.0000     -10.996668      -299.2345 
   6   1.0000      -3.581216       -97.4499 
   7   1.0000      -2.444483       -66.5178 
   8   1.0000      -2.444483       -66.5178 
   9   1.0000      -2.417068       -65.7718 
  10   1.0000      -1.001416       -27.2499 
  11   1.0000      -0.706140       -19.2150 
  12   1.0000      -0.706139       -19.2150 
  13   1.0000      -0.641780       -17.4637 
  14   1.0000      -0.641780       -17.4637 
  15   1.0000      -0.625990       -17.0340 
  16   1.0000      -0.625989       -17.0340 
  17   1.0000      -0.562902       -15.3173 
  18   0.0000      -0.256304        -6.9744 
  19   0.0000      -0.188564        -5.1311 
  20   0.0000      -0.140934        -3.8350 
  21   0.0000      -0.140933        -3.8350 
  22   0.0000      -0.083203        -2.2641 
  23   0.0000      -0.052291        -1.4229 
  24   0.0000      -0.040175        -1.0932 
  25   0.0000      -0.040173        -1.0932 
  26   0.0000      -0.032836        -0.8935 
  27   0.0000      -0.032832        -0.8934 
  28   0.0000      -0.013990        -0.3807 
  29   0.0000      -0.013990        -0.3807 
  30   0.0000      -0.009115        -0.2480 
  31   0.0000       0.024738         0.6732 
  32   0.0000       0.044499         1.2109 
  33   0.0000       0.044501         1.2109 
  34   0.0000       0.066870         1.8196 
  35   0.0000       0.083927         2.2838 
  36   0.0000       0.083927         2.2838 
  37   0.0000       0.142943         3.8897 
  38   0.0000       0.188963         5.1419 
  39   0.0000       0.188970         5.1421 
  40   0.0000       0.191246         5.2041 
  41   0.0000       0.198548         5.4028 
  42   0.0000       0.205194         5.5836 
  43   0.0000       0.205201         5.5838 
  44   0.0000       0.220093         5.9890 
  45   0.0000       0.225814         6.1447 
  46   0.0000       0.225817         6.1448 
  47   0.0000       0.239889         6.5277 
  48   0.0000       0.256685         6.9848 
  49   0.0000       0.256694         6.9850 
  50   0.0000       0.351125         9.5546 
  51   0.0000       0.351129         9.5547 
  52   0.0000       0.351349         9.5607 
  53   0.0000       0.406432        11.0596 
  54   0.0000       0.406437        11.0597 
  55   0.0000       0.407453        11.0873 
  56   0.0000       0.420170        11.4334 
  57   0.0000       0.420182        11.4337 
  58   0.0000       0.499876        13.6023 
  59   0.0000       0.596616        16.2347 
  60   0.0000       0.596627        16.2351 
  61   0.0000       0.656076        17.8527 
  62   0.0000       0.656081        17.8529 
  63   0.0000       0.656838        17.8735 
  64   0.0000       0.724026        19.7017 
  65   0.0000       0.758283        20.6339 
  66   0.0000       0.758289        20.6341 
  67   0.0000       0.973681        26.4952 
  68   0.0000       0.996818        27.1248 
  69   0.0000       0.996826        27.1250 
  70   0.0000       1.024714        27.8839 
  71   0.0000       1.075992        29.2792 
  72   0.0000       1.076001        29.2795 
  73   0.0000       1.194197        32.4957 
  74   0.0000       1.207344        32.8535 
  75   0.0000       1.207349        32.8536 
  76   0.0000       1.361784        37.0560 
  77   0.0000       1.385985        37.7146 
  78   0.0000       1.482028        40.3280 
  79   0.0000       1.528357        41.5887 
  80   0.0000       1.528361        41.5888 
  81   0.0000       1.603076        43.6219 
  82   0.0000       1.603081        43.6220 
  83   0.0000       1.654836        45.0304 
  84   0.0000       1.699576        46.2478 
  85   0.0000       1.699582        46.2480 
  86   0.0000       1.790303        48.7166 
  87   0.0000       1.813212        49.3400 
  88   0.0000       1.813214        49.3401 
  89   0.0000       1.929497        52.5043 
  90   0.0000       1.981458        53.9182 
  91   0.0000       2.025000        55.1031 
  92   0.0000       2.025002        55.1031 
  93   0.0000       2.048584        55.7448 
  94   0.0000       2.048585        55.7448 
  95   0.0000       2.062011        56.1102 
  96   0.0000       2.248024        61.1718 
  97   0.0000       2.248025        61.1719 
  98   0.0000       2.462908        67.0191 
  99   0.0000       2.748778        74.7980 
 100   0.0000       2.759958        75.1023 
 101   0.0000       2.759980        75.1029 
 102   0.0000       2.893124        78.7259 
 103   0.0000       2.995845        81.5211 
 104   0.0000       2.995846        81.5211 
 105   0.0000       3.025837        82.3372 
 106   0.0000       3.025843        82.3374 
 107   0.0000       3.181791        86.5809 
 108   0.0000       3.181794        86.5810 
 109   0.0000       3.219720        87.6130 
 110   0.0000       3.361255        91.4644 
 111   0.0000       3.486998        94.8860 
 112   0.0000       3.487006        94.8862 
 113   0.0000       3.581167        97.4485 
 114   0.0000       3.581176        97.4488 
 115   0.0000       3.630524        98.7916 
 116   0.0000       3.872793       105.3841 
 117   0.0000       3.872809       105.3845 
 118   0.0000       3.873472       105.4025 
 119   0.0000       3.983074       108.3850 
 120   0.0000       4.085305       111.1668 
 121   0.0000       4.085316       111.1671 
 122   0.0000       4.156678       113.1090 
 123   0.0000       4.263162       116.0065 
 124   0.0000       4.263165       116.0066 
 125   0.0000       4.343617       118.1958 
 126   0.0000       4.626601       125.8962 
 127   0.0000       4.626606       125.8964 
 128   0.0000       4.665790       126.9626 
 129   0.0000       5.076626       138.1420 
 130   0.0000       5.076637       138.1423 
 131   0.0000       5.167822       140.6236 
 132   0.0000       5.187212       141.1512 
 133   0.0000       5.325960       144.9267 
 134   0.0000       5.366786       146.0377 
 135   0.0000       5.366800       146.0381 
 136   0.0000       5.580964       151.8657 
 137   0.0000       5.580966       151.8658 
 138   0.0000       5.583254       151.9281 
 139   0.0000       5.588079       152.0594 
 140   0.0000       5.646846       153.6585 
 141   0.0000       5.646858       153.6588 
 142   0.0000       5.673718       154.3897 
 143   0.0000       5.673735       154.3902 
 144   0.0000       5.766027       156.9016 
 145   0.0000       5.766034       156.9018 
 146   0.0000       5.818908       158.3405 
 147   0.0000       6.253704       170.1719 
 148   0.0000       6.261756       170.3910 
 149   0.0000       6.331834       172.2980 
 150   0.0000       6.331835       172.2980 
 151   0.0000       6.556163       178.4023 
 152   0.0000       6.556165       178.4023 
 153   0.0000       6.622808       180.2158 
 154   0.0000      23.821992       648.2293 

                 SPIN DOWN ORBITALS
  NO   OCC          E(Eh)            E(eV) 
   0   1.0000    -219.033260     -5960.1980 
   1   1.0000     -25.941070      -705.8924 
   2   1.0000     -22.017597      -599.1293 
   3   1.0000     -21.995644      -598.5319 
   4   1.0000     -21.995644      -598.5319 
   5   1.0000     -11.003478      -299.4198 
   6   1.0000      -3.324506       -90.4644 
   7   1.0000      -2.160530       -58.7910 
   8   1.0000      -2.114403       -57.5358 
   9   1.0000      -2.114402       -57.5358 
  10   1.0000      -1.015440       -27.6315 
  11   1.0000      -0.674907       -18.3652 
  12   1.0000      -0.674906       -18.3651 
  13   1.0000      -0.555971       -15.1287 
  14   0.0000      -0.223644        -6.0857 
  15   0.0000      -0.138345        -3.7646 
  16   0.0000      -0.138345        -3.7646 
  17   0.0000      -0.135348        -3.6830 
  18   0.0000      -0.092963        -2.5296 
  19   0.0000      -0.092962        -2.5296 
  20   0.0000      -0.067326        -1.8320 
  21   0.0000      -0.067325        -1.8320 
  22   0.0000      -0.063797        -1.7360 
  23   0.0000      -0.044815        -1.2195 
  24   0.0000      -0.033206        -0.9036 
  25   0.0000      -0.033205        -0.9036 
  26   0.0000      -0.005223        -0.1421 
  27   0.0000      -0.005149        -0.1401 
  28   0.0000      -0.005149        -0.1401 
  29   0.0000       0.016362         0.4452 
  30   0.0000       0.016364         0.4453 
  31   0.0000       0.038304         1.0423 
  32   0.0000       0.058683         1.5968 
  33   0.0000       0.058691         1.5971 
  34   0.0000       0.076428         2.0797 
  35   0.0000       0.090979         2.4757 
  36   0.0000       0.090979         2.4757 
  37   0.0000       0.148282         4.0349 
  38   0.0000       0.191471         5.2102 
  39   0.0000       0.196120         5.3367 
  40   0.0000       0.196127         5.3369 
  41   0.0000       0.206272         5.6129 
  42   0.0000       0.216674         5.8960 
  43   0.0000       0.216678         5.8961 
  44   0.0000       0.222447         6.0531 
  45   0.0000       0.239596         6.5198 
  46   0.0000       0.244221         6.6456 
  47   0.0000       0.244223         6.6457 
  48   0.0000       0.258906         7.0452 
  49   0.0000       0.258921         7.0456 
  50   0.0000       0.383102        10.4247 
  51   0.0000       0.394145        10.7252 
  52   0.0000       0.394151        10.7254 
  53   0.0000       0.406661        11.0658 
  54   0.0000       0.428967        11.6728 
  55   0.0000       0.428977        11.6731 
  56   0.0000       0.488039        13.2802 
  57   0.0000       0.488042        13.2803 
  58   0.0000       0.505642        13.7592 
  59   0.0000       0.628181        17.0937 
  60   0.0000       0.628207        17.0944 
  61   0.0000       0.655929        17.8487 
  62   0.0000       0.657989        17.9048 
  63   0.0000       0.658007        17.9053 
  64   0.0000       0.737691        20.0736 
  65   0.0000       0.758180        20.6311 
  66   0.0000       0.758186        20.6313 
  67   0.0000       0.975824        26.5535 
  68   0.0000       1.000388        27.2219 
  69   0.0000       1.000396        27.2221 
  70   0.0000       1.023597        27.8535 
  71   0.0000       1.084352        29.5067 
  72   0.0000       1.084364        29.5071 
  73   0.0000       1.194558        32.5056 
  74   0.0000       1.236372        33.6434 
  75   0.0000       1.236376        33.6435 
  76   0.0000       1.410533        38.3826 
  77   0.0000       1.478568        40.2339 
  78   0.0000       1.519750        41.3545 
  79   0.0000       1.545447        42.0538 
  80   0.0000       1.545466        42.0543 
  81   0.0000       1.669025        45.4165 
  82   0.0000       1.669029        45.4166 
  83   0.0000       1.675647        45.5967 
  84   0.0000       1.738151        47.2975 
  85   0.0000       1.738159        47.2977 
  86   0.0000       1.804854        49.1126 
  87   0.0000       1.882363        51.2217 
  88   0.0000       1.882365        51.2218 
  89   0.0000       1.964071        53.4451 
  90   0.0000       2.053719        55.8845 
  91   0.0000       2.094247        56.9874 
  92   0.0000       2.094249        56.9874 
  93   0.0000       2.137805        58.1726 
  94   0.0000       2.186631        59.5012 
  95   0.0000       2.186634        59.5013 
  96   0.0000       2.332080        63.4591 
  97   0.0000       2.332081        63.4591 
  98   0.0000       2.472080        67.2687 
  99   0.0000       2.751206        74.8641 
 100   0.0000       2.762688        75.1766 
 101   0.0000       2.762708        75.1771 
 102   0.0000       2.892573        78.7109 
 103   0.0000       2.995996        81.5252 
 104   0.0000       2.995998        81.5252 
 105   0.0000       3.028117        82.3993 
 106   0.0000       3.028123        82.3994 
 107   0.0000       3.170321        86.2688 
 108   0.0000       3.170322        86.2689 
 109   0.0000       3.222413        87.6863 
 110   0.0000       3.362481        91.4978 
 111   0.0000       3.487953        94.9120 
 112   0.0000       3.487961        94.9122 
 113   0.0000       3.585766        97.5737 
 114   0.0000       3.585776        97.5739 
 115   0.0000       3.633863        98.8824 
 116   0.0000       3.873210       105.3954 
 117   0.0000       3.873225       105.3958 
 118   0.0000       3.879754       105.5735 
 119   0.0000       3.990049       108.5748 
 120   0.0000       4.088527       111.2545 
 121   0.0000       4.088536       111.2547 
 122   0.0000       4.159488       113.1854 
 123   0.0000       4.266707       116.1030 
 124   0.0000       4.266714       116.1032 
 125   0.0000       4.348656       118.3329 
 126   0.0000       4.629855       125.9848 
 127   0.0000       4.629860       125.9849 
 128   0.0000       4.670709       127.0965 
 129   0.0000       5.078871       138.2031 
 130   0.0000       5.078882       138.2034 
 131   0.0000       5.167218       140.6072 
 132   0.0000       5.188659       141.1906 
 133   0.0000       5.324370       144.8835 
 134   0.0000       5.370614       146.1418 
 135   0.0000       5.370630       146.1423 
 136   0.0000       5.658987       153.9889 
 137   0.0000       5.659011       153.9895 
 138   0.0000       5.688835       154.8011 
 139   0.0000       5.688838       154.8012 
 140   0.0000       5.699860       155.1011 
 141   0.0000       5.704208       155.2194 
 142   0.0000       5.765457       156.8861 
 143   0.0000       5.765461       156.8862 
 144   0.0000       5.852241       159.2476 
 145   0.0000       5.852248       159.2478 
 146   0.0000       5.895565       160.4265 
 147   0.0000       6.463053       175.8686 
 148   0.0000       6.470353       176.0673 
 149   0.0000       6.543877       178.0680 
 150   0.0000       6.543878       178.0680 
 151   0.0000       6.712008       182.6430 
 152   0.0000       6.712009       182.6430 
 153   0.0000       6.750614       183.6935 
 154   0.0000      23.816761       648.0870 

                    ********************************
                    * MULLIKEN POPULATION ANALYSIS *
                    ********************************

--------------------------------------------
MULLIKEN ATOMIC CHARGES AND SPIN POPULATIONS
--------------------------------------------
   0 C :   -0.625823   -0.381437
   1 H :    0.179612    0.032329
   2 H :    0.179550    0.032343
   3 H :    0.179547    0.032378
   4 Cr:    1.087113    4.284387
Sum of atomic charges         :    1.0000000
Sum of atomic spin populations:    4.0000000

-----------------------------------------------------
MULLIKEN REDUCED ORBITAL CHARGES AND SPIN POPULATIONS
-----------------------------------------------------
CHARGE
  0 C s       :     2.981491  s :     2.981491
      pz      :     1.200787  p :     3.584936
      px      :     1.197952
      py      :     1.186197
      dz2     :     0.020563  d :     0.056819
      dxz     :     0.010394
      dyz     :     0.005630
      dx2y2   :     0.010134
      dxy     :     0.010099
      f0      :     0.000790  f :     0.002576
      f+1     :     0.000113
      f-1     :     0.000214
      f+2     :     0.000259
      f-2     :     0.000286
      f+3     :     0.000677
      f-3     :     0.000238
  1 H s       :     0.787501  s :     0.787501
      pz      :     0.024978  p :     0.030897
      px      :     0.008497
      py      :    -0.002578
      dz2     :     0.000470  d :     0.001990
      dxz     :     0.000738
      dyz     :     0.000785
      dx2y2   :     0.000000
      dxy     :    -0.000003
  2 H s       :     0.787524  s :     0.787524
      pz      :     0.012329  p :     0.030936
      px      :     0.021181
      py      :    -0.002575
      dz2     :     0.000297  d :     0.001990
      dxz     :     0.000580
      dyz     :     0.000078
      dx2y2   :     0.000331
      dxy     :     0.000704
  3 H s       :     0.787535  s :     0.787535
      pz      :     0.012326  p :     0.030928
      px      :     0.010604
      py      :     0.007998
      dz2     :     0.000297  d :     0.001990
      dxz     :     0.000233
      dyz     :     0.000425
      dx2y2   :     0.000615
      dxy     :     0.000420
  4 Crs       :     6.303406  s :     6.303406
      pz      :     4.010367  p :    12.062390
      px      :     4.015583
      py      :     4.036441
      dz2     :     0.951216  d :     4.540863
      dxz     :     0.967279
      dyz     :     0.897588
      dx2y2   :     0.936188
      dxy     :     0.788592
      f0      :     0.000546  f :     0.006108
      f+1     :     0.000364
      f-1     :     0.000972
      f+2     :     0.000550
      f-2     :     0.001060
      f+3     :     0.001350
      f-3     :     0.001267
      g0      :     0.000006  g :     0.000120
      g+1     :     0.000006
      g-1     :     0.000018
      g+2     :     0.000004
      g-2     :     0.000010
      g+3     :     0.000027
      g-3     :     0.000007
      g+4     :     0.000017
      g-4     :     0.000024

SPIN
  0 C s       :    -0.047077  s :    -0.047077
      pz      :    -0.058188  p :    -0.329482
      px      :    -0.084015
      py      :    -0.187279
      dz2     :    -0.000591  d :    -0.005845
      dxz     :    -0.005246
      dyz     :    -0.001781
      dx2y2   :     0.001255
      dxy     :     0.000519
      f0      :     0.000149  f :     0.000966
      f+1     :     0.000043
      f-1     :     0.000115
      f+2     :     0.000156
      f-2     :     0.000126
      f+3     :     0.000182
      f-3     :     0.000195
  1 H s       :     0.035894  s :     0.035894
      pz      :    -0.001147  p :    -0.003379
      px      :     0.000032
      py      :    -0.002264
      dz2     :     0.000005  d :    -0.000187
      dxz     :    -0.000052
      dyz     :    -0.000134
      dx2y2   :    -0.000001
      dxy     :    -0.000003
  2 H s       :     0.035906  s :     0.035906
      pz      :     0.000748  p :    -0.003376
      px      :    -0.001862
      py      :    -0.002263
      dz2     :    -0.000015  d :    -0.000187
      dxz     :    -0.000042
      dyz     :    -0.000015
      dx2y2   :     0.000008
      dxy     :    -0.000122
  3 H s       :     0.035932  s :     0.035932
      pz      :     0.000749  p :    -0.003367
      px      :     0.000320
      py      :    -0.004436
      dz2     :    -0.000015  d :    -0.000187
      dxz     :    -0.000043
      dyz     :    -0.000014
      dx2y2   :    -0.000099
      dxy     :    -0.000015
  4 Crs       :     0.021362  s :     0.021362
      pz      :    -0.000813  p :    -0.014726
      px      :    -0.002861
      py      :    -0.011052
      dz2     :     0.919164  d :     4.277472
      dxz     :     0.946190
      dyz     :     0.838637
      dx2y2   :     0.886481
      dxy     :     0.687000
      f0      :    -0.000023  f :     0.000323
      f+1     :     0.000064
      f-1     :     0.000144
      f+2     :     0.000047
      f-2     :    -0.000027
      f+3     :    -0.000117
      f-3     :     0.000236
      g0      :    -0.000000  g :    -0.000043
      g+1     :    -0.000003
      g-1     :    -0.000009
      g+2     :     0.000001
      g-2     :    -0.000000
      g+3     :    -0.000016
      g-3     :     0.000001
      g+4     :    -0.000004
      g-4     :    -0.000011


                     *******************************
                     * LOEWDIN POPULATION ANALYSIS *
                     *******************************

-------------------------------------------
LOEWDIN ATOMIC CHARGES AND SPIN POPULATIONS
-------------------------------------------
   0 C :    0.057324   -0.152372
   1 H :   -0.071386   -0.011740
   2 H :   -0.071385   -0.011739
   3 H :   -0.071380   -0.011738
   4 Cr:    1.156826    4.187588

----------------------------------------------------
LOEWDIN REDUCED ORBITAL CHARGES AND SPIN POPULATIONS
----------------------------------------------------
CHARGE
  0 C s       :     2.718728  s :     2.718728
      pz      :     0.970226  p :     2.924432
      px      :     0.972519
      py      :     0.981687
      dz2     :     0.075439  d :     0.277465
      dxz     :     0.037875
      dyz     :     0.040899
      dx2y2   :     0.055360
      dxy     :     0.067892
      f0      :     0.005515  f :     0.022051
      f+1     :     0.001176
      f-1     :     0.001861
      f+2     :     0.003327
      f-2     :     0.003350
      f+3     :     0.005120
      f-3     :     0.001702
  1 H s       :     0.717831  s :     0.717831
      pz      :     0.146092  p :     0.323691
      px      :     0.084813
      py      :     0.092786
      dz2     :     0.009729  d :     0.029864
      dxz     :     0.009587
      dyz     :     0.010447
      dx2y2   :     0.000031
      dxy     :     0.000070
  2 H s       :     0.717831  s :     0.717831
      pz      :     0.088524  p :     0.323690
      px      :     0.142380
      py      :     0.092786
      dz2     :     0.004442  d :     0.029864
      dxz     :     0.008243
      dyz     :     0.000811
      dx2y2   :     0.006663
      dxy     :     0.009705
  3 H s       :     0.717830  s :     0.717830
      pz      :     0.088523  p :     0.323687
      px      :     0.096222
      py      :     0.138942
      dz2     :     0.004442  d :     0.029863
      dxz     :     0.002666
      dyz     :     0.006388
      dx2y2   :     0.009444
      dxy     :     0.006924
  4 Crs       :     6.036900  s :     6.036900
      pz      :     4.035273  p :    12.144390
      px      :     4.041701
      py      :     4.067415
      dz2     :     0.966253  d :     4.642694
      dxz     :     0.972207
      dyz     :     0.919731
      dx2y2   :     0.964004
      dxy     :     0.820500
      f0      :     0.001840  f :     0.018872
      f+1     :     0.001005
      f-1     :     0.002785
      f+2     :     0.001805
      f-2     :     0.003350
      f+3     :     0.004407
      f-3     :     0.003680
      g0      :     0.000020  g :     0.000318
      g+1     :     0.000016
      g-1     :     0.000044
      g+2     :     0.000011
      g-2     :     0.000028
      g+3     :     0.000068
      g-3     :     0.000021
      g+4     :     0.000049
      g-4     :     0.000061

SPIN
  0 C s       :    -0.015370  s :    -0.015370
      pz      :    -0.026011  p :    -0.190975
      px      :    -0.044835
      py      :    -0.120129
      dz2     :     0.012939  d :     0.048721
      dxz     :     0.004421
      dyz     :     0.007806
      dx2y2   :     0.014623
      dxy     :     0.008932
      f0      :     0.000288  f :     0.005252
      f+1     :     0.000316
      f-1     :     0.000811
      f+2     :     0.001047
      f-2     :     0.000969
      f+3     :     0.000545
      f-3     :     0.001275
  1 H s       :     0.013165  s :     0.013165
      pz      :    -0.002965  p :    -0.022240
      px      :    -0.004820
      py      :    -0.014456
      dz2     :    -0.000228  d :    -0.002664
      dxz     :    -0.000670
      dyz     :    -0.001775
      dx2y2   :     0.000004
      dxy     :     0.000005
  2 H s       :     0.013165  s :     0.013165
      pz      :    -0.003172  p :    -0.022240
      px      :    -0.004612
      py      :    -0.014456
      dz2     :    -0.000247  d :    -0.002664
      dxz     :    -0.000465
      dyz     :    -0.000171
      dx2y2   :    -0.000182
      dxy     :    -0.001599
  3 H s       :     0.013166  s :     0.013166
      pz      :    -0.003172  p :    -0.022240
      px      :    -0.006343
      py      :    -0.012725
      dz2     :    -0.000247  d :    -0.002664
      dxz     :    -0.000455
      dyz     :    -0.000181
      dx2y2   :    -0.001531
      dxy     :    -0.000251
  4 Crs       :    -0.011753  s :    -0.011753
      pz      :     0.004261  p :    -0.003216
      px      :     0.001595
      py      :    -0.009072
      dz2     :     0.907059  d :     4.204004
      dxz     :     0.936446
      dyz     :     0.822572
      dx2y2   :     0.867665
      dxy     :     0.670262
      f0      :    -0.000377  f :    -0.001372
      f+1     :     0.000069
      f-1     :     0.000140
      f+2     :    -0.000056
      f-2     :    -0.000487
      f+3     :    -0.001053
      f-3     :     0.000393
      g0      :     0.000000  g :    -0.000075
      g+1     :    -0.000006
      g-1     :    -0.000018
      g+2     :     0.000001
      g-2     :     0.000000
      g+3     :    -0.000027
      g-3     :     0.000001
      g+4     :    -0.000006
      g-4     :    -0.000020


                      *****************************
                      * MAYER POPULATION ANALYSIS *
                      *****************************

  NA   - Mulliken gross atomic population
  ZA   - Total nuclear charge
  QA   - Mulliken gross atomic charge
  VA   - Mayer's total valence
  BVA  - Mayer's bonded valence
  FA   - Mayer's free valence

  ATOM       NA         ZA         QA         VA         BVA        FA
  0 C      6.6258     6.0000    -0.6258     3.9156     3.8295     0.0861
  1 H      0.8204     1.0000     0.1796     1.0328     1.0315     0.0013
  2 H      0.8204     1.0000     0.1796     1.0329     1.0316     0.0013
  3 H      0.8205     1.0000     0.1795     1.0329     1.0316     0.0013
  4 Cr    22.9129    24.0000     1.0871     5.1116     1.0190     4.0927

  Mayer bond orders larger than 0.100000
B(  0-C ,  1-H ) :   0.9442 B(  0-C ,  2-H ) :   0.9443 B(  0-C ,  3-H ) :   0.9443 
B(  0-C ,  4-Cr) :   0.9967 

-------
TIMINGS
-------

Total SCF time: 0 days 0 hours 0 min 53 sec 

Total time                  ....      53.389 sec
Sum of individual times     ....      52.715 sec  ( 98.7%)

Fock matrix formation       ....      50.307 sec  ( 94.2%)
  XC integration            ....      40.357 sec  ( 80.2% of F)
    Basis function eval.    ....       0.086 sec  (  0.2% of XC)
    Density eval.           ....       0.098 sec  (  0.2% of XC)
    XC-Functional eval.     ....       0.041 sec  (  0.1% of XC)
    XC-Potential eval.      ....       0.223 sec  (  0.6% of XC)
Diagonalization             ....       1.193 sec  (  2.2%)
Density matrix formation    ....       0.018 sec  (  0.0%)
Population analysis         ....       0.092 sec  (  0.2%)
Initial guess               ....       0.140 sec  (  0.3%)
Orbital Transformation      ....       0.000 sec  (  0.0%)
Orbital Orthonormalization  ....       0.000 sec  (  0.0%)
DIIS solution               ....       0.307 sec  (  0.6%)
Grid generation             ....       0.657 sec  (  1.2%)


           ************************************************************
           *        Program running with 28 parallel MPI-processes    *
           *              working on a common directory               *
           ************************************************************

------------------------------------------------------------------------------
                                ORCA  MP2 
------------------------------------------------------------------------------

Freezing NCore=12 chemical core electrons

-------------
RI-MP2 ENERGY
-------------
Dimension of the basis                    ...  155
Memory devoted to MP2                     ... 5000 MB   
Data format for buffers                   ... DOUBLE
Compression type for matrix containers    ... UNCOMPRESSED
Scaling for aa/bb pairs                   ...   4.000e-01
Scaling for ab pairs                      ...   4.700e-01
Overall scaling of the MP2 energy         ...   1.000e+00
Calculating two index integrals           ... done (    0.008 sec)
Cholesky decomposition of V**-1           ... done (    0.016 sec)

-----------------
RI-TRANSFORMATION (AUX index driven)
-----------------

Dimension of the orbital-basis         ... 155
Dimension of the aux-basis             ... 434
Transformation of internal/external MOs...    6-  17 to   18- 154
Number Format for Storage              ... Double (8 Byte)
Integral mode                          ... Direct

First Phase: integral generation and transformation of MO indices
  Aux angular momentum 0               ... done (    0.002 sec)
  Aux angular momentum 1               ... done (    0.003 sec)
  Aux angular momentum 2               ... done (    0.003 sec)
  Aux angular momentum 3               ... done (    0.004 sec)
  Aux angular momentum 4               ... done (    0.007 sec)
  Aux angular momentum 5               ... done (    0.008 sec)
  Aux angular momentum 6               ... done (    0.012 sec)
Closing buffer VIA ( 0.01 GB; CompressionRatio= 1.00)
  Phase 1 completed in     0.141 sec
Second Phase: sorting and transformation of aux index

IA-Transformation
Memory available                       ... 4996 MB 
Max. # MO pairs treated in a batch     ... 1    
# of internal orbitals                 ... 12
# batches for internal orbitals        ... 1
Closing buffer IAV ( 0.00 GB; CompressionRatio= 1.00)
(ia|v) transformation done in     0.028 sec

  Phase 2 completed in     0.087 sec
RI-Integral transformation completed in     0.255 sec

-----------------
RI-TRANSFORMATION (AUX index driven)
-----------------

Dimension of the orbital-basis         ... 155
Dimension of the aux-basis             ... 434
Transformation of internal/external MOs...    6-  13 to   14- 154
Number Format for Storage              ... Double (8 Byte)
Integral mode                          ... Direct

First Phase: integral generation and transformation of MO indices
  Aux angular momentum 0               ... done (    0.002 sec)
  Aux angular momentum 1               ... done (    0.003 sec)
  Aux angular momentum 2               ... done (    0.003 sec)
  Aux angular momentum 3               ... done (    0.003 sec)
  Aux angular momentum 4               ... done (    0.005 sec)
  Aux angular momentum 5               ... done (    0.009 sec)
  Aux angular momentum 6               ... done (    0.011 sec)
Closing buffer VIA ( 0.00 GB; CompressionRatio= 1.00)
  Phase 1 completed in     0.138 sec
Second Phase: sorting and transformation of aux index

IA-Transformation
Memory available                       ... 4996 MB 
Max. # MO pairs treated in a batch     ... 1    
# of internal orbitals                 ... 8
# batches for internal orbitals        ... 1
Closing buffer IAV ( 0.00 GB; CompressionRatio= 1.00)
(ia|v) transformation done in     0.027 sec

  Phase 2 completed in     0.086 sec
RI-Integral transformation completed in     0.245 sec
Opening buffers                              ... done

Starting loop over batches of integrals:

Operator 0  - window                       ... (  6- 17)x( 18-154)
Operator 0  - Memory available             ...  5000 MB
Operator 0  - Memory needed per MO         ...   0.5 MB
Operator 0  - Number of orbitals per batch ... 1
Operator 0  - Number of batches            ... 1

OPERATOR  0   PASS   0:  MOs     6 ...    6 +    7 ...    7 +    8 ...    8 +    9 ...    9
                            +   10 ...   10 +   11 ...   11 +   12 ...   12 +   13 ...   13
                            +   14 ...   14 +   15 ...   15 +   16 ...   16 +   17 ...   17
  Reading integrals       ... ok

Operator 1  - window                       ... (  6- 13)x( 14-154)
Operator 1  - Memory available             ...  5000 MB
Operator 1  - Memory needed per MO         ...   0.5 MB
Operator 1  - Number of orbitals per batch ... 1
Operator 1  - Number of batches            ... 1

OPERATOR  1   PASS   0:  MOs     6 ...    6 +    7 ...    7 +    8 ...    8 +    9 ...    9
                            +   10 ...   10 +   11 ...   11 +   12 ...   12 +   13 ...   13
  Reading integrals       ... ok
Time spent in pair loops =     0.027 sec
Deleting buffer (Ka|jb)[aa] ...done
Deleting buffer (Ka|jb)[ab] ...done
Deleting buffer (Ka|jb)[ba] ...done
Deleting buffer (Ka|jb)[bb] ...done

Spin-scaled correlation energy components}
 E2 and T2 for alpha/alpha pairs :     -0.060160076 Eh      0.000000000
 E2 and T2 for beta/beta   pairs :     -0.024396010 Eh      0.000000000
 E2 and T2 for alpha/beta  pairs :     -0.209248901 Eh      0.000000000


-----------------------------------------------
 RI-MP2 CORRELATION ENERGY:     -0.293804986 Eh
-----------------------------------------------


-------
TIMINGS
-------

Total time                :    0.623 sec
Integral trafo            :    0.543 sec ( 87.3%)
I/O of integrals          :    0.001 sec (  0.1%)
K(i,j) Operators          :    0.012 sec (  1.9%)
T(i,j) pair energies      :    0.001 sec (  0.2%)
V-calculation             :    0.008 sec (  1.4%)
V**(-1/2)                 :    0.016 sec (  2.6%)
Gamma(ia|P)               :    0.000 sec (  0.0%)
Gamma-Trafo               :    0.000 sec (  0.0%)
D(virtual)                :    0.000 sec (  0.0%)
D(internal)               :    0.000 sec (  0.0%)
W(virtual)                :    0.000 sec (  0.0%)
W(internal)               :    0.000 sec (  0.0%)
L(virtual)                :    0.000 sec (  0.0%)
L(internal)               :    0.000 sec (  0.0%)
G(D)                      :    0.000 sec (  0.0%)
G(Z)                      :    0.000 sec (  0.0%)
Z-Vector Solution         :    0.000 sec (  0.0%)
Z-Vector Solution         :    0.000 sec (  0.0%)
3-Index Derivative 
+ Separable RIJ part      :    0.000 sec (  0.0%)
2-Index Derivative 
+ Separable RIJ part      :    0.000 sec (  0.0%)
Separable Gradient (X)    :    0.000 sec (  0.0%)


---------------------------------------
MP2 TOTAL ENERGY:    -1083.705856993 Eh
---------------------------------------


-------------------------------------------------------------------------------
                          DFT DISPERSION CORRECTION                            
                                                                               
                              DFTD3 V3.1  Rev 1                                
                          USING Becke-Johnson damping                          
-------------------------------------------------------------------------------
The DSD-BLYP/2013 functional is recognized
Active option DFTDOPT                   ...         4   

molecular C6(AA) [au] = 728.012619 


            DFT-D V3
 parameters
 s6 scaling factor         :     0.5700 
 a1 scaling factor         :     0.0000 
 s8 scaling factor         :     0.0000 
 a2 scaling factor         :     5.4000 
 ad hoc parameters k1-k3   :    16.0000     1.3333    -4.0000 

 Edisp/kcal,au: -2.263553549428  -0.003607201806 
 E6   /kcal   :  -2.263553549 
 E8   /kcal   :  -0.000000000 
 % E8         :   0.000000000 

-------------------------   ----------------
Dispersion correction           -0.003607202
-------------------------   ----------------


-------------------------   --------------------
FINAL SINGLE POINT ENERGY     -1083.709464194817
-------------------------   --------------------


                            ***************************************
                            *     ORCA property calculations      *
                            ***************************************


  WARNING: The energy has been calculated at the MP2 level but the densities
           used in the property calculations are still SCF densities
           MP2 response densities have not been calculated 
           use %mp2 Density relaxed end
           or  %mp2 Density unrelaxed end

                                    ---------------------
                                    Active property flags
                                    ---------------------
   (+) Dipole Moment


------------------------------------------------------------------------------
                       ORCA ELECTRIC PROPERTIES CALCULATION
------------------------------------------------------------------------------

Dipole Moment Calculation                       ... on
Quadrupole Moment Calculation                   ... off
Polarizability Calculation                      ... off
GBWName                                         ... CrCH3+.gbw
Electron density file                           ... CrCH3+.scfp
The origin for moment calculation is the CENTER OF MASS  = (-1.298217, -2.248568 -0.917972)

-------------
DIPOLE MOMENT
-------------
                                X             Y             Z
Electronic contribution:     -3.82161      -6.61922      -2.70227
Nuclear contribution   :      3.19934       5.54142       2.26226
                        -----------------------------------------
Total Dipole Moment    :     -0.62227      -1.07780      -0.44001
                        -----------------------------------------
Magnitude (a.u.)       :      1.32003
Magnitude (Debye)      :      3.35525



--------------------
Rotational spectrum 
--------------------
 
Rotational constants in cm-1:     5.182984     0.355754     0.355754 
Rotational constants in MHz : 155381.939270 10665.239464 10665.237606 

 Dipole components along the rotational axes: 
x,y,z [a.u.] :     1.320031    -0.000002    -0.000003 
x,y,z [Debye]:     3.355251    -0.000005    -0.000009 

 

Timings for individual modules:

Sum of individual times         ...       57.134 sec (=   0.952 min)
GTO integral calculation        ...        1.792 sec (=   0.030 min)   3.1 %
SCF iterations                  ...       53.946 sec (=   0.899 min)  94.4 %
MP2 module                      ...        1.396 sec (=   0.023 min)   2.4 %
                             ****ORCA TERMINATED NORMALLY****
TOTAL RUN TIME: 0 days 0 hours 0 minutes 57 seconds 991 msec
