
                                 *****************
                                 * O   R   C   A *
                                 *****************

           --- An Ab Initio, DFT and Semiempirical electronic structure package ---

                  #######################################################
                  #                        -***-                        #
                  #          Department of theory and spectroscopy      #
                  #               Directorship: Frank Neese             #
                  #        Max Planck Institute fuer Kohlenforschung    #
                  #                Kaiser Wilhelm Platz 1               #
                  #                 D-45470 Muelheim/Ruhr               #
                  #                      Germany                        #
                  #                                                     #
                  #                  All rights reserved                #
                  #                        -***-                        #
                  #######################################################


                         Program Version 4.2.0 -  RELEASE  -


 With contributions from (in alphabetic order):
   Daniel Aravena         : Magnetic Suceptibility
   Michael Atanasov       : Ab Initio Ligand Field Theory (pilot matlab implementation)
   Alexander A. Auer      : GIAO ZORA, VPT2
   Ute Becker             : Parallelization
   Giovanni Bistoni       : ED, misc. LED, open-shell LED, HFLED
   Martin Brehm           : Molecular dynamics
   Dmytro Bykov           : SCF Hessian
   Vijay G. Chilkuri      : MRCI spin determinant printing, contributions to CSF-ICE
   Dipayan Datta          : RHF DLPNO-CCSD density
   Achintya Kumar Dutta   : EOM-CC, STEOM-CC
   Dmitry Ganyushin       : Spin-Orbit,Spin-Spin,Magnetic field MRCI
   Miquel Garcia          : C-PCM Hessian, Gaussian charge scheme
   Yang Guo               : DLPNO-NEVPT2, CIM, IAO-localization
   Andreas Hansen         : Spin unrestricted coupled pair/coupled cluster methods
   Benjamin Helmich-Paris : CASSCF linear response (MC-RPA)
   Lee Huntington         : MR-EOM, pCC
   Robert Izsak           : Overlap fitted RIJCOSX, COSX-SCS-MP3, EOM
   Christian Kollmar      : KDIIS, OOCD, Brueckner-CCSD(T), CCSD density
   Simone Kossmann        : Meta GGA functionals, TD-DFT gradient, OOMP2, MP2 Hessian
   Martin Krupicka        : AUTO-CI
   Lucas Lang             : DCDCAS
   Dagmar Lenk            : GEPOL surface, SMD
   Dimitrios Liakos       : Extrapolation schemes; Compound Job, initial MDCI parallelization
   Dimitrios Manganas     : Further ROCIS development; embedding schemes
   Dimitrios Pantazis     : SARC Basis sets
   Taras Petrenko         : DFT Hessian,TD-DFT gradient, ASA, ECA, R-Raman, ABS, FL, XAS/XES, NRVS
   Peter Pinski           : DLPNO-MP2, DLPNO-MP2 Gradient
   Christoph Reimann      : Effective Core Potentials
   Marius Retegan         : Local ZFS, SOC
   Christoph Riplinger    : Optimizer, TS searches, QM/MM, DLPNO-CCSD(T), (RO)-DLPNO pert. Triples
   Tobias Risthaus        : Range-separated hybrids, TD-DFT gradient, RPA, STAB
   Michael Roemelt        : Original ROCIS implementation
   Masaaki Saitow         : Open-shell DLPNO-CCSD energy and density
   Barbara Sandhoefer     : DKH picture change effects
   Avijit Sen             : IP-ROCIS
   Kantharuban Sivalingam : CASSCF convergence, NEVPT2, FIC-MRCI
   Bernardo de Souza      : ESD, SOC TD-DFT
   Georgi Stoychev        : AutoAux, RI-MP2 NMR
   Willem Van den Heuvel  : Paramagnetic NMR
   Boris Wezisla          : Elementary symmetry handling
   Frank Wennmohs         : Technical directorship


 We gratefully acknowledge several colleagues who have allowed us to
 interface, adapt or use parts of their codes:
   Stefan Grimme, W. Hujo, H. Kruse,             : VdW corrections, initial TS optimization,
                  C. Bannwarth                     DFT functionals, gCP, sTDA/sTD-DF
   Ed Valeev, F. Pavosevic, A. Kumar             : LibInt (2-el integral package), F12 methods
   Garnet Chan, S. Sharma, J. Yang, R. Olivares  : DMRG
   Ulf Ekstrom                                   : XCFun DFT Library
   Mihaly Kallay                                 : mrcc  (arbitrary order and MRCC methods)
   Andreas Klamt, Michael Diedenhofen            : otool_cosmo (COSMO solvation model)
   Jiri Pittner, Ondrej Demel                    : Mk-CCSD
   Frank Weinhold                                : gennbo (NPA and NBO analysis)
   Christopher J. Cramer and Donald G. Truhlar   : smd solvation model
   Lars Goerigk                                  : TD-DFT with DH, B97 family of functionals
   V. Asgeirsson, H. Jonsson                     : NEB implementation
   FAccTs GmbH                                   : IRC, NEB, NEB-TS, Multilevel, MM, QM/MM, CI optimization
   S Lehtola, MJT Oliveira, MAL Marques          : LibXC Library


 Your calculation uses the libint2 library for the computation of 2-el integrals
 For citations please refer to: http://libint.valeyev.net

 Your ORCA version has been built with support for libXC version: 4.2.3
 For citations please refer to: https://tddft.org/programs/libxc/

 This ORCA versions uses:
   CBLAS   interface :  Fast vector & matrix operations
   LAPACKE interface :  Fast linear algebra routines
   SCALAPACK package :  Parallel linear algebra routines


Your calculation utilizes the atom-pairwise dispersion correction
with the Becke-Johnson damping scheme (D3BJ)
Cite in your paper:
S.Grimme, S.Ehrlich, L.Goerigk, J Comput Chem, (2011), 32, 1456–1465 
S.Grimme, J.Antony, S.Ehrlich and H.Krieg, J.Chem.Phys., 132, (2010), 154104 
   

----- Orbital basis set information -----
Your calculation utilizes the basis: def2-TZVPPD
   F. Weigend and R. Ahlrichs, Phys. Chem. Chem. Phys. 7, 3297 (2005).
   D. Rappoport and F. Furche, J. Chem. Phys. 133 134105 (2010).

----- AuxC basis set information -----
Your calculation utilizes the auxiliary basis: def2-TZVPPD/C
   A. Hellweg, C. Hattig, S. Hofener and W. Klopper, Theor. Chem. Acc. 117, 587 (2007).

----- AuxJK basis set information -----
Your calculation utilizes the auxiliary basis: def2/JK
   H-Ba, Hf-Rn: F. Weigend, J. Comput. Chem. 29, 167 (2008).

================================================================================
                                        WARNINGS
                       Please study these warnings very carefully!
================================================================================


WARNING: No MP2 level density has been requested!
         To caclulate MP2 level properties use
         %mp2 Density relaxed end
         or
         %mp2 Density unrelaxed end
         Otherwise for double-hybrid DFT only the energy is correct!

WARNING: There are different parametrizations of Gershom Martin's DSD-DFs
         for use with and without D3(BJ)!
         You are using the D3(BJ) parametrized version,
         consistent with the 2013 article (S. Kozuch and J. M. L. Martin, JCC 2013, 34, 2327)

WARNING: The frozen-core approximation is turned on by default for 
         the MP2 part of double-hybrid DFT.

INFO   : the flag for use of LIBINT has been found!

================================================================================
                                       INPUT FILE
================================================================================
NAME = Cu+.in
|  1> #
|  2> # Cu+ ri-DSD-BLYP/2013-D3BJ/Def2-TZVPPD
|  3> #
|  4> ! rijk ri-dsd-blyp/2013 d3bj def2-tzvppd def2/jk def2-tzvppd/c grid4 nofinalgrid
|  5> 
|  6> *xyz 1 1
|  7> Cu         0.00000        0.00000        0.00000
|  8> *
|  9> 
| 10> %maxcore 5000
| 11> 
| 12> %pal
| 13> nprocs = 28
| 14> end
| 15> 
| 16> 
| 17>                          ****END OF INPUT****
================================================================================

                       ****************************
                       * Single Point Calculation *
                       ****************************

---------------------------------
CARTESIAN COORDINATES (ANGSTROEM)
---------------------------------
  Cu     0.000000    0.000000    0.000000

----------------------------
CARTESIAN COORDINATES (A.U.)
----------------------------
  NO LB      ZA    FRAG     MASS         X           Y           Z
   0 Cu   29.0000    0    63.550    0.000000    0.000000    0.000000

--------------------------------
INTERNAL COORDINATES (ANGSTROEM)
--------------------------------
 Cu     0   0   0     0.000000000000     0.00000000     0.00000000

---------------------------
INTERNAL COORDINATES (A.U.)
---------------------------
 Cu     0   0   0     0.000000000000     0.00000000     0.00000000

---------------------
BASIS SET INFORMATION
---------------------
There are 1 groups of distinct atoms

 Group   1 Type Cu  : 17s13p7d2f1g contracted to 6s6p4d2f1g pattern {842111/631111/4111/11/1}

Atom   0Cu   basis set group =>   1
---------------------------------
AUXILIARY/C BASIS SET INFORMATION
---------------------------------
There are 1 groups of distinct atoms

 Group   1 Type Cu  : 10s10p9d7f5g3h1i contracted to 10s10p9d7f5g3h1i pattern {1111111111/1111111111/111111111/1111111/11111/111/1}

Atom   0Cu   basis set group =>   1
----------------------------------
AUXILIARY/JK BASIS SET INFORMATION
----------------------------------
There are 1 groups of distinct atoms

 Group   1 Type Cu  : 19s14p12d10f7g3h1i contracted to 16s13p11d9f5g3h1i pattern {4111111111111111/2111111111111/21111111111/211111111/31111/111/1}

Atom   0Cu   basis set group =>   1


           ************************************************************
           *        Program running with 28 parallel MPI-processes    *
           *              working on a common directory               *
           ************************************************************
------------------------------------------------------------------------------
                           ORCA GTO INTEGRAL CALCULATION
                           -- RI-GTO INTEGRALS CHOSEN --
------------------------------------------------------------------------------

                         BASIS SET STATISTICS AND STARTUP INFO

Gaussian basis set:
 # of primitive gaussian shells          ...   40
 # of primitive gaussian functions       ...  114
 # of contracted shells                  ...   19
 # of contracted basis functions         ...   67
 Highest angular momentum                ...    4
 Maximum contraction depth               ...    8
Auxiliary gaussian basis set:
 # of primitive gaussian shells          ...   66
 # of primitive gaussian functions       ...  300
 # of contracted shells                  ...   58
 # of contracted aux-basis functions     ...  264
 Highest angular momentum                ...    6
 Maximum contraction depth               ...    4
Ratio of auxiliary to basis functions    ...  3.94
Integral package used                  ... LIBINT
 One Electron integrals                  ... done
 Ordering auxiliary basis shells         ... done
 Integral threshhold             Thresh  ...  1.000e-10
 Primitive cut-off               TCut    ...  1.000e-11
 Pre-screening matrix                    ... done
 Shell pair data                         ... 
 Ordering of the shell pairs             ... done (   0.000 sec) 190 of 190 pairs
 Determination of significant pairs      ... done (   0.000 sec)
 Creation of shell pair data             ... done (   0.000 sec)
 Storage of shell pair data              ... done (   0.005 sec)
 Shell pair data done in (   0.005 sec)
 Computing two index integrals           ... done
 Cholesky decomposition of the V-matrix  ... done


Timings:
 Total evaluation time                   ...   0.228 sec (  0.004 min)
 One electron matrix time                ...   0.036 sec (  0.001 min) = 15.9%
 Schwartz matrix evaluation time         ...   0.122 sec (  0.002 min) = 53.5%
 Two index repulsion integral time       ...   0.020 sec (  0.000 min) =  8.7%
 Cholesky decomposition of V             ...   0.002 sec (  0.000 min) =  0.8%
 Three index repulsion integral time     ...   0.000 sec (  0.000 min) =  0.0%



           ************************************************************
           *        Program running with 28 parallel MPI-processes    *
           *              working on a common directory               *
           ************************************************************
-------------------------------------------------------------------------------
                                 ORCA SCF
-------------------------------------------------------------------------------

------------
SCF SETTINGS
------------
Hamiltonian:
 Density Functional     Method          .... DFT(GTOs)
 Exchange Functional    Exchange        .... B88
   X-Alpha parameter    XAlpha          ....  0.666667
   Becke's b parameter  XBeta           ....  0.004200
 Correlation Functional Correlation     .... LYP
 LDA part of GGA corr.  LDAOpt          .... VWN-5
 Gradients option       PostSCFGGA      .... off
 Hybrid DFT is turned on
   Fraction HF Exchange ScalHFX         ....  0.710000
   Scaling of DF-GGA-X  ScalDFX         ....  0.290000
   Scaling of DF-GGA-C  ScalDFC         ....  0.540000
   Scaling of DF-LDA-C  ScalLDAC        ....  0.540000
   Perturbative correction              ....  1.000000
   Density functional embedding theory  .... OFF
 RI-approximation to the Coulomb term is turned on
   Number of auxiliary basis functions  .... 264
   RI-JK (J+K treated both via RI)      .... on


General Settings:
 Integral files         IntName         .... Cu+
 Hartree-Fock type      HFTyp           .... RHF
 Total Charge           Charge          ....    1
 Multiplicity           Mult            ....    1
 Number of Electrons    NEL             ....   28
 Basis Dimension        Dim             ....   67
 Nuclear Repulsion      ENuc            ....      0.0000000000 Eh

Convergence Acceleration:
 DIIS                   CNVDIIS         .... on
   Start iteration      DIISMaxIt       ....    12
   Startup error        DIISStart       ....  0.200000
   # of expansion vecs  DIISMaxEq       ....     5
   Bias factor          DIISBfac        ....   1.050
   Max. coefficient     DIISMaxC        ....  10.000
 Newton-Raphson         CNVNR           .... off
 SOSCF                  CNVSOSCF        .... off
 Level Shifting         CNVShift        .... on
   Level shift para.    LevelShift      ....    0.2500
   Turn off err/grad.   ShiftErr        ....    0.0010
 Zerner damping         CNVZerner       .... off
 Static damping         CNVDamp         .... on
   Fraction old density DampFac         ....    0.7000
   Max. Damping (<1)    DampMax         ....    0.9800
   Min. Damping (>=0)   DampMin         ....    0.0000
   Turn off err/grad.   DampErr         ....    0.1000
 Fernandez-Rico         CNVRico         .... off

SCF Procedure:
 Maximum # iterations   MaxIter         ....   125
 SCF integral mode      SCFMode         .... Direct
   Integral package                     .... LIBINT
 Reset frequency        DirectResetFreq ....    20
 Integral Threshold     Thresh          ....  1.000e-10 Eh
 Primitive CutOff       TCut            ....  1.000e-11 Eh

Convergence Tolerance:
 Convergence Check Mode ConvCheckMode   .... Total+1el-Energy
 Convergence forced     ConvForced      .... 0
 Energy Change          TolE            ....  1.000e-06 Eh
 1-El. energy change                    ....  1.000e-03 Eh
 DIIS Error             TolErr          ....  1.000e-06


Diagonalization of the overlap matrix:
Smallest eigenvalue                        ... 5.235e-02
Time for diagonalization                   ...    0.001 sec
Threshold for overlap eigenvalues          ... 1.000e-08
Number of eigenvalues below threshold      ... 0
Time for construction of square roots      ...    0.011 sec
Total time needed                          ...    0.013 sec

-------------------
DFT GRID GENERATION
-------------------

General Integration Accuracy     IntAcc      ...  4.670
Radial Grid Type                 RadialGrid  ... Gauss-Chebyshev
Angular Grid (max. acc.)         AngularGrid ... Lebedev-302
Angular grid pruning method      GridPruning ... 3 (G Style)
Weight generation scheme         WeightScheme... Becke
Basis function cutoff            BFCut       ...    1.0000e-10
Integration weight cutoff        WCut        ...    1.0000e-14
Grids for H and He will be reduced by one unit

# of grid points (after initial pruning)     ...   9556 (   0.0 sec)
# of grid points (after weights+screening)   ...   9556 (   0.0 sec)
Grid point division into batches done        ...    0.1 sec
Reduced shell lists constructed in    0.1 sec

Total number of grid points                  ...     9556
Total number of batches                      ...      150
Average number of points per batch           ...       63
Average number of grid points per atom       ...     9556
Average number of shells per batch           ...     3.43 (18.05%)
Average number of basis functions per batch  ...    10.29 (15.35%)
Average number of large shells per batch     ...     2.57 (75.00%)
Average number of large basis fcns per batch ...     7.71 (75.00%)
Average number of aux-shells per batch       ...     3.43 ( 5.91%)
Average number of aux functions per batch    ...    10.29 ( 3.90%)
Maximum spatial batch extension              ...  20.42, 20.42, 20.42 au
Average spatial batch extension              ...   0.72,  0.71,  0.68 au

Time for grid setup =    0.509 sec

------------------------------
INITIAL GUESS: MODEL POTENTIAL
------------------------------
Loading Hartree-Fock densities                     ... done
Calculating cut-offs                               ... done
Setting up the integral package                    ... done
Initializing the effective Hamiltonian             ... done
Starting the Coulomb interaction                   ... done (   0.0 sec)
Reading the grid                                   ... done
Mapping shells                                     ... done
Starting the XC term evaluation                    ... done (   0.0 sec)
  promolecular density results
     # of electrons  =     29.000019956
     EX              =    -65.753305773
     EC              =     -0.194198109
     EX+EC           =    -65.947503882
Transforming the Hamiltonian                       ... done (   0.0 sec)
Diagonalizing the Hamiltonian                      ... done (   0.0 sec)
Back transforming the eigenvectors                 ... done (   0.0 sec)
Now organizing SCF variables                       ... done
                      ------------------
                      INITIAL GUESS DONE (   0.7 sec)
                      ------------------
--------------
SCF ITERATIONS
--------------
ITER       Energy         Delta-E        Max-DP      RMS-DP      [F,P]     Damp
  0  -1639.4693930159   0.000000000000 0.01298126  0.00072366  0.1221438 0.7000
  1  -1639.4119990081   0.057394007765 0.00910154  0.00053765  0.0812807 0.7000
                               ***Turning on DIIS***
  2  -1639.4446800149  -0.032681006744 0.01575447  0.00105823  0.0326433 0.0000
  3  -1639.4841775330  -0.039497518150 0.00671107  0.00033239  0.0195393 0.0000
  4  -1639.4842293445  -0.000051811516 0.00270341  0.00014355  0.0149294 0.0000
  5  -1639.4844061387  -0.000176794115 0.00031510  0.00001727  0.0011622 0.0000
  6  -1639.4844076977  -0.000001559028 0.00005528  0.00000379  0.0001100 0.0000
                 **** Energy Check signals convergence ****

               *****************************************************
               *                     SUCCESS                       *
               *           SCF CONVERGED AFTER   7 CYCLES          *
               *****************************************************


----------------
TOTAL SCF ENERGY
----------------

Total Energy       :        -1639.48440774 Eh          -44612.63880 eV

Components:
Nuclear Repulsion  :            0.00000000 Eh               0.00000 eV
Electronic Energy  :        -1639.48440774 Eh          -44612.63880 eV
One Electron Energy:        -2279.92679411 Eh          -62039.96212 eV
Two Electron Energy:          640.44238636 Eh           17427.32332 eV

Virial components:
Potential Energy   :        -3277.75153221 Eh          -89192.15363 eV
Kinetic Energy     :         1638.26712447 Eh           44579.51484 eV
Virial Ratio       :            2.00074303


DFT components:
N(Alpha)           :       14.000000137887 electrons
N(Beta)            :       14.000000137887 electrons
N(Total)           :       28.000000275774 electrons
E(X)               :      -19.099177758846 Eh       
E(C)               :       -0.730153503291 Eh       
E(XC)              :      -19.829331262137 Eh       
DFET-embed. en.    :        0.000000000000 Eh       

---------------
SCF CONVERGENCE
---------------

  Last Energy change         ...   -4.5365e-08  Tolerance :   1.0000e-06
  Last MAX-Density change    ...    1.0760e-05  Tolerance :   1.0000e-05
  Last RMS-Density change    ...    4.7641e-07  Tolerance :   1.0000e-06
  Last DIIS Error            ...    2.7432e-05  Tolerance :   1.0000e-06

             **** THE GBW FILE WAS UPDATED (Cu+.gbw) ****
             **** DENSITY FILE WAS UPDATED (Cu+.scfp) ****
             **** ENERGY FILE WAS UPDATED (Cu+.en.tmp) ****
             **** THE GBW FILE WAS UPDATED (Cu+.gbw) ****
             **** DENSITY FILE WAS UPDATED (Cu+.scfp) ****
----------------
ORBITAL ENERGIES
----------------

  NO   OCC          E(Eh)            E(eV) 
   0   2.0000    -327.034024     -8899.0482 
   1   2.0000     -40.398294     -1099.2935 
   2   2.0000     -35.344996      -961.7862 
   3   2.0000     -35.344996      -961.7862 
   4   2.0000     -35.344996      -961.7862 
   5   2.0000      -5.063079      -137.7734 
   6   2.0000      -3.444326       -93.7249 
   7   2.0000      -3.444326       -93.7249 
   8   2.0000      -3.444326       -93.7249 
   9   2.0000      -0.728968       -19.8362 
  10   2.0000      -0.728968       -19.8362 
  11   2.0000      -0.728968       -19.8362 
  12   2.0000      -0.728968       -19.8362 
  13   2.0000      -0.728968       -19.8362 
  14   0.0000      -0.290967        -7.9176 
  15   0.0000      -0.153570        -4.1789 
  16   0.0000      -0.153570        -4.1789 
  17   0.0000      -0.153570        -4.1789 
  18   0.0000      -0.034200        -0.9306 
  19   0.0000       0.001321         0.0359 
  20   0.0000       0.001321         0.0359 
  21   0.0000       0.001321         0.0359 
  22   0.0000       0.030554         0.8314 
  23   0.0000       0.030554         0.8314 
  24   0.0000       0.030554         0.8314 
  25   0.0000       0.030554         0.8314 
  26   0.0000       0.030554         0.8314 
  27   0.0000       0.528157        14.3719 
  28   0.0000       0.528157        14.3719 
  29   0.0000       0.528157        14.3719 
  30   0.0000       0.742903        20.2154 
  31   0.0000       0.742903        20.2154 
  32   0.0000       0.742903        20.2154 
  33   0.0000       0.742903        20.2154 
  34   0.0000       0.742903        20.2154 
  35   0.0000       2.921882        79.5084 
  36   0.0000       2.989676        81.3532 
  37   0.0000       2.989676        81.3532 
  38   0.0000       2.989676        81.3532 
  39   0.0000       3.358012        91.3761 
  40   0.0000       3.358012        91.3761 
  41   0.0000       3.358012        91.3761 
  42   0.0000       3.358012        91.3761 
  43   0.0000       3.358012        91.3761 
  44   0.0000       3.358012        91.3761 
  45   0.0000       3.358012        91.3761 
  46   0.0000       3.701626       100.7264 
  47   0.0000       3.701626       100.7264 
  48   0.0000       3.701626       100.7264 
  49   0.0000       3.701626       100.7264 
  50   0.0000       3.701626       100.7264 
  51   0.0000      13.165118       358.2411 
  52   0.0000      13.165118       358.2411 
  53   0.0000      13.165118       358.2411 
  54   0.0000      13.165118       358.2411 
  55   0.0000      13.165118       358.2411 
  56   0.0000      13.165118       358.2411 
  57   0.0000      13.165118       358.2411 
  58   0.0000      13.165118       358.2411 
  59   0.0000      13.165118       358.2411 
  60   0.0000      13.394354       364.4789 
  61   0.0000      13.394354       364.4789 
  62   0.0000      13.394354       364.4789 
  63   0.0000      13.394354       364.4789 
  64   0.0000      13.394354       364.4789 
  65   0.0000      13.394354       364.4789 
  66   0.0000      13.394354       364.4789 

                    ********************************
                    * MULLIKEN POPULATION ANALYSIS *
                    ********************************

-----------------------
MULLIKEN ATOMIC CHARGES
-----------------------
   0 Cu:    1.000000
Sum of atomic charges:    1.0000000

--------------------------------
MULLIKEN REDUCED ORBITAL CHARGES
--------------------------------
  0 Cus       :     6.000000  s :     6.000000
      pz      :     4.000000  p :    12.000000
      px      :     4.000000
      py      :     4.000000
      dz2     :     2.000000  d :    10.000000
      dxz     :     2.000000
      dyz     :     2.000000
      dx2y2   :     2.000000
      dxy     :     2.000000
      f0      :     0.000000  f :     0.000000
      f+1     :     0.000000
      f-1     :     0.000000
      f+2     :     0.000000
      f-2     :     0.000000
      f+3     :     0.000000
      f-3     :     0.000000
      g0      :     0.000000  g :     0.000000
      g+1     :     0.000000
      g-1     :     0.000000
      g+2     :     0.000000
      g-2     :     0.000000
      g+3     :     0.000000
      g-3     :     0.000000
      g+4     :     0.000000
      g-4     :     0.000000


                     *******************************
                     * LOEWDIN POPULATION ANALYSIS *
                     *******************************

----------------------
LOEWDIN ATOMIC CHARGES
----------------------
   0 Cu:    1.000000

-------------------------------
LOEWDIN REDUCED ORBITAL CHARGES
-------------------------------
  0 Cus       :     6.000000  s :     6.000000
      pz      :     4.000000  p :    12.000000
      px      :     4.000000
      py      :     4.000000
      dz2     :     2.000000  d :    10.000000
      dxz     :     2.000000
      dyz     :     2.000000
      dx2y2   :     2.000000
      dxy     :     2.000000
      f0      :     0.000000  f :     0.000000
      f+1     :     0.000000
      f-1     :     0.000000
      f+2     :     0.000000
      f-2     :     0.000000
      f+3     :     0.000000
      f-3     :     0.000000
      g0      :     0.000000  g :     0.000000
      g+1     :     0.000000
      g-1     :     0.000000
      g+2     :     0.000000
      g-2     :     0.000000
      g+3     :     0.000000
      g-3     :     0.000000
      g+4     :     0.000000
      g-4     :     0.000000


                      *****************************
                      * MAYER POPULATION ANALYSIS *
                      *****************************

  NA   - Mulliken gross atomic population
  ZA   - Total nuclear charge
  QA   - Mulliken gross atomic charge
  VA   - Mayer's total valence
  BVA  - Mayer's bonded valence
  FA   - Mayer's free valence

  ATOM       NA         ZA         QA         VA         BVA        FA
  0 Cu    28.0000    29.0000     1.0000    -0.0000     0.0000    -0.0000

  Mayer bond orders larger than 0.100000


--------------------------
ATOM BASIS FOR ELEMENT Cu
--------------------------
 NewGTO Cu
 S 17
    1     377518.799230000004         0.000238243653
    2      56589.984311000000         0.001847319309
    3      12878.711706000000         0.009607697256
    4       3645.375214300000         0.039071660054
    5       1187.007294500000         0.127309720156
    6        426.464219020000         0.302704717631
    7        165.706601640000         0.433754371564
    8         65.598942707000         0.228781793552
    9        414.412658110000        -0.000179268489
   10        128.320560390000        -0.000850989894
   11         20.622089750000         0.004016519092
   12          8.782122604500         0.003794374025
   13         13.741372006000         0.000854355433
   14          2.243124683300        -0.002696578717
   15          0.893705490800         0.001377551095
   16          0.108366995300        -0.000344703801
   17          0.038806178100         0.000167582917
 S 17
    1     377518.799230000004         0.000076349152
    2      56589.984311000000         0.000592004282
    3      12878.711706000000         0.003078946824
    4       3645.375214300000         0.012521165105
    5       1187.007294500000         0.040798523106
    6        426.464219020000         0.097006775299
    7        165.706601640000         0.139003822559
    8         65.598942707000         0.073316941385
    9        414.412658110000         0.025939042548
   10        128.320560390000         0.123132979093
   11         20.622089750000        -0.581165493115
   12          8.782122604500        -0.549022474539
   13         13.741372006000         0.013132374703
   14          2.243124683300        -0.041449355554
   15          0.893705490800         0.009265431775
   16          0.108366995300        -0.001915560424
   17          0.038806178100         0.000912347184
 S 17
    1     377518.799230000004         0.000028462464
    2      56589.984311000000         0.000220695319
    3      12878.711706000000         0.001147811211
    4       3645.375214300000         0.004667808348
    5       1187.007294500000         0.015209422217
    6        426.464219020000         0.036163490517
    7        165.706601640000         0.051819714689
    8         65.598942707000         0.027332075583
    9        414.412658110000         0.011541335413
   10        128.320560390000         0.054786872316
   11         20.622089750000        -0.258584173796
   12          8.782122604500        -0.244282437027
   13         13.741372006000        -0.239333904869
   14          2.243124683300         0.755403066355
   15          0.893705490800         0.465403197602
   16          0.108366995300         0.012321410754
   17          0.038806178100        -0.004563318119
 S 17
    1     377518.799230000004         0.000005771207
    2      56589.984311000000         0.000044749408
    3      12878.711706000000         0.000232736573
    4       3645.375214300000         0.000946470735
    5       1187.007294500000         0.003083946887
    6        426.464219020000         0.007332710105
    7        165.706601640000         0.010507253037
    8         65.598942707000         0.005542003384
    9        414.412658110000         0.002027820526
   10        128.320560390000         0.009626090941
   11         20.622089750000        -0.045433416211
   12          8.782122604500        -0.042920591278
   13         13.741372006000        -0.065804479141
   14          2.243124683300         0.207696880014
   15          0.893705490800         0.229252029306
   16          0.108366995300        -0.744373501456
   17          0.038806178100        -0.374472886355
 S 17
    1     377518.799230000004         0.000004682521
    2      56589.984311000000         0.000036307833
    3      12878.711706000000         0.000188832902
    4       3645.375214300000         0.000767927504
    5       1187.007294500000         0.002502187914
    6        426.464219020000         0.005949459987
    7        165.706601640000         0.008525153814
    8         65.598942707000         0.004496554058
    9        414.412658110000         0.001814424016
   10        128.320560390000         0.008613094874
   11         20.622089750000        -0.040652257147
   12          8.782122604500        -0.038403867881
   13         13.741372006000        -0.049425382417
   14          2.243124683300         0.155999984430
   15          0.893705490800         0.276016394294
   16          0.108366995300        -1.863358572593
   17          0.038806178100         1.817122793585
 S 17
    1     377518.799230000004        -0.000037679525
    2      56589.984311000000        -0.000292163559
    3      12878.711706000000        -0.001519509382
    4       3645.375214300000        -0.006179394752
    5       1187.007294500000        -0.020134722085
    6        426.464219020000        -0.047874391333
    7        165.706601640000        -0.068600604210
    8         65.598942707000        -0.036183080330
    9        414.412658110000         0.000718350680
   10        128.320560390000         0.003410020206
   11         20.622089750000        -0.016094681452
   12          8.782122604500        -0.015204519095
   13         13.741372006000         0.816106988540
   14          2.243124683300        -2.575856195358
   15          0.893705490800         2.568246897433
   16          0.108366995300        -0.984748858041
   17          0.038806178100         0.485837068651
 P 13
    1       2034.759669200000         0.002653712296
    2        481.904681060000         0.021584145869
    3        154.674829630000         0.101717314118
    4         57.740576969000         0.294006301799
    5         23.099052811000         0.474834626919
    6          9.388247859100         0.274618887615
    7         37.596171210000        -0.000496273433
    8          5.124069081000         0.009401122213
    9          2.011999608500         0.016055667742
   10          0.738606860000        -0.006141195821
   11          0.271100000000         0.003350200827
   12          0.099540000000        -0.001515061312
   13          0.034015997000         0.000465813772
 P 13
    1       2034.759669200000         0.001020974514
    2        481.904681060000         0.008304164274
    3        154.674829630000         0.039134153889
    4         57.740576969000         0.113114349887
    5         23.099052811000         0.182685234294
    6          9.388247859100         0.105655343948
    7         37.596171210000         0.018146707418
    8          5.124069081000        -0.343760924908
    9          2.011999608500        -0.587090675788
   10          0.738606860000        -0.263090648441
   11          0.271100000000        -0.001492205301
   12          0.099540000000        -0.005834521472
   13          0.034015997000         0.001845504211
 P 13
    1       2034.759669200000         0.000128101893
    2        481.904681060000         0.001041925289
    3        154.674829630000         0.004910170761
    4         57.740576969000         0.014192481970
    5         23.099052811000         0.022921555899
    6          9.388247859100         0.013256598880
    7         37.596171210000         0.002710315973
    8          5.124069081000        -0.051342687361
    9          2.011999608500        -0.087685396551
   10          0.738606860000        -0.044679274394
   11          0.271100000000         0.100264034417
   12          0.099540000000         0.461685470678
   13          0.034015997000         0.569189697501
 P 13
    1       2034.759669200000         0.000142957697
    2        481.904681060000         0.001162755958
    3        154.674829630000         0.005479596633
    4         57.740576969000         0.015838364937
    5         23.099052811000         0.025579737781
    6          9.388247859100         0.014793948749
    7         37.596171210000         0.003138741209
    8          5.124069081000        -0.059458531856
    9          2.011999608500        -0.101546008053
   10          0.738606860000        -0.006896625608
   11          0.271100000000        -0.056253109043
   12          0.099540000000         1.372989797571
   13          0.034015997000        -1.335992479123
 P 13
    1       2034.759669200000         0.000288144096
    2        481.904681060000         0.002343639217
    3        154.674829630000         0.011044619876
    4         57.740576969000         0.031923649111
    5         23.099052811000         0.051558262264
    6          9.388247859100         0.029818534344
    7         37.596171210000         0.005769553232
    8          5.124069081000        -0.109295141514
    9          2.011999608500        -0.186659256019
   10          0.738606860000        -0.479026067005
   11          0.271100000000         2.166255767860
   12          0.099540000000        -1.966728824539
   13          0.034015997000         0.718768079363
 P 13
    1       2034.759669200000         0.000885948577
    2        481.904681060000         0.007205921811
    3        154.674829630000         0.033958583158
    4         57.740576969000         0.098154749123
    5         23.099052811000         0.158524743840
    6          9.388247859100         0.091682211753
    7         37.596171210000         0.026899206316
    8          5.124069081000        -0.509563295930
    9          2.011999608500        -0.870255570335
   10          0.738606860000         2.362702424092
   11          0.271100000000        -1.960135033484
   12          0.099540000000         0.973485783892
   13          0.034015997000        -0.295635884964
 D 7
    1         74.129460637000         0.014397275308
    2         21.359842587000         0.086833593143
    3          7.499524053700         0.256922087674
    4          2.760139416900         0.404697988893
    5          0.953620612400         0.393543703875
    6          0.284208625200         0.224230924530
    7          0.085000000000         0.014354073214
 D 7
    1         74.129460637000         0.002764533780
    2         21.359842587000         0.016673599437
    3          7.499524053700         0.049333625630
    4          2.760139416900         0.077709235738
    5          0.953620612400         0.053081649061
    6          0.284208625200         0.104277524292
    7          0.085000000000        -1.045410719749
 D 7
    1         74.129460637000         0.007151651741
    2         21.359842587000         0.043133412698
    3          7.499524053700         0.127622571379
    4          2.760139416900         0.201028251178
    5          0.953620612400         0.329102877583
    6          0.284208625200        -1.298063524785
    7          0.085000000000         0.625444564647
 D 7
    1         74.129460637000         0.020140314965
    2         21.359842587000         0.121471311620
    3          7.499524053700         0.359407711282
    4          2.760139416900         0.566131076020
    5          0.953620612400        -1.331638314578
    6          0.284208625200         0.708680687768
    7          0.085000000000        -0.231439738532
 F 2
    1          1.209000000000         0.985784284682
    2          4.936000000000         0.038115611029
 F 2
    1          1.209000000000        -0.416721808040
    2          4.936000000000         1.069567632933
 G 1
    1          3.245000000000         1.000000000000
 end
  // -----------------------------------------------
  // The basis set
  // -----------------------------------------------
  BAS[ATNO] = new BFNGauss[NSH];
  // Basis function   1 L = s
  InitBFNGauss(BAS[ATNO][  0]);
  BAS[ATNO][  0].l  = 0;
  BAS[ATNO][  0].ng = 17;
  BAS[ATNO][  0].a[  0] =    377518.799230000004;     BAS[ATNO][  0].d[  0] =         0.000238243653;
  BAS[ATNO][  0].a[  1] =     56589.984311000000;     BAS[ATNO][  0].d[  1] =         0.001847319309;
  BAS[ATNO][  0].a[  2] =     12878.711706000000;     BAS[ATNO][  0].d[  2] =         0.009607697256;
  BAS[ATNO][  0].a[  3] =      3645.375214300000;     BAS[ATNO][  0].d[  3] =         0.039071660054;
  BAS[ATNO][  0].a[  4] =      1187.007294500000;     BAS[ATNO][  0].d[  4] =         0.127309720156;
  BAS[ATNO][  0].a[  5] =       426.464219020000;     BAS[ATNO][  0].d[  5] =         0.302704717631;
  BAS[ATNO][  0].a[  6] =       165.706601640000;     BAS[ATNO][  0].d[  6] =         0.433754371564;
  BAS[ATNO][  0].a[  7] =        65.598942707000;     BAS[ATNO][  0].d[  7] =         0.228781793552;
  BAS[ATNO][  0].a[  8] =       414.412658110000;     BAS[ATNO][  0].d[  8] =        -0.000179268489;
  BAS[ATNO][  0].a[  9] =       128.320560390000;     BAS[ATNO][  0].d[  9] =        -0.000850989894;
  BAS[ATNO][  0].a[ 10] =        20.622089750000;     BAS[ATNO][  0].d[ 10] =         0.004016519092;
  BAS[ATNO][  0].a[ 11] =         8.782122604500;     BAS[ATNO][  0].d[ 11] =         0.003794374025;
  BAS[ATNO][  0].a[ 12] =        13.741372006000;     BAS[ATNO][  0].d[ 12] =         0.000854355433;
  BAS[ATNO][  0].a[ 13] =         2.243124683300;     BAS[ATNO][  0].d[ 13] =        -0.002696578717;
  BAS[ATNO][  0].a[ 14] =         0.893705490800;     BAS[ATNO][  0].d[ 14] =         0.001377551095;
  BAS[ATNO][  0].a[ 15] =         0.108366995300;     BAS[ATNO][  0].d[ 15] =        -0.000344703801;
  BAS[ATNO][  0].a[ 16] =         0.038806178100;     BAS[ATNO][  0].d[ 16] =         0.000167582917;

  // Basis function   2 L = s
  InitBFNGauss(BAS[ATNO][  1]);
  BAS[ATNO][  1].l  = 0;
  BAS[ATNO][  1].ng = 17;
  BAS[ATNO][  1].a[  0] =    377518.799230000004;     BAS[ATNO][  1].d[  0] =        -0.000076349152;
  BAS[ATNO][  1].a[  1] =     56589.984311000000;     BAS[ATNO][  1].d[  1] =        -0.000592004282;
  BAS[ATNO][  1].a[  2] =     12878.711706000000;     BAS[ATNO][  1].d[  2] =        -0.003078946824;
  BAS[ATNO][  1].a[  3] =      3645.375214300000;     BAS[ATNO][  1].d[  3] =        -0.012521165105;
  BAS[ATNO][  1].a[  4] =      1187.007294500000;     BAS[ATNO][  1].d[  4] =        -0.040798523106;
  BAS[ATNO][  1].a[  5] =       426.464219020000;     BAS[ATNO][  1].d[  5] =        -0.097006775299;
  BAS[ATNO][  1].a[  6] =       165.706601640000;     BAS[ATNO][  1].d[  6] =        -0.139003822559;
  BAS[ATNO][  1].a[  7] =        65.598942707000;     BAS[ATNO][  1].d[  7] =        -0.073316941385;
  BAS[ATNO][  1].a[  8] =       414.412658110000;     BAS[ATNO][  1].d[  8] =        -0.025939042548;
  BAS[ATNO][  1].a[  9] =       128.320560390000;     BAS[ATNO][  1].d[  9] =        -0.123132979093;
  BAS[ATNO][  1].a[ 10] =        20.622089750000;     BAS[ATNO][  1].d[ 10] =         0.581165493115;
  BAS[ATNO][  1].a[ 11] =         8.782122604500;     BAS[ATNO][  1].d[ 11] =         0.549022474539;
  BAS[ATNO][  1].a[ 12] =        13.741372006000;     BAS[ATNO][  1].d[ 12] =        -0.013132374703;
  BAS[ATNO][  1].a[ 13] =         2.243124683300;     BAS[ATNO][  1].d[ 13] =         0.041449355554;
  BAS[ATNO][  1].a[ 14] =         0.893705490800;     BAS[ATNO][  1].d[ 14] =        -0.009265431775;
  BAS[ATNO][  1].a[ 15] =         0.108366995300;     BAS[ATNO][  1].d[ 15] =         0.001915560424;
  BAS[ATNO][  1].a[ 16] =         0.038806178100;     BAS[ATNO][  1].d[ 16] =        -0.000912347184;

  // Basis function   3 L = s
  InitBFNGauss(BAS[ATNO][  2]);
  BAS[ATNO][  2].l  = 0;
  BAS[ATNO][  2].ng = 17;
  BAS[ATNO][  2].a[  0] =    377518.799230000004;     BAS[ATNO][  2].d[  0] =         0.000028462464;
  BAS[ATNO][  2].a[  1] =     56589.984311000000;     BAS[ATNO][  2].d[  1] =         0.000220695319;
  BAS[ATNO][  2].a[  2] =     12878.711706000000;     BAS[ATNO][  2].d[  2] =         0.001147811211;
  BAS[ATNO][  2].a[  3] =      3645.375214300000;     BAS[ATNO][  2].d[  3] =         0.004667808348;
  BAS[ATNO][  2].a[  4] =      1187.007294500000;     BAS[ATNO][  2].d[  4] =         0.015209422217;
  BAS[ATNO][  2].a[  5] =       426.464219020000;     BAS[ATNO][  2].d[  5] =         0.036163490517;
  BAS[ATNO][  2].a[  6] =       165.706601640000;     BAS[ATNO][  2].d[  6] =         0.051819714689;
  BAS[ATNO][  2].a[  7] =        65.598942707000;     BAS[ATNO][  2].d[  7] =         0.027332075583;
  BAS[ATNO][  2].a[  8] =       414.412658110000;     BAS[ATNO][  2].d[  8] =         0.011541335413;
  BAS[ATNO][  2].a[  9] =       128.320560390000;     BAS[ATNO][  2].d[  9] =         0.054786872316;
  BAS[ATNO][  2].a[ 10] =        20.622089750000;     BAS[ATNO][  2].d[ 10] =        -0.258584173796;
  BAS[ATNO][  2].a[ 11] =         8.782122604500;     BAS[ATNO][  2].d[ 11] =        -0.244282437027;
  BAS[ATNO][  2].a[ 12] =        13.741372006000;     BAS[ATNO][  2].d[ 12] =        -0.239333904869;
  BAS[ATNO][  2].a[ 13] =         2.243124683300;     BAS[ATNO][  2].d[ 13] =         0.755403066355;
  BAS[ATNO][  2].a[ 14] =         0.893705490800;     BAS[ATNO][  2].d[ 14] =         0.465403197602;
  BAS[ATNO][  2].a[ 15] =         0.108366995300;     BAS[ATNO][  2].d[ 15] =         0.012321410754;
  BAS[ATNO][  2].a[ 16] =         0.038806178100;     BAS[ATNO][  2].d[ 16] =        -0.004563318119;

  // Basis function   4 L = s
  InitBFNGauss(BAS[ATNO][  3]);
  BAS[ATNO][  3].l  = 0;
  BAS[ATNO][  3].ng = 17;
  BAS[ATNO][  3].a[  0] =    377518.799230000004;     BAS[ATNO][  3].d[  0] =        -0.000005771207;
  BAS[ATNO][  3].a[  1] =     56589.984311000000;     BAS[ATNO][  3].d[  1] =        -0.000044749408;
  BAS[ATNO][  3].a[  2] =     12878.711706000000;     BAS[ATNO][  3].d[  2] =        -0.000232736573;
  BAS[ATNO][  3].a[  3] =      3645.375214300000;     BAS[ATNO][  3].d[  3] =        -0.000946470735;
  BAS[ATNO][  3].a[  4] =      1187.007294500000;     BAS[ATNO][  3].d[  4] =        -0.003083946887;
  BAS[ATNO][  3].a[  5] =       426.464219020000;     BAS[ATNO][  3].d[  5] =        -0.007332710105;
  BAS[ATNO][  3].a[  6] =       165.706601640000;     BAS[ATNO][  3].d[  6] =        -0.010507253037;
  BAS[ATNO][  3].a[  7] =        65.598942707000;     BAS[ATNO][  3].d[  7] =        -0.005542003384;
  BAS[ATNO][  3].a[  8] =       414.412658110000;     BAS[ATNO][  3].d[  8] =        -0.002027820526;
  BAS[ATNO][  3].a[  9] =       128.320560390000;     BAS[ATNO][  3].d[  9] =        -0.009626090941;
  BAS[ATNO][  3].a[ 10] =        20.622089750000;     BAS[ATNO][  3].d[ 10] =         0.045433416211;
  BAS[ATNO][  3].a[ 11] =         8.782122604500;     BAS[ATNO][  3].d[ 11] =         0.042920591278;
  BAS[ATNO][  3].a[ 12] =        13.741372006000;     BAS[ATNO][  3].d[ 12] =         0.065804479141;
  BAS[ATNO][  3].a[ 13] =         2.243124683300;     BAS[ATNO][  3].d[ 13] =        -0.207696880014;
  BAS[ATNO][  3].a[ 14] =         0.893705490800;     BAS[ATNO][  3].d[ 14] =        -0.229252029306;
  BAS[ATNO][  3].a[ 15] =         0.108366995300;     BAS[ATNO][  3].d[ 15] =         0.744373501456;
  BAS[ATNO][  3].a[ 16] =         0.038806178100;     BAS[ATNO][  3].d[ 16] =         0.374472886355;

  // Basis function   5 L = s
  InitBFNGauss(BAS[ATNO][  4]);
  BAS[ATNO][  4].l  = 0;
  BAS[ATNO][  4].ng = 17;
  BAS[ATNO][  4].a[  0] =    377518.799230000004;     BAS[ATNO][  4].d[  0] =        -0.000004682521;
  BAS[ATNO][  4].a[  1] =     56589.984311000000;     BAS[ATNO][  4].d[  1] =        -0.000036307833;
  BAS[ATNO][  4].a[  2] =     12878.711706000000;     BAS[ATNO][  4].d[  2] =        -0.000188832902;
  BAS[ATNO][  4].a[  3] =      3645.375214300000;     BAS[ATNO][  4].d[  3] =        -0.000767927504;
  BAS[ATNO][  4].a[  4] =      1187.007294500000;     BAS[ATNO][  4].d[  4] =        -0.002502187914;
  BAS[ATNO][  4].a[  5] =       426.464219020000;     BAS[ATNO][  4].d[  5] =        -0.005949459987;
  BAS[ATNO][  4].a[  6] =       165.706601640000;     BAS[ATNO][  4].d[  6] =        -0.008525153814;
  BAS[ATNO][  4].a[  7] =        65.598942707000;     BAS[ATNO][  4].d[  7] =        -0.004496554058;
  BAS[ATNO][  4].a[  8] =       414.412658110000;     BAS[ATNO][  4].d[  8] =        -0.001814424016;
  BAS[ATNO][  4].a[  9] =       128.320560390000;     BAS[ATNO][  4].d[  9] =        -0.008613094874;
  BAS[ATNO][  4].a[ 10] =        20.622089750000;     BAS[ATNO][  4].d[ 10] =         0.040652257147;
  BAS[ATNO][  4].a[ 11] =         8.782122604500;     BAS[ATNO][  4].d[ 11] =         0.038403867881;
  BAS[ATNO][  4].a[ 12] =        13.741372006000;     BAS[ATNO][  4].d[ 12] =         0.049425382417;
  BAS[ATNO][  4].a[ 13] =         2.243124683300;     BAS[ATNO][  4].d[ 13] =        -0.155999984430;
  BAS[ATNO][  4].a[ 14] =         0.893705490800;     BAS[ATNO][  4].d[ 14] =        -0.276016394294;
  BAS[ATNO][  4].a[ 15] =         0.108366995300;     BAS[ATNO][  4].d[ 15] =         1.863358572593;
  BAS[ATNO][  4].a[ 16] =         0.038806178100;     BAS[ATNO][  4].d[ 16] =        -1.817122793585;

  // Basis function   6 L = s
  InitBFNGauss(BAS[ATNO][  5]);
  BAS[ATNO][  5].l  = 0;
  BAS[ATNO][  5].ng = 17;
  BAS[ATNO][  5].a[  0] =    377518.799230000004;     BAS[ATNO][  5].d[  0] =         0.000037679525;
  BAS[ATNO][  5].a[  1] =     56589.984311000000;     BAS[ATNO][  5].d[  1] =         0.000292163559;
  BAS[ATNO][  5].a[  2] =     12878.711706000000;     BAS[ATNO][  5].d[  2] =         0.001519509382;
  BAS[ATNO][  5].a[  3] =      3645.375214300000;     BAS[ATNO][  5].d[  3] =         0.006179394752;
  BAS[ATNO][  5].a[  4] =      1187.007294500000;     BAS[ATNO][  5].d[  4] =         0.020134722085;
  BAS[ATNO][  5].a[  5] =       426.464219020000;     BAS[ATNO][  5].d[  5] =         0.047874391333;
  BAS[ATNO][  5].a[  6] =       165.706601640000;     BAS[ATNO][  5].d[  6] =         0.068600604210;
  BAS[ATNO][  5].a[  7] =        65.598942707000;     BAS[ATNO][  5].d[  7] =         0.036183080330;
  BAS[ATNO][  5].a[  8] =       414.412658110000;     BAS[ATNO][  5].d[  8] =        -0.000718350680;
  BAS[ATNO][  5].a[  9] =       128.320560390000;     BAS[ATNO][  5].d[  9] =        -0.003410020206;
  BAS[ATNO][  5].a[ 10] =        20.622089750000;     BAS[ATNO][  5].d[ 10] =         0.016094681452;
  BAS[ATNO][  5].a[ 11] =         8.782122604500;     BAS[ATNO][  5].d[ 11] =         0.015204519095;
  BAS[ATNO][  5].a[ 12] =        13.741372006000;     BAS[ATNO][  5].d[ 12] =        -0.816106988540;
  BAS[ATNO][  5].a[ 13] =         2.243124683300;     BAS[ATNO][  5].d[ 13] =         2.575856195358;
  BAS[ATNO][  5].a[ 14] =         0.893705490800;     BAS[ATNO][  5].d[ 14] =        -2.568246897433;
  BAS[ATNO][  5].a[ 15] =         0.108366995300;     BAS[ATNO][  5].d[ 15] =         0.984748858041;
  BAS[ATNO][  5].a[ 16] =         0.038806178100;     BAS[ATNO][  5].d[ 16] =        -0.485837068651;

  // Basis function   7 L = p
  InitBFNGauss(BAS[ATNO][  6]);
  BAS[ATNO][  6].l  = 1;
  BAS[ATNO][  6].ng = 13;
  BAS[ATNO][  6].a[  0] =      2034.759669200000;     BAS[ATNO][  6].d[  0] =         0.002653712296;
  BAS[ATNO][  6].a[  1] =       481.904681060000;     BAS[ATNO][  6].d[  1] =         0.021584145869;
  BAS[ATNO][  6].a[  2] =       154.674829630000;     BAS[ATNO][  6].d[  2] =         0.101717314118;
  BAS[ATNO][  6].a[  3] =        57.740576969000;     BAS[ATNO][  6].d[  3] =         0.294006301799;
  BAS[ATNO][  6].a[  4] =        23.099052811000;     BAS[ATNO][  6].d[  4] =         0.474834626919;
  BAS[ATNO][  6].a[  5] =         9.388247859100;     BAS[ATNO][  6].d[  5] =         0.274618887615;
  BAS[ATNO][  6].a[  6] =        37.596171210000;     BAS[ATNO][  6].d[  6] =        -0.000496273433;
  BAS[ATNO][  6].a[  7] =         5.124069081000;     BAS[ATNO][  6].d[  7] =         0.009401122213;
  BAS[ATNO][  6].a[  8] =         2.011999608500;     BAS[ATNO][  6].d[  8] =         0.016055667742;
  BAS[ATNO][  6].a[  9] =         0.738606860000;     BAS[ATNO][  6].d[  9] =        -0.006141195821;
  BAS[ATNO][  6].a[ 10] =         0.271100000000;     BAS[ATNO][  6].d[ 10] =         0.003350200827;
  BAS[ATNO][  6].a[ 11] =         0.099540000000;     BAS[ATNO][  6].d[ 11] =        -0.001515061312;
  BAS[ATNO][  6].a[ 12] =         0.034015997000;     BAS[ATNO][  6].d[ 12] =         0.000465813772;

  // Basis function   8 L = p
  InitBFNGauss(BAS[ATNO][  7]);
  BAS[ATNO][  7].l  = 1;
  BAS[ATNO][  7].ng = 13;
  BAS[ATNO][  7].a[  0] =      2034.759669200000;     BAS[ATNO][  7].d[  0] =        -0.001020974514;
  BAS[ATNO][  7].a[  1] =       481.904681060000;     BAS[ATNO][  7].d[  1] =        -0.008304164274;
  BAS[ATNO][  7].a[  2] =       154.674829630000;     BAS[ATNO][  7].d[  2] =        -0.039134153889;
  BAS[ATNO][  7].a[  3] =        57.740576969000;     BAS[ATNO][  7].d[  3] =        -0.113114349887;
  BAS[ATNO][  7].a[  4] =        23.099052811000;     BAS[ATNO][  7].d[  4] =        -0.182685234294;
  BAS[ATNO][  7].a[  5] =         9.388247859100;     BAS[ATNO][  7].d[  5] =        -0.105655343948;
  BAS[ATNO][  7].a[  6] =        37.596171210000;     BAS[ATNO][  7].d[  6] =        -0.018146707418;
  BAS[ATNO][  7].a[  7] =         5.124069081000;     BAS[ATNO][  7].d[  7] =         0.343760924908;
  BAS[ATNO][  7].a[  8] =         2.011999608500;     BAS[ATNO][  7].d[  8] =         0.587090675788;
  BAS[ATNO][  7].a[  9] =         0.738606860000;     BAS[ATNO][  7].d[  9] =         0.263090648441;
  BAS[ATNO][  7].a[ 10] =         0.271100000000;     BAS[ATNO][  7].d[ 10] =         0.001492205301;
  BAS[ATNO][  7].a[ 11] =         0.099540000000;     BAS[ATNO][  7].d[ 11] =         0.005834521472;
  BAS[ATNO][  7].a[ 12] =         0.034015997000;     BAS[ATNO][  7].d[ 12] =        -0.001845504211;

  // Basis function   9 L = p
  InitBFNGauss(BAS[ATNO][  8]);
  BAS[ATNO][  8].l  = 1;
  BAS[ATNO][  8].ng = 13;
  BAS[ATNO][  8].a[  0] =      2034.759669200000;     BAS[ATNO][  8].d[  0] =         0.000128101893;
  BAS[ATNO][  8].a[  1] =       481.904681060000;     BAS[ATNO][  8].d[  1] =         0.001041925289;
  BAS[ATNO][  8].a[  2] =       154.674829630000;     BAS[ATNO][  8].d[  2] =         0.004910170761;
  BAS[ATNO][  8].a[  3] =        57.740576969000;     BAS[ATNO][  8].d[  3] =         0.014192481970;
  BAS[ATNO][  8].a[  4] =        23.099052811000;     BAS[ATNO][  8].d[  4] =         0.022921555899;
  BAS[ATNO][  8].a[  5] =         9.388247859100;     BAS[ATNO][  8].d[  5] =         0.013256598880;
  BAS[ATNO][  8].a[  6] =        37.596171210000;     BAS[ATNO][  8].d[  6] =         0.002710315973;
  BAS[ATNO][  8].a[  7] =         5.124069081000;     BAS[ATNO][  8].d[  7] =        -0.051342687361;
  BAS[ATNO][  8].a[  8] =         2.011999608500;     BAS[ATNO][  8].d[  8] =        -0.087685396551;
  BAS[ATNO][  8].a[  9] =         0.738606860000;     BAS[ATNO][  8].d[  9] =        -0.044679274394;
  BAS[ATNO][  8].a[ 10] =         0.271100000000;     BAS[ATNO][  8].d[ 10] =         0.100264034417;
  BAS[ATNO][  8].a[ 11] =         0.099540000000;     BAS[ATNO][  8].d[ 11] =         0.461685470678;
  BAS[ATNO][  8].a[ 12] =         0.034015997000;     BAS[ATNO][  8].d[ 12] =         0.569189697501;

  // Basis function  10 L = p
  InitBFNGauss(BAS[ATNO][  9]);
  BAS[ATNO][  9].l  = 1;
  BAS[ATNO][  9].ng = 13;
  BAS[ATNO][  9].a[  0] =      2034.759669200000;     BAS[ATNO][  9].d[  0] =         0.000142957697;
  BAS[ATNO][  9].a[  1] =       481.904681060000;     BAS[ATNO][  9].d[  1] =         0.001162755958;
  BAS[ATNO][  9].a[  2] =       154.674829630000;     BAS[ATNO][  9].d[  2] =         0.005479596633;
  BAS[ATNO][  9].a[  3] =        57.740576969000;     BAS[ATNO][  9].d[  3] =         0.015838364937;
  BAS[ATNO][  9].a[  4] =        23.099052811000;     BAS[ATNO][  9].d[  4] =         0.025579737781;
  BAS[ATNO][  9].a[  5] =         9.388247859100;     BAS[ATNO][  9].d[  5] =         0.014793948749;
  BAS[ATNO][  9].a[  6] =        37.596171210000;     BAS[ATNO][  9].d[  6] =         0.003138741209;
  BAS[ATNO][  9].a[  7] =         5.124069081000;     BAS[ATNO][  9].d[  7] =        -0.059458531856;
  BAS[ATNO][  9].a[  8] =         2.011999608500;     BAS[ATNO][  9].d[  8] =        -0.101546008053;
  BAS[ATNO][  9].a[  9] =         0.738606860000;     BAS[ATNO][  9].d[  9] =        -0.006896625608;
  BAS[ATNO][  9].a[ 10] =         0.271100000000;     BAS[ATNO][  9].d[ 10] =        -0.056253109043;
  BAS[ATNO][  9].a[ 11] =         0.099540000000;     BAS[ATNO][  9].d[ 11] =         1.372989797571;
  BAS[ATNO][  9].a[ 12] =         0.034015997000;     BAS[ATNO][  9].d[ 12] =        -1.335992479123;

  // Basis function  11 L = p
  InitBFNGauss(BAS[ATNO][ 10]);
  BAS[ATNO][ 10].l  = 1;
  BAS[ATNO][ 10].ng = 13;
  BAS[ATNO][ 10].a[  0] =      2034.759669200000;     BAS[ATNO][ 10].d[  0] =         0.000288144096;
  BAS[ATNO][ 10].a[  1] =       481.904681060000;     BAS[ATNO][ 10].d[  1] =         0.002343639217;
  BAS[ATNO][ 10].a[  2] =       154.674829630000;     BAS[ATNO][ 10].d[  2] =         0.011044619876;
  BAS[ATNO][ 10].a[  3] =        57.740576969000;     BAS[ATNO][ 10].d[  3] =         0.031923649111;
  BAS[ATNO][ 10].a[  4] =        23.099052811000;     BAS[ATNO][ 10].d[  4] =         0.051558262264;
  BAS[ATNO][ 10].a[  5] =         9.388247859100;     BAS[ATNO][ 10].d[  5] =         0.029818534344;
  BAS[ATNO][ 10].a[  6] =        37.596171210000;     BAS[ATNO][ 10].d[  6] =         0.005769553232;
  BAS[ATNO][ 10].a[  7] =         5.124069081000;     BAS[ATNO][ 10].d[  7] =        -0.109295141514;
  BAS[ATNO][ 10].a[  8] =         2.011999608500;     BAS[ATNO][ 10].d[  8] =        -0.186659256019;
  BAS[ATNO][ 10].a[  9] =         0.738606860000;     BAS[ATNO][ 10].d[  9] =        -0.479026067005;
  BAS[ATNO][ 10].a[ 10] =         0.271100000000;     BAS[ATNO][ 10].d[ 10] =         2.166255767860;
  BAS[ATNO][ 10].a[ 11] =         0.099540000000;     BAS[ATNO][ 10].d[ 11] =        -1.966728824539;
  BAS[ATNO][ 10].a[ 12] =         0.034015997000;     BAS[ATNO][ 10].d[ 12] =         0.718768079363;

  // Basis function  12 L = p
  InitBFNGauss(BAS[ATNO][ 11]);
  BAS[ATNO][ 11].l  = 1;
  BAS[ATNO][ 11].ng = 13;
  BAS[ATNO][ 11].a[  0] =      2034.759669200000;     BAS[ATNO][ 11].d[  0] =         0.000885948577;
  BAS[ATNO][ 11].a[  1] =       481.904681060000;     BAS[ATNO][ 11].d[  1] =         0.007205921811;
  BAS[ATNO][ 11].a[  2] =       154.674829630000;     BAS[ATNO][ 11].d[  2] =         0.033958583158;
  BAS[ATNO][ 11].a[  3] =        57.740576969000;     BAS[ATNO][ 11].d[  3] =         0.098154749123;
  BAS[ATNO][ 11].a[  4] =        23.099052811000;     BAS[ATNO][ 11].d[  4] =         0.158524743840;
  BAS[ATNO][ 11].a[  5] =         9.388247859100;     BAS[ATNO][ 11].d[  5] =         0.091682211753;
  BAS[ATNO][ 11].a[  6] =        37.596171210000;     BAS[ATNO][ 11].d[  6] =         0.026899206316;
  BAS[ATNO][ 11].a[  7] =         5.124069081000;     BAS[ATNO][ 11].d[  7] =        -0.509563295930;
  BAS[ATNO][ 11].a[  8] =         2.011999608500;     BAS[ATNO][ 11].d[  8] =        -0.870255570335;
  BAS[ATNO][ 11].a[  9] =         0.738606860000;     BAS[ATNO][ 11].d[  9] =         2.362702424092;
  BAS[ATNO][ 11].a[ 10] =         0.271100000000;     BAS[ATNO][ 11].d[ 10] =        -1.960135033484;
  BAS[ATNO][ 11].a[ 11] =         0.099540000000;     BAS[ATNO][ 11].d[ 11] =         0.973485783892;
  BAS[ATNO][ 11].a[ 12] =         0.034015997000;     BAS[ATNO][ 11].d[ 12] =        -0.295635884964;

  // Basis function  13 L = d
  InitBFNGauss(BAS[ATNO][ 12]);
  BAS[ATNO][ 12].l  = 2;
  BAS[ATNO][ 12].ng = 7;
  BAS[ATNO][ 12].a[  0] =        74.129460637000;     BAS[ATNO][ 12].d[  0] =         0.014397275308;
  BAS[ATNO][ 12].a[  1] =        21.359842587000;     BAS[ATNO][ 12].d[  1] =         0.086833593143;
  BAS[ATNO][ 12].a[  2] =         7.499524053700;     BAS[ATNO][ 12].d[  2] =         0.256922087674;
  BAS[ATNO][ 12].a[  3] =         2.760139416900;     BAS[ATNO][ 12].d[  3] =         0.404697988893;
  BAS[ATNO][ 12].a[  4] =         0.953620612400;     BAS[ATNO][ 12].d[  4] =         0.393543703875;
  BAS[ATNO][ 12].a[  5] =         0.284208625200;     BAS[ATNO][ 12].d[  5] =         0.224230924530;
  BAS[ATNO][ 12].a[  6] =         0.085000000000;     BAS[ATNO][ 12].d[  6] =         0.014354073214;

  // Basis function  14 L = d
  InitBFNGauss(BAS[ATNO][ 13]);
  BAS[ATNO][ 13].l  = 2;
  BAS[ATNO][ 13].ng = 7;
  BAS[ATNO][ 13].a[  0] =        74.129460637000;     BAS[ATNO][ 13].d[  0] =        -0.002764533780;
  BAS[ATNO][ 13].a[  1] =        21.359842587000;     BAS[ATNO][ 13].d[  1] =        -0.016673599437;
  BAS[ATNO][ 13].a[  2] =         7.499524053700;     BAS[ATNO][ 13].d[  2] =        -0.049333625630;
  BAS[ATNO][ 13].a[  3] =         2.760139416900;     BAS[ATNO][ 13].d[  3] =        -0.077709235738;
  BAS[ATNO][ 13].a[  4] =         0.953620612400;     BAS[ATNO][ 13].d[  4] =        -0.053081649061;
  BAS[ATNO][ 13].a[  5] =         0.284208625200;     BAS[ATNO][ 13].d[  5] =        -0.104277524292;
  BAS[ATNO][ 13].a[  6] =         0.085000000000;     BAS[ATNO][ 13].d[  6] =         1.045410719749;

  // Basis function  15 L = d
  InitBFNGauss(BAS[ATNO][ 14]);
  BAS[ATNO][ 14].l  = 2;
  BAS[ATNO][ 14].ng = 7;
  BAS[ATNO][ 14].a[  0] =        74.129460637000;     BAS[ATNO][ 14].d[  0] =        -0.007151651741;
  BAS[ATNO][ 14].a[  1] =        21.359842587000;     BAS[ATNO][ 14].d[  1] =        -0.043133412698;
  BAS[ATNO][ 14].a[  2] =         7.499524053700;     BAS[ATNO][ 14].d[  2] =        -0.127622571379;
  BAS[ATNO][ 14].a[  3] =         2.760139416900;     BAS[ATNO][ 14].d[  3] =        -0.201028251178;
  BAS[ATNO][ 14].a[  4] =         0.953620612400;     BAS[ATNO][ 14].d[  4] =        -0.329102877583;
  BAS[ATNO][ 14].a[  5] =         0.284208625200;     BAS[ATNO][ 14].d[  5] =         1.298063524785;
  BAS[ATNO][ 14].a[  6] =         0.085000000000;     BAS[ATNO][ 14].d[  6] =        -0.625444564647;

  // Basis function  16 L = d
  InitBFNGauss(BAS[ATNO][ 15]);
  BAS[ATNO][ 15].l  = 2;
  BAS[ATNO][ 15].ng = 7;
  BAS[ATNO][ 15].a[  0] =        74.129460637000;     BAS[ATNO][ 15].d[  0] =        -0.020140314965;
  BAS[ATNO][ 15].a[  1] =        21.359842587000;     BAS[ATNO][ 15].d[  1] =        -0.121471311620;
  BAS[ATNO][ 15].a[  2] =         7.499524053700;     BAS[ATNO][ 15].d[  2] =        -0.359407711282;
  BAS[ATNO][ 15].a[  3] =         2.760139416900;     BAS[ATNO][ 15].d[  3] =        -0.566131076020;
  BAS[ATNO][ 15].a[  4] =         0.953620612400;     BAS[ATNO][ 15].d[  4] =         1.331638314578;
  BAS[ATNO][ 15].a[  5] =         0.284208625200;     BAS[ATNO][ 15].d[  5] =        -0.708680687768;
  BAS[ATNO][ 15].a[  6] =         0.085000000000;     BAS[ATNO][ 15].d[  6] =         0.231439738532;

  // Basis function  17 L = f
  InitBFNGauss(BAS[ATNO][ 16]);
  BAS[ATNO][ 16].l  = 3;
  BAS[ATNO][ 16].ng = 2;
  BAS[ATNO][ 16].a[  0] =         1.209000000000;     BAS[ATNO][ 16].d[  0] =         0.985784284682;
  BAS[ATNO][ 16].a[  1] =         4.936000000000;     BAS[ATNO][ 16].d[  1] =         0.038115611029;

  // Basis function  18 L = f
  InitBFNGauss(BAS[ATNO][ 17]);
  BAS[ATNO][ 17].l  = 3;
  BAS[ATNO][ 17].ng = 2;
  BAS[ATNO][ 17].a[  0] =         1.209000000000;     BAS[ATNO][ 17].d[  0] =        -0.416721808040;
  BAS[ATNO][ 17].a[  1] =         4.936000000000;     BAS[ATNO][ 17].d[  1] =         1.069567632933;

  // Basis function  19 L = g
  InitBFNGauss(BAS[ATNO][ 18]);
  BAS[ATNO][ 18].l  = 4;
  BAS[ATNO][ 18].ng = 1;
  BAS[ATNO][ 18].a[  0] =         3.245000000000;     BAS[ATNO][ 18].d[  0] =         1.000000000000;

-------
TIMINGS
-------

Total SCF time: 0 days 0 hours 0 min 14 sec 

Total time                  ....      14.369 sec
Sum of individual times     ....      14.051 sec  ( 97.8%)

Fock matrix formation       ....      13.098 sec  ( 91.2%)
  XC integration            ....      11.796 sec  ( 90.1% of F)
    Basis function eval.    ....       0.005 sec  (  0.0% of XC)
    Density eval.           ....       0.004 sec  (  0.0% of XC)
    XC-Functional eval.     ....       0.008 sec  (  0.1% of XC)
    XC-Potential eval.      ....       0.004 sec  (  0.0% of XC)
Diagonalization             ....       0.175 sec  (  1.2%)
Density matrix formation    ....       0.014 sec  (  0.1%)
Population analysis         ....       0.036 sec  (  0.3%)
Initial guess               ....       0.179 sec  (  1.2%)
Orbital Transformation      ....       0.000 sec  (  0.0%)
Orbital Orthonormalization  ....       0.000 sec  (  0.0%)
DIIS solution               ....       0.039 sec  (  0.3%)
Grid generation             ....       0.509 sec  (  3.5%)


           ************************************************************
           *        Program running with 28 parallel MPI-processes    *
           *              working on a common directory               *
           ************************************************************

------------------------------------------------------------------------------
                                ORCA  MP2 
------------------------------------------------------------------------------

Freezing NCore=10 chemical core electrons

-------------
RI-MP2 ENERGY
-------------
Dimension of the basis                    ...   67
Memory devoted to MP2                     ... 5000 MB   
Data format for buffers                   ... DOUBLE
Compression type for matrix containers    ... UNCOMPRESSED
Scaling for aa/bb pairs                   ...   4.000e-01
Scaling for ab pairs                      ...   4.700e-01
Overall scaling of the MP2 energy         ...   1.000e+00
Calculating two index integrals           ... done (    0.004 sec)
Cholesky decomposition of V**-1           ... done (    0.034 sec)

-----------------
RI-TRANSFORMATION (AUX index driven)
-----------------

Dimension of the orbital-basis         ... 67
Dimension of the aux-basis             ... 225
Transformation of internal/external MOs...    5-  13 to   14-  66
Number Format for Storage              ... Double (8 Byte)
Integral mode                          ... Direct

First Phase: integral generation and transformation of MO indices
  Aux angular momentum 0               ... done (    0.000 sec)
  Aux angular momentum 1               ... done (    0.002 sec)
  Aux angular momentum 2               ... done (    0.001 sec)
  Aux angular momentum 3               ... done (    0.001 sec)
  Aux angular momentum 4               ... done (    0.001 sec)
  Aux angular momentum 5               ... done (    0.002 sec)
  Aux angular momentum 6               ... done (    0.003 sec)
Closing buffer VIA ( 0.00 GB; CompressionRatio= 1.00)
  Phase 1 completed in     0.777 sec
Second Phase: sorting and transformation of aux index

IA-Transformation
Memory available                       ... 5000 MB 
Max. # MO pairs treated in a batch     ... 1    
# of internal orbitals                 ... 9
# batches for internal orbitals        ... 1
Closing buffer IAV ( 0.00 GB; CompressionRatio= 1.00)
(ia|v) transformation done in     0.044 sec

  Phase 2 completed in     0.112 sec
RI-Integral transformation completed in     0.917 sec
Opening buffers                              ... done

Starting loop over batches of integrals:

Operator 0  - window                       ... (  5- 13)x( 14- 66)
Operator 0  - Memory available             ...  5000 MB
Operator 0  - Memory needed per MO         ...   0.1 MB
Operator 0  - Number of orbitals per batch ... 1
Operator 0  - Number of batches            ... 1

OPERATOR  0   PASS   0:  MOs     5 ...    5 +    6 ...    6 +    7 ...    7 +    8 ...    8
                            +    9 ...    9 +   10 ...   10 +   11 ...   11 +   12 ...   12
                            +   13 ...   13
  Reading integrals       ... ok
Time spent in pair loops =     0.002 sec
Deleting buffer (Ka|jb)[aa] ...done

-----------------------------------------------
 RI-MP2 CORRELATION ENERGY:     -0.385835848 Eh
-----------------------------------------------


-------
TIMINGS
-------

Total time                :    1.016 sec
Integral trafo            :    0.934 sec ( 91.9%)
I/O of integrals          :    0.000 sec (  0.0%)
K(i,j) Operators          :    0.000 sec (  0.0%)
T(i,j) pair energies      :    0.000 sec (  0.0%)
V-calculation             :    0.004 sec (  0.4%)
V**(-1/2)                 :    0.034 sec (  3.4%)
Gamma(ia|P)               :    0.000 sec (  0.0%)
Gamma-Trafo               :    0.000 sec (  0.0%)
D(virtual)                :    0.000 sec (  0.0%)
D(internal)               :    0.000 sec (  0.0%)
W(virtual)                :    0.000 sec (  0.0%)
W(internal)               :    0.000 sec (  0.0%)
L(virtual)                :    0.000 sec (  0.0%)
L(internal)               :    0.000 sec (  0.0%)
G(D)                      :    0.000 sec (  0.0%)
G(Z)                      :    0.000 sec (  0.0%)
Z-Vector Solution         :    0.000 sec (  0.0%)
Z-Vector Solution         :    0.000 sec (  0.0%)
3-Index Derivative 
+ Separable RIJ part      :    0.000 sec (  0.0%)
2-Index Derivative 
+ Separable RIJ part      :    0.000 sec (  0.0%)
Separable Gradient (X)    :    0.000 sec (  0.0%)


---------------------------------------
MP2 TOTAL ENERGY:    -1639.870243591 Eh
---------------------------------------


-------------------------------------------------------------------------------
                          DFT DISPERSION CORRECTION                            
                                                                               
                              DFTD3 V3.1  Rev 1                                
                          USING Becke-Johnson damping                          
-------------------------------------------------------------------------------
The DSD-BLYP/2013 functional is recognized
Active option DFTDOPT                   ...         4   

molecular C6(AA) [au] = 332.271407 


            DFT-D V3
 parameters
 s6 scaling factor         :     0.5700 
 a1 scaling factor         :     0.0000 
 s8 scaling factor         :     0.0000 
 a2 scaling factor         :     5.4000 
 ad hoc parameters k1-k3   :    16.0000     1.3333    -4.0000 

 Edisp/kcal,au: -0.000000000000  -0.000000000000 
 E6   /kcal   :  -0.000000000 
 E8   /kcal   :  -0.000000000 
 % E8         :          -nan 

-------------------------   ----------------
Dispersion correction            0.000000000
-------------------------   ----------------


-------------------------   --------------------
FINAL SINGLE POINT ENERGY     -1639.870243590655
-------------------------   --------------------


                            ***************************************
                            *     ORCA property calculations      *
                            ***************************************


  WARNING: The energy has been calculated at the MP2 level but the densities
           used in the property calculations are still SCF densities
           MP2 response densities have not been calculated 
           use %mp2 Density relaxed end
           or  %mp2 Density unrelaxed end

                                    ---------------------
                                    Active property flags
                                    ---------------------
   (+) Dipole Moment


------------------------------------------------------------------------------
                       ORCA ELECTRIC PROPERTIES CALCULATION
------------------------------------------------------------------------------

Dipole Moment Calculation                       ... on
Quadrupole Moment Calculation                   ... off
Polarizability Calculation                      ... off
GBWName                                         ... Cu+.gbw
Electron density file                           ... Cu+.scfp
The origin for moment calculation is the CENTER OF MASS  = ( 0.000000,  0.000000  0.000000)

-------------
DIPOLE MOMENT
-------------
                                X             Y             Z
Electronic contribution:     -0.00000      -0.00000       0.00000
Nuclear contribution   :      0.00000       0.00000       0.00000
                        -----------------------------------------
Total Dipole Moment    :     -0.00000      -0.00000       0.00000
                        -----------------------------------------
Magnitude (a.u.)       :      0.00000
Magnitude (Debye)      :      0.00000



--------------------
Rotational spectrum 
--------------------
 
Rotational constants in cm-1:     0.000000     0.000000     0.000000 
Rotational constants in MHz :     0.000000     0.000000     0.000000 

 Dipole components along the rotational axes: 
x,y,z [a.u.] :    -0.000000    -0.000000     0.000000 
x,y,z [Debye]:    -0.000000    -0.000000     0.000000 

 

Timings for individual modules:

Sum of individual times         ...       17.598 sec (=   0.293 min)
GTO integral calculation        ...        0.924 sec (=   0.015 min)   5.2 %
SCF iterations                  ...       14.925 sec (=   0.249 min)  84.8 %
MP2 module                      ...        1.749 sec (=   0.029 min)   9.9 %
                             ****ORCA TERMINATED NORMALLY****
TOTAL RUN TIME: 0 days 0 hours 0 minutes 21 seconds 86 msec
