
                                 *****************
                                 * O   R   C   A *
                                 *****************

           --- An Ab Initio, DFT and Semiempirical electronic structure package ---

                  #######################################################
                  #                        -***-                        #
                  #          Department of theory and spectroscopy      #
                  #               Directorship: Frank Neese             #
                  #        Max Planck Institute fuer Kohlenforschung    #
                  #                Kaiser Wilhelm Platz 1               #
                  #                 D-45470 Muelheim/Ruhr               #
                  #                      Germany                        #
                  #                                                     #
                  #                  All rights reserved                #
                  #                        -***-                        #
                  #######################################################


                         Program Version 4.2.0 -  RELEASE  -


 With contributions from (in alphabetic order):
   Daniel Aravena         : Magnetic Suceptibility
   Michael Atanasov       : Ab Initio Ligand Field Theory (pilot matlab implementation)
   Alexander A. Auer      : GIAO ZORA, VPT2
   Ute Becker             : Parallelization
   Giovanni Bistoni       : ED, misc. LED, open-shell LED, HFLED
   Martin Brehm           : Molecular dynamics
   Dmytro Bykov           : SCF Hessian
   Vijay G. Chilkuri      : MRCI spin determinant printing, contributions to CSF-ICE
   Dipayan Datta          : RHF DLPNO-CCSD density
   Achintya Kumar Dutta   : EOM-CC, STEOM-CC
   Dmitry Ganyushin       : Spin-Orbit,Spin-Spin,Magnetic field MRCI
   Miquel Garcia          : C-PCM Hessian, Gaussian charge scheme
   Yang Guo               : DLPNO-NEVPT2, CIM, IAO-localization
   Andreas Hansen         : Spin unrestricted coupled pair/coupled cluster methods
   Benjamin Helmich-Paris : CASSCF linear response (MC-RPA)
   Lee Huntington         : MR-EOM, pCC
   Robert Izsak           : Overlap fitted RIJCOSX, COSX-SCS-MP3, EOM
   Christian Kollmar      : KDIIS, OOCD, Brueckner-CCSD(T), CCSD density
   Simone Kossmann        : Meta GGA functionals, TD-DFT gradient, OOMP2, MP2 Hessian
   Martin Krupicka        : AUTO-CI
   Lucas Lang             : DCDCAS
   Dagmar Lenk            : GEPOL surface, SMD
   Dimitrios Liakos       : Extrapolation schemes; Compound Job, initial MDCI parallelization
   Dimitrios Manganas     : Further ROCIS development; embedding schemes
   Dimitrios Pantazis     : SARC Basis sets
   Taras Petrenko         : DFT Hessian,TD-DFT gradient, ASA, ECA, R-Raman, ABS, FL, XAS/XES, NRVS
   Peter Pinski           : DLPNO-MP2, DLPNO-MP2 Gradient
   Christoph Reimann      : Effective Core Potentials
   Marius Retegan         : Local ZFS, SOC
   Christoph Riplinger    : Optimizer, TS searches, QM/MM, DLPNO-CCSD(T), (RO)-DLPNO pert. Triples
   Tobias Risthaus        : Range-separated hybrids, TD-DFT gradient, RPA, STAB
   Michael Roemelt        : Original ROCIS implementation
   Masaaki Saitow         : Open-shell DLPNO-CCSD energy and density
   Barbara Sandhoefer     : DKH picture change effects
   Avijit Sen             : IP-ROCIS
   Kantharuban Sivalingam : CASSCF convergence, NEVPT2, FIC-MRCI
   Bernardo de Souza      : ESD, SOC TD-DFT
   Georgi Stoychev        : AutoAux, RI-MP2 NMR
   Willem Van den Heuvel  : Paramagnetic NMR
   Boris Wezisla          : Elementary symmetry handling
   Frank Wennmohs         : Technical directorship


 We gratefully acknowledge several colleagues who have allowed us to
 interface, adapt or use parts of their codes:
   Stefan Grimme, W. Hujo, H. Kruse,             : VdW corrections, initial TS optimization,
                  C. Bannwarth                     DFT functionals, gCP, sTDA/sTD-DF
   Ed Valeev, F. Pavosevic, A. Kumar             : LibInt (2-el integral package), F12 methods
   Garnet Chan, S. Sharma, J. Yang, R. Olivares  : DMRG
   Ulf Ekstrom                                   : XCFun DFT Library
   Mihaly Kallay                                 : mrcc  (arbitrary order and MRCC methods)
   Andreas Klamt, Michael Diedenhofen            : otool_cosmo (COSMO solvation model)
   Jiri Pittner, Ondrej Demel                    : Mk-CCSD
   Frank Weinhold                                : gennbo (NPA and NBO analysis)
   Christopher J. Cramer and Donald G. Truhlar   : smd solvation model
   Lars Goerigk                                  : TD-DFT with DH, B97 family of functionals
   V. Asgeirsson, H. Jonsson                     : NEB implementation
   FAccTs GmbH                                   : IRC, NEB, NEB-TS, Multilevel, MM, QM/MM, CI optimization
   S Lehtola, MJT Oliveira, MAL Marques          : LibXC Library


 Your calculation uses the libint2 library for the computation of 2-el integrals
 For citations please refer to: http://libint.valeyev.net

 Your ORCA version has been built with support for libXC version: 4.2.3
 For citations please refer to: https://tddft.org/programs/libxc/

 This ORCA versions uses:
   CBLAS   interface :  Fast vector & matrix operations
   LAPACKE interface :  Fast linear algebra routines
   SCALAPACK package :  Parallel linear algebra routines


Your calculation utilizes the atom-pairwise dispersion correction
with the Becke-Johnson damping scheme (D3BJ)
Cite in your paper:
S.Grimme, S.Ehrlich, L.Goerigk, J Comput Chem, (2011), 32, 1456–1465 
S.Grimme, J.Antony, S.Ehrlich and H.Krieg, J.Chem.Phys., 132, (2010), 154104 
   

----- Orbital basis set information -----
Your calculation utilizes the basis: def2-TZVPPD
   F. Weigend and R. Ahlrichs, Phys. Chem. Chem. Phys. 7, 3297 (2005).
   D. Rappoport and F. Furche, J. Chem. Phys. 133 134105 (2010).

----- AuxC basis set information -----
Your calculation utilizes the auxiliary basis: def2-TZVPPD/C
   A. Hellweg, C. Hattig, S. Hofener and W. Klopper, Theor. Chem. Acc. 117, 587 (2007).

----- AuxJK basis set information -----
Your calculation utilizes the auxiliary basis: def2/JK
   H-Ba, Hf-Rn: F. Weigend, J. Comput. Chem. 29, 167 (2008).

================================================================================
                                        WARNINGS
                       Please study these warnings very carefully!
================================================================================


WARNING: your system is open-shell and RHF/RKS was chosen
  ===> : WILL SWITCH to UHF/UKS


WARNING: No MP2 level density has been requested!
         To caclulate MP2 level properties use
         %mp2 Density relaxed end
         or
         %mp2 Density unrelaxed end
         Otherwise for double-hybrid DFT only the energy is correct!

WARNING: There are different parametrizations of Gershom Martin's DSD-DFs
         for use with and without D3(BJ)!
         You are using the D3(BJ) parametrized version,
         consistent with the 2013 article (S. Kozuch and J. M. L. Martin, JCC 2013, 34, 2327)

WARNING: The frozen-core approximation is turned on by default for 
         the MP2 part of double-hybrid DFT.

INFO   : the flag for use of LIBINT has been found!

================================================================================
                                       INPUT FILE
================================================================================
NAME = FeH.in
|  1> #
|  2> # FeH ri-DSD-BLYP/2013-D3BJ/Def2-TZVPPD
|  3> #
|  4> ! rijk ri-dsd-blyp/2013 d3bj def2-tzvppd def2/jk def2-tzvppd/c grid4 nofinalgrid
|  5> 
|  6> *xyz 0 4
|  7> Fe         0.00000        0.00000        0.00000
|  8> H          0.00000        0.00000        1.61000
|  9> *
| 10> 
| 11> %maxcore 5000
| 12> 
| 13> %pal
| 14> nprocs = 28
| 15> end
| 16> 
| 17> 
| 18>                          ****END OF INPUT****
================================================================================

                       ****************************
                       * Single Point Calculation *
                       ****************************

---------------------------------
CARTESIAN COORDINATES (ANGSTROEM)
---------------------------------
  Fe     0.000000    0.000000    0.000000
  H      0.000000    0.000000    1.610000

----------------------------
CARTESIAN COORDINATES (A.U.)
----------------------------
  NO LB      ZA    FRAG     MASS         X           Y           Z
   0 Fe   26.0000    0    55.850    0.000000    0.000000    0.000000
   1 H     1.0000    0     1.008    0.000000    0.000000    3.042459

--------------------------------
INTERNAL COORDINATES (ANGSTROEM)
--------------------------------
 Fe     0   0   0     0.000000000000     0.00000000     0.00000000
 H      1   0   0     1.610000000000     0.00000000     0.00000000

---------------------------
INTERNAL COORDINATES (A.U.)
---------------------------
 Fe     0   0   0     0.000000000000     0.00000000     0.00000000
 H      1   0   0     3.042459075613     0.00000000     0.00000000

---------------------
BASIS SET INFORMATION
---------------------
There are 2 groups of distinct atoms

 Group   1 Type Fe  : 17s13p7d2f1g contracted to 6s6p4d2f1g pattern {842111/631111/4111/11/1}
 Group   2 Type H   : 5s3p1d contracted to 3s3p1d pattern {311/111/1}

Atom   0Fe   basis set group =>   1
Atom   1H    basis set group =>   2
---------------------------------
AUXILIARY/C BASIS SET INFORMATION
---------------------------------
There are 2 groups of distinct atoms

 Group   1 Type Fe  : 10s10p9d7f5g3h1i contracted to 10s10p9d7f5g3h1i pattern {1111111111/1111111111/111111111/1111111/11111/111/1}
 Group   2 Type H   : 5s4p3d1f contracted to 5s4p3d1f pattern {11111/1111/111/1}

Atom   0Fe   basis set group =>   1
Atom   1H    basis set group =>   2
----------------------------------
AUXILIARY/JK BASIS SET INFORMATION
----------------------------------
There are 2 groups of distinct atoms

 Group   1 Type Fe  : 19s14p12d10f7g3h1i contracted to 16s13p11d9f5g3h1i pattern {4111111111111111/2111111111111/21111111111/211111111/31111/111/1}
 Group   2 Type H   : 4s2p2d contracted to 2s2p2d pattern {31/11/11}

Atom   0Fe   basis set group =>   1
Atom   1H    basis set group =>   2


           ************************************************************
           *        Program running with 28 parallel MPI-processes    *
           *              working on a common directory               *
           ************************************************************
------------------------------------------------------------------------------
                           ORCA GTO INTEGRAL CALCULATION
                           -- RI-GTO INTEGRALS CHOSEN --
------------------------------------------------------------------------------

                         BASIS SET STATISTICS AND STARTUP INFO

Gaussian basis set:
 # of primitive gaussian shells          ...   49
 # of primitive gaussian functions       ...  133
 # of contracted shells                  ...   26
 # of contracted basis functions         ...   84
 Highest angular momentum                ...    4
 Maximum contraction depth               ...    8
Auxiliary gaussian basis set:
 # of primitive gaussian shells          ...   74
 # of primitive gaussian functions       ...  320
 # of contracted shells                  ...   64
 # of contracted aux-basis functions     ...  282
 Highest angular momentum                ...    6
 Maximum contraction depth               ...    4
Ratio of auxiliary to basis functions    ...  3.36
Integral package used                  ... LIBINT
 One Electron integrals                  ... done
 Ordering auxiliary basis shells         ... done
 Integral threshhold             Thresh  ...  1.000e-10
 Primitive cut-off               TCut    ...  1.000e-11
 Pre-screening matrix                    ... done
 Shell pair data                         ... 
 Ordering of the shell pairs             ... done (   0.000 sec) 351 of 351 pairs
 Determination of significant pairs      ... done (   0.000 sec)
 Creation of shell pair data             ... done (   0.000 sec)
 Storage of shell pair data              ... done (   0.005 sec)
 Shell pair data done in (   0.005 sec)
 Computing two index integrals           ... done
 Cholesky decomposition of the V-matrix  ... done


Timings:
 Total evaluation time                   ...   0.230 sec (  0.004 min)
 One electron matrix time                ...   0.035 sec (  0.001 min) = 15.3%
 Schwartz matrix evaluation time         ...   0.130 sec (  0.002 min) = 56.4%
 Two index repulsion integral time       ...   0.020 sec (  0.000 min) =  8.6%
 Cholesky decomposition of V             ...   0.008 sec (  0.000 min) =  3.7%
 Three index repulsion integral time     ...   0.000 sec (  0.000 min) =  0.0%



           ************************************************************
           *        Program running with 28 parallel MPI-processes    *
           *              working on a common directory               *
           ************************************************************
-------------------------------------------------------------------------------
                                 ORCA SCF
-------------------------------------------------------------------------------

------------
SCF SETTINGS
------------
Hamiltonian:
 Density Functional     Method          .... DFT(GTOs)
 Exchange Functional    Exchange        .... B88
   X-Alpha parameter    XAlpha          ....  0.666667
   Becke's b parameter  XBeta           ....  0.004200
 Correlation Functional Correlation     .... LYP
 LDA part of GGA corr.  LDAOpt          .... VWN-5
 Gradients option       PostSCFGGA      .... off
 Hybrid DFT is turned on
   Fraction HF Exchange ScalHFX         ....  0.710000
   Scaling of DF-GGA-X  ScalDFX         ....  0.290000
   Scaling of DF-GGA-C  ScalDFC         ....  0.540000
   Scaling of DF-LDA-C  ScalLDAC        ....  0.540000
   Perturbative correction              ....  1.000000
   Density functional embedding theory  .... OFF
 RI-approximation to the Coulomb term is turned on
   Number of auxiliary basis functions  .... 282
   RI-JK (J+K treated both via RI)      .... on


General Settings:
 Integral files         IntName         .... FeH
 Hartree-Fock type      HFTyp           .... UHF
 Total Charge           Charge          ....    0
 Multiplicity           Mult            ....    4
 Number of Electrons    NEL             ....   27
 Basis Dimension        Dim             ....   84
 Nuclear Repulsion      ENuc            ....      8.5457188918 Eh

Convergence Acceleration:
 DIIS                   CNVDIIS         .... on
   Start iteration      DIISMaxIt       ....    12
   Startup error        DIISStart       ....  0.200000
   # of expansion vecs  DIISMaxEq       ....     5
   Bias factor          DIISBfac        ....   1.050
   Max. coefficient     DIISMaxC        ....  10.000
 Newton-Raphson         CNVNR           .... off
 SOSCF                  CNVSOSCF        .... off
 Level Shifting         CNVShift        .... on
   Level shift para.    LevelShift      ....    0.2500
   Turn off err/grad.   ShiftErr        ....    0.0010
 Zerner damping         CNVZerner       .... off
 Static damping         CNVDamp         .... on
   Fraction old density DampFac         ....    0.7000
   Max. Damping (<1)    DampMax         ....    0.9800
   Min. Damping (>=0)   DampMin         ....    0.0000
   Turn off err/grad.   DampErr         ....    0.1000
 Fernandez-Rico         CNVRico         .... off

SCF Procedure:
 Maximum # iterations   MaxIter         ....   125
 SCF integral mode      SCFMode         .... Direct
   Integral package                     .... LIBINT
 Reset frequency        DirectResetFreq ....    20
 Integral Threshold     Thresh          ....  1.000e-10 Eh
 Primitive CutOff       TCut            ....  1.000e-11 Eh

Convergence Tolerance:
 Convergence Check Mode ConvCheckMode   .... Total+1el-Energy
 Convergence forced     ConvForced      .... 0
 Energy Change          TolE            ....  1.000e-06 Eh
 1-El. energy change                    ....  1.000e-03 Eh
 DIIS Error             TolErr          ....  1.000e-06


Diagonalization of the overlap matrix:
Smallest eigenvalue                        ... 3.098e-03
Time for diagonalization                   ...    0.002 sec
Threshold for overlap eigenvalues          ... 1.000e-08
Number of eigenvalues below threshold      ... 0
Time for construction of square roots      ...    0.035 sec
Total time needed                          ...    0.037 sec

-------------------
DFT GRID GENERATION
-------------------

General Integration Accuracy     IntAcc      ...  4.670
Radial Grid Type                 RadialGrid  ... Gauss-Chebyshev
Angular Grid (max. acc.)         AngularGrid ... Lebedev-302
Angular grid pruning method      GridPruning ... 3 (G Style)
Weight generation scheme         WeightScheme... Becke
Basis function cutoff            BFCut       ...    1.0000e-10
Integration weight cutoff        WCut        ...    1.0000e-14
Grids for H and He will be reduced by one unit

# of grid points (after initial pruning)     ...  13034 (   0.0 sec)
# of grid points (after weights+screening)   ...  12994 (   0.0 sec)
nearest neighbour list constructed           ...    0.0 sec
Grid point re-assignment to atoms done       ...    0.0 sec
Grid point division into batches done        ...    0.1 sec
Reduced shell lists constructed in    0.1 sec

Total number of grid points                  ...    12994
Total number of batches                      ...      204
Average number of points per batch           ...       63
Average number of grid points per atom       ...     6497
Average number of shells per batch           ...     5.22 (20.09%)
Average number of basis functions per batch  ...    13.89 (16.53%)
Average number of large shells per batch     ...     3.33 (63.83%)
Average number of large basis fcns per batch ...     9.78 (70.40%)
Average number of aux-shells per batch       ...     5.22 ( 8.16%)
Average number of aux functions per batch    ...    13.89 ( 4.93%)
Maximum spatial batch extension              ...  31.41, 28.57, 17.22 au
Average spatial batch extension              ...   0.94,  0.82,  0.61 au

Time for grid setup =    0.258 sec

------------------------------
INITIAL GUESS: MODEL POTENTIAL
------------------------------
Loading Hartree-Fock densities                     ... done
Calculating cut-offs                               ... done
Setting up the integral package                    ... done
Initializing the effective Hamiltonian             ... done
Starting the Coulomb interaction                   ... done (   0.0 sec)
Reading the grid                                   ... done
Mapping shells                                     ... done
Starting the XC term evaluation                    ... done (   0.0 sec)
  promolecular density results
     # of electrons  =     26.999505627
     EX              =    -54.628735384
     EC              =     -0.167325497
     EX+EC           =    -54.796060881
Transforming the Hamiltonian                       ... done (   0.0 sec)
Diagonalizing the Hamiltonian                      ... done (   0.0 sec)
Back transforming the eigenvectors                 ... done (   0.0 sec)
Now organizing SCF variables                       ... done
                      ------------------
                      INITIAL GUESS DONE (   0.4 sec)
                      ------------------
--------------
SCF ITERATIONS
--------------
ITER       Energy         Delta-E        Max-DP      RMS-DP      [F,P]     Damp
  0  -1263.5132531405   0.000000000000 0.01974732  0.00066884  0.1407262 0.7000
  1  -1263.4167837965   0.096469344035 0.01989140  0.00063856  0.1289446 0.7000
                               ***Turning on DIIS***
  2  -1263.4571478473  -0.040364050818 0.01406118  0.00045574  0.1008259 0.7000
  3  -1263.5361903469  -0.079042499640 0.03400212  0.00116905  0.0664686 0.0000
  4  -1263.5871024614  -0.050912114446 0.01127244  0.00037706  0.0523693 0.0000
  5  -1263.5911577028  -0.004055241442 0.00763719  0.00014913  0.0152223 0.0000
  6  -1263.5917477624  -0.000590059562 0.00402616  0.00009317  0.0044947 0.0000
  7  -1263.5919790459  -0.000231283508 0.00223327  0.00006814  0.0024000 0.0000
  8  -1263.5920878467  -0.000108800794 0.00204225  0.00005588  0.0015173 0.0000
  9  -1263.5921555597  -0.000067712988 0.00295392  0.00008526  0.0009642 0.0000
 10  -1263.5922248338  -0.000069274064 0.00274179  0.00006983  0.0007296 0.0000
 11  -1263.5922496943  -0.000024860514 0.00092857  0.00002120  0.0002414 0.0000
 12  -1263.5922516258  -0.000001931483 0.00021553  0.00000482  0.0001158 0.0000
 13  -1263.5922517177  -0.000000091998 0.00003653  0.00000108  0.0000823 0.0000
                 **** Energy Check signals convergence ****

               *****************************************************
               *                     SUCCESS                       *
               *           SCF CONVERGED AFTER  14 CYCLES          *
               *****************************************************


----------------
TOTAL SCF ENERGY
----------------

Total Energy       :        -1263.59225173 Eh          -34384.09322 eV

Components:
Nuclear Repulsion  :            8.54571889 Eh             232.54083 eV
Electronic Energy  :        -1272.13797063 Eh          -34616.63406 eV
One Electron Energy:        -1766.33108330 Eh          -48064.31232 eV
Two Electron Energy:          494.19311267 Eh           13447.67826 eV

Virial components:
Potential Energy   :        -2526.12092316 Eh          -68739.24495 eV
Kinetic Energy     :         1262.52867142 Eh           34355.15173 eV
Virial Ratio       :            2.00084242


DFT components:
N(Alpha)           :       15.000000169618 electrons
N(Beta)            :       12.000000749571 electrons
N(Total)           :       27.000000919188 electrons
E(X)               :      -15.945006526485 Eh       
E(C)               :       -0.646133589664 Eh       
E(XC)              :      -16.591140116148 Eh       
DFET-embed. en.    :        0.000000000000 Eh       

---------------
SCF CONVERGENCE
---------------

  Last Energy change         ...   -1.6667e-08  Tolerance :   1.0000e-06
  Last MAX-Density change    ...    3.6791e-05  Tolerance :   1.0000e-05
  Last RMS-Density change    ...    9.1317e-07  Tolerance :   1.0000e-06
  Last DIIS Error            ...    1.3809e-05  Tolerance :   1.0000e-06

             **** THE GBW FILE WAS UPDATED (FeH.gbw) ****
             **** DENSITY FILE WAS UPDATED (FeH.scfp) ****
             **** ENERGY FILE WAS UPDATED (FeH.en.tmp) ****
----------------------
UHF SPIN CONTAMINATION
----------------------

Warning: in a DFT calculation there is little theoretical justification to 
         calculate <S**2> as in Hartree-Fock theory. We will do it anyways
         but you should keep in mind that the values have only limited relevance

Expectation value of <S**2>     :     3.819814
Ideal value S*(S+1) for S=1.5   :     3.750000
Deviation                       :     0.069814

             **** THE GBW FILE WAS UPDATED (FeH.gbw) ****
             **** DENSITY FILE WAS UPDATED (FeH.scfp) ****
----------------
ORBITAL ENERGIES
----------------
                 SPIN UP ORBITALS
  NO   OCC          E(Eh)            E(eV) 
   0   1.0000    -259.341192     -7057.0326 
   1   1.0000     -31.125877      -846.9782 
   2   1.0000     -26.753145      -727.9901 
   3   1.0000     -26.753145      -727.9901 
   4   1.0000     -26.721928      -727.1406 
   5   1.0000      -3.862495      -105.1038 
   6   1.0000      -2.555474       -69.5380 
   7   1.0000      -2.555474       -69.5380 
   8   1.0000      -2.489285       -67.7369 
   9   1.0000      -0.419637       -11.4189 
  10   1.0000      -0.419637       -11.4189 
  11   1.0000      -0.383728       -10.4418 
  12   1.0000      -0.354566        -9.6482 
  13   1.0000      -0.354566        -9.6482 
  14   1.0000      -0.271747        -7.3946 
  15   0.0000      -0.014885        -0.4050 
  16   0.0000       0.024116         0.6562 
  17   0.0000       0.024116         0.6562 
  18   0.0000       0.103641         2.8202 
  19   0.0000       0.122112         3.3228 
  20   0.0000       0.160195         4.3591 
  21   0.0000       0.160195         4.3591 
  22   0.0000       0.206459         5.6180 
  23   0.0000       0.238711         6.4956 
  24   0.0000       0.238711         6.4956 
  25   0.0000       0.242458         6.5976 
  26   0.0000       0.242458         6.5976 
  27   0.0000       0.347284         9.4501 
  28   0.0000       0.347284         9.4501 
  29   0.0000       0.348033         9.4705 
  30   0.0000       0.437022        11.8920 
  31   0.0000       0.587527        15.9874 
  32   0.0000       0.650876        17.7112 
  33   0.0000       0.650876        17.7112 
  34   0.0000       0.717716        19.5300 
  35   0.0000       0.954769        25.9806 
  36   0.0000       0.954769        25.9806 
  37   0.0000       1.022725        27.8298 
  38   0.0000       1.022727        27.8298 
  39   0.0000       1.164647        31.6917 
  40   0.0000       1.225478        33.3469 
  41   0.0000       1.225478        33.3469 
  42   0.0000       1.371923        37.3319 
  43   0.0000       2.516939        68.4894 
  44   0.0000       2.524565        68.6969 
  45   0.0000       2.524565        68.6969 
  46   0.0000       2.539982        69.1164 
  47   0.0000       2.539982        69.1164 
  48   0.0000       2.552841        69.4663 
  49   0.0000       2.552841        69.4663 
  50   0.0000       2.657612        72.3173 
  51   0.0000       2.657612        72.3173 
  52   0.0000       2.768075        75.3231 
  53   0.0000       2.990597        81.3783 
  54   0.0000       3.138277        85.3968 
  55   0.0000       3.484419        94.8159 
  56   0.0000       3.484443        94.8165 
  57   0.0000       3.680209       100.1436 
  58   0.0000       3.784063       102.9696 
  59   0.0000       3.784068       102.9697 
  60   0.0000       3.798157       103.3531 
  61   0.0000       3.798157       103.3531 
  62   0.0000       3.886817       105.7657 
  63   0.0000       3.886817       105.7657 
  64   0.0000       4.183622       113.8421 
  65   0.0000       4.183622       113.8421 
  66   0.0000       4.290616       116.7536 
  67   0.0000       5.050811       137.4396 
  68   0.0000       8.875952       241.5269 
  69   0.0000       8.875961       241.5272 
  70   0.0000       8.930488       243.0109 
  71   0.0000       8.930488       243.0109 
  72   0.0000       8.942814       243.3463 
  73   0.0000       8.942816       243.3464 
  74   0.0000       8.965503       243.9637 
  75   0.0000       8.965503       243.9637 
  76   0.0000       9.008348       245.1296 
  77   0.0000       9.618542       261.7338 
  78   0.0000       9.618542       261.7338 
  79   0.0000       9.688839       263.6467 
  80   0.0000       9.688846       263.6469 
  81   0.0000       9.780811       266.1494 
  82   0.0000       9.780811       266.1494 
  83   0.0000      10.066291       273.9177 

                 SPIN DOWN ORBITALS
  NO   OCC          E(Eh)            E(eV) 
   0   1.0000    -259.339289     -7056.9808 
   1   1.0000     -31.053026      -844.9958 
   2   1.0000     -26.675131      -725.8672 
   3   1.0000     -26.675131      -725.8672 
   4   1.0000     -26.673645      -725.8268 
   5   1.0000      -3.657266       -99.5193 
   6   1.0000      -2.316642       -63.0390 
   7   1.0000      -2.282842       -62.1193 
   8   1.0000      -2.282842       -62.1193 
   9   1.0000      -0.335423        -9.1273 
  10   1.0000      -0.264275        -7.1913 
  11   1.0000      -0.264275        -7.1913 
  12   0.0000      -0.018754        -0.5103 
  13   0.0000       0.033749         0.9184 
  14   0.0000       0.033749         0.9184 
  15   0.0000       0.079259         2.1567 
  16   0.0000       0.131422         3.5762 
  17   0.0000       0.171912         4.6780 
  18   0.0000       0.171918         4.6781 
  19   0.0000       0.174633         4.7520 
  20   0.0000       0.177919         4.8414 
  21   0.0000       0.177919         4.8414 
  22   0.0000       0.242941         6.6108 
  23   0.0000       0.242941         6.6108 
  24   0.0000       0.285968         7.7816 
  25   0.0000       0.334459         9.1011 
  26   0.0000       0.334459         9.1011 
  27   0.0000       0.348455         9.4819 
  28   0.0000       0.348455         9.4819 
  29   0.0000       0.388981        10.5847 
  30   0.0000       0.460164        12.5217 
  31   0.0000       0.589157        16.0318 
  32   0.0000       0.681983        18.5577 
  33   0.0000       0.681983        18.5577 
  34   0.0000       0.735313        20.0089 
  35   0.0000       0.959506        26.1095 
  36   0.0000       0.959506        26.1095 
  37   0.0000       1.133583        30.8464 
  38   0.0000       1.133624        30.8475 
  39   0.0000       1.235493        33.6195 
  40   0.0000       1.235493        33.6195 
  41   0.0000       1.241288        33.7772 
  42   0.0000       1.379050        37.5259 
  43   0.0000       2.555354        69.5347 
  44   0.0000       2.593261        70.5662 
  45   0.0000       2.593261        70.5662 
  46   0.0000       2.604743        70.8787 
  47   0.0000       2.604744        70.8787 
  48   0.0000       2.659600        72.3714 
  49   0.0000       2.659600        72.3714 
  50   0.0000       2.736699        74.4694 
  51   0.0000       2.736699        74.4694 
  52   0.0000       2.780796        75.6693 
  53   0.0000       3.026854        82.3649 
  54   0.0000       3.205167        87.2170 
  55   0.0000       3.472256        94.4849 
  56   0.0000       3.472281        94.4856 
  57   0.0000       3.792495       103.1990 
  58   0.0000       3.806161       103.5709 
  59   0.0000       3.806161       103.5709 
  60   0.0000       3.924696       106.7964 
  61   0.0000       3.924696       106.7964 
  62   0.0000       3.926946       106.8576 
  63   0.0000       3.926955       106.8579 
  64   0.0000       4.164092       113.3107 
  65   0.0000       4.164092       113.3107 
  66   0.0000       4.289824       116.7320 
  67   0.0000       5.076490       138.1383 
  68   0.0000       9.001357       244.9394 
  69   0.0000       9.001357       244.9394 
  70   0.0000       9.009948       245.1732 
  71   0.0000       9.009956       245.1734 
  72   0.0000       9.011851       245.2249 
  73   0.0000       9.011853       245.2250 
  74   0.0000       9.048912       246.2334 
  75   0.0000       9.048912       246.2334 
  76   0.0000       9.103194       247.7105 
  77   0.0000       9.789786       266.3936 
  78   0.0000       9.789793       266.3938 
  79   0.0000       9.833604       267.5860 
  80   0.0000       9.833604       267.5860 
  81   0.0000       9.912594       269.7354 
  82   0.0000       9.912594       269.7354 
  83   0.0000      10.217514       278.0327 

                    ********************************
                    * MULLIKEN POPULATION ANALYSIS *
                    ********************************

--------------------------------------------
MULLIKEN ATOMIC CHARGES AND SPIN POPULATIONS
--------------------------------------------
   0 Fe:    0.191149    3.227393
   1 H :   -0.191149   -0.227393
Sum of atomic charges         :   -0.0000000
Sum of atomic spin populations:    3.0000000

-----------------------------------------------------
MULLIKEN REDUCED ORBITAL CHARGES AND SPIN POPULATIONS
-----------------------------------------------------
CHARGE
  0 Fes       :     6.726498  s :     6.726498
      pz      :     4.105005  p :    12.109336
      px      :     4.002166
      py      :     4.002166
      dz2     :     0.978448  d :     6.971749
      dxz     :     1.996696
      dyz     :     1.996696
      dx2y2   :     0.999955
      dxy     :     0.999955
      f0      :     0.000725  f :     0.001196
      f+1     :     0.000204
      f-1     :     0.000204
      f+2     :     0.000032
      f-2     :     0.000032
      f+3     :     0.000000
      f-3     :     0.000000
      g0      :     0.000018  g :     0.000072
      g+1     :     0.000010
      g-1     :     0.000010
      g+2     :     0.000017
      g-2     :     0.000017
      g+3     :     0.000000
      g-3     :     0.000000
      g+4     :     0.000000
      g-4     :     0.000000
  1 H s       :     1.194951  s :     1.194951
      pz      :    -0.006013  p :    -0.004514
      px      :     0.000749
      py      :     0.000749
      dz2     :     0.000368  d :     0.000712
      dxz     :     0.000176
      dyz     :     0.000176
      dx2y2   :    -0.000004
      dxy     :    -0.000004

SPIN
  0 Fes       :     0.355541  s :     0.355541
      pz      :    -0.014964  p :    -0.016657
      px      :    -0.000846
      py      :    -0.000846
      dz2     :     0.885640  d :     2.888760
      dxz     :     0.001605
      dyz     :     0.001605
      dx2y2   :     0.999955
      dxy     :     0.999955
      f0      :    -0.000269  f :    -0.000295
      f+1     :    -0.000044
      f-1     :    -0.000044
      f+2     :     0.000032
      f-2     :     0.000032
      f+3     :    -0.000000
      f-3     :    -0.000000
      g0      :    -0.000003  g :     0.000044
      g+1     :     0.000006
      g-1     :     0.000006
      g+2     :     0.000017
      g-2     :     0.000017
      g+3     :    -0.000000
      g-3     :    -0.000000
      g+4     :     0.000000
      g-4     :    -0.000000
  1 H s       :    -0.225621  s :    -0.225621
      pz      :    -0.000598  p :    -0.001981
      px      :    -0.000691
      py      :    -0.000691
      dz2     :     0.000274  d :     0.000209
      dxz     :    -0.000029
      dyz     :    -0.000029
      dx2y2   :    -0.000004
      dxy     :    -0.000004


                     *******************************
                     * LOEWDIN POPULATION ANALYSIS *
                     *******************************

-------------------------------------------
LOEWDIN ATOMIC CHARGES AND SPIN POPULATIONS
-------------------------------------------
   0 Fe:    0.239565    3.082585
   1 H :   -0.239565   -0.082585

----------------------------------------------------
LOEWDIN REDUCED ORBITAL CHARGES AND SPIN POPULATIONS
----------------------------------------------------
CHARGE
  0 Fes       :     6.634100  s :     6.634100
      pz      :     4.160157  p :    12.165520
      px      :     4.002681
      py      :     4.002681
      dz2     :     1.010883  d :     6.958369
      dxz     :     1.973864
      dyz     :     1.973864
      dx2y2   :     0.999879
      dxy     :     0.999879
      f0      :     0.001655  f :     0.002355
      f+1     :     0.000317
      f-1     :     0.000317
      f+2     :     0.000033
      f-2     :     0.000033
      f+3     :     0.000000
      f-3     :     0.000000
      g0      :     0.000028  g :     0.000092
      g+1     :     0.000015
      g-1     :     0.000015
      g+2     :     0.000017
      g-2     :     0.000017
      g+3     :     0.000000
      g-3     :     0.000000
      g+4     :     0.000000
      g-4     :     0.000000
  1 H s       :     1.115594  s :     1.115594
      pz      :     0.073199  p :     0.112981
      px      :     0.019891
      py      :     0.019891
      dz2     :     0.004385  d :     0.010990
      dxz     :     0.003232
      dyz     :     0.003232
      dx2y2   :     0.000071
      dxy     :     0.000071

SPIN
  0 Fes       :     0.270613  s :     0.270613
      pz      :    -0.053004  p :    -0.056159
      px      :    -0.001577
      py      :    -0.001577
      dz2     :     0.858057  d :     2.868784
      dxz     :     0.005485
      dyz     :     0.005485
      dx2y2   :     0.999879
      dxy     :     0.999879
      f0      :    -0.000646  f :    -0.000697
      f+1     :    -0.000058
      f-1     :    -0.000058
      f+2     :     0.000033
      f-2     :     0.000033
      f+3     :    -0.000000
      f-3     :    -0.000000
      g0      :    -0.000005  g :     0.000044
      g+1     :     0.000007
      g-1     :     0.000007
      g+2     :     0.000017
      g-2     :     0.000017
      g+3     :    -0.000000
      g-3     :    -0.000000
      g+4     :     0.000000
      g-4     :    -0.000000
  1 H s       :    -0.101770  s :    -0.101770
      pz      :     0.024936  p :     0.017628
      px      :    -0.003654
      py      :    -0.003654
      dz2     :     0.001819  d :     0.001557
      dxz     :    -0.000202
      dyz     :    -0.000202
      dx2y2   :     0.000071
      dxy     :     0.000071


                      *****************************
                      * MAYER POPULATION ANALYSIS *
                      *****************************

  NA   - Mulliken gross atomic population
  ZA   - Total nuclear charge
  QA   - Mulliken gross atomic charge
  VA   - Mayer's total valence
  BVA  - Mayer's bonded valence
  FA   - Mayer's free valence

  ATOM       NA         ZA         QA         VA         BVA        FA
  0 Fe    25.8089    26.0000     0.1911     3.9772     0.8917     3.0855
  1 H      1.1911     1.0000    -0.1911     0.9438     0.8917     0.0521

  Mayer bond orders larger than 0.100000
B(  0-Fe,  1-H ) :   0.8917 

-------
TIMINGS
-------

Total SCF time: 0 days 0 hours 0 min 20 sec 

Total time                  ....      20.378 sec
Sum of individual times     ....      19.731 sec  ( 96.8%)

Fock matrix formation       ....      18.723 sec  ( 91.9%)
  XC integration            ....      14.808 sec  ( 79.1% of F)
    Basis function eval.    ....       0.017 sec  (  0.1% of XC)
    Density eval.           ....       0.034 sec  (  0.2% of XC)
    XC-Functional eval.     ....       0.021 sec  (  0.1% of XC)
    XC-Potential eval.      ....       0.033 sec  (  0.2% of XC)
Diagonalization             ....       0.390 sec  (  1.9%)
Density matrix formation    ....       0.006 sec  (  0.0%)
Population analysis         ....       0.072 sec  (  0.4%)
Initial guess               ....       0.153 sec  (  0.7%)
Orbital Transformation      ....       0.000 sec  (  0.0%)
Orbital Orthonormalization  ....       0.000 sec  (  0.0%)
DIIS solution               ....       0.129 sec  (  0.6%)
Grid generation             ....       0.258 sec  (  1.3%)


           ************************************************************
           *        Program running with 28 parallel MPI-processes    *
           *              working on a common directory               *
           ************************************************************

------------------------------------------------------------------------------
                                ORCA  MP2 
------------------------------------------------------------------------------

Freezing NCore=10 chemical core electrons

-------------
RI-MP2 ENERGY
-------------
Dimension of the basis                    ...   84
Memory devoted to MP2                     ... 5000 MB   
Data format for buffers                   ... DOUBLE
Compression type for matrix containers    ... UNCOMPRESSED
Scaling for aa/bb pairs                   ...   4.000e-01
Scaling for ab pairs                      ...   4.700e-01
Overall scaling of the MP2 energy         ...   1.000e+00
Calculating two index integrals           ... done (    0.005 sec)
Cholesky decomposition of V**-1           ... done (    0.017 sec)

-----------------
RI-TRANSFORMATION (AUX index driven)
-----------------

Dimension of the orbital-basis         ... 84
Dimension of the aux-basis             ... 264
Transformation of internal/external MOs...    5-  14 to   15-  83
Number Format for Storage              ... Double (8 Byte)
Integral mode                          ... Direct

First Phase: integral generation and transformation of MO indices
  Aux angular momentum 0               ... done (    0.000 sec)
  Aux angular momentum 1               ... done (    0.003 sec)
  Aux angular momentum 2               ... done (    0.001 sec)
  Aux angular momentum 3               ... done (    0.001 sec)
  Aux angular momentum 4               ... done (    0.002 sec)
  Aux angular momentum 5               ... done (    0.003 sec)
  Aux angular momentum 6               ... done (    0.004 sec)
Closing buffer VIA ( 0.00 GB; CompressionRatio= 1.00)
  Phase 1 completed in     0.114 sec
Second Phase: sorting and transformation of aux index

IA-Transformation
Memory available                       ... 4999 MB 
Max. # MO pairs treated in a batch     ... 1    
# of internal orbitals                 ... 10
# batches for internal orbitals        ... 1
Closing buffer IAV ( 0.00 GB; CompressionRatio= 1.00)
(ia|v) transformation done in     0.020 sec

  Phase 2 completed in     0.118 sec
RI-Integral transformation completed in     0.249 sec

-----------------
RI-TRANSFORMATION (AUX index driven)
-----------------

Dimension of the orbital-basis         ... 84
Dimension of the aux-basis             ... 264
Transformation of internal/external MOs...    5-  11 to   12-  83
Number Format for Storage              ... Double (8 Byte)
Integral mode                          ... Direct

First Phase: integral generation and transformation of MO indices
  Aux angular momentum 0               ... done (    0.000 sec)
  Aux angular momentum 1               ... done (    0.002 sec)
  Aux angular momentum 2               ... done (    0.001 sec)
  Aux angular momentum 3               ... done (    0.001 sec)
  Aux angular momentum 4               ... done (    0.002 sec)
  Aux angular momentum 5               ... done (    0.003 sec)
  Aux angular momentum 6               ... done (    0.004 sec)
Closing buffer VIA ( 0.00 GB; CompressionRatio= 1.00)
  Phase 1 completed in     0.112 sec
Second Phase: sorting and transformation of aux index

IA-Transformation
Memory available                       ... 4999 MB 
Max. # MO pairs treated in a batch     ... 1    
# of internal orbitals                 ... 7
# batches for internal orbitals        ... 1
Closing buffer IAV ( 0.00 GB; CompressionRatio= 1.00)
(ia|v) transformation done in     0.023 sec

  Phase 2 completed in     0.186 sec
RI-Integral transformation completed in     0.327 sec
Opening buffers                              ... done

Starting loop over batches of integrals:

Operator 0  - window                       ... (  5- 14)x( 15- 83)
Operator 0  - Memory available             ...  5000 MB
Operator 0  - Memory needed per MO         ...   0.1 MB
Operator 0  - Number of orbitals per batch ... 1
Operator 0  - Number of batches            ... 1

OPERATOR  0   PASS   0:  MOs     5 ...    5 +    6 ...    6 +    7 ...    7 +    8 ...    8
                            +    9 ...    9 +   10 ...   10 +   11 ...   11 +   12 ...   12
                            +   13 ...   13 +   14 ...   14
  Reading integrals       ... ok

Operator 1  - window                       ... (  5- 11)x( 12- 83)
Operator 1  - Memory available             ...  5000 MB
Operator 1  - Memory needed per MO         ...   0.1 MB
Operator 1  - Number of orbitals per batch ... 1
Operator 1  - Number of batches            ... 1

OPERATOR  1   PASS   0:  MOs     5 ...    5 +    6 ...    6 +    7 ...    7 +    8 ...    8
                            +    9 ...    9 +   10 ...   10 +   11 ...   11
  Reading integrals       ... ok
Time spent in pair loops =     0.019 sec
Deleting buffer (Ka|jb)[aa] ...done
Deleting buffer (Ka|jb)[ab] ...done
Deleting buffer (Ka|jb)[ba] ...done
Deleting buffer (Ka|jb)[bb] ...done

Spin-scaled correlation energy components}
 E2 and T2 for alpha/alpha pairs :     -0.064901199 Eh      0.000000000
 E2 and T2 for beta/beta   pairs :     -0.026620370 Eh      0.000000000
 E2 and T2 for alpha/beta  pairs :     -0.213190573 Eh      0.000000000


-----------------------------------------------
 RI-MP2 CORRELATION ENERGY:     -0.304712142 Eh
-----------------------------------------------


-------
TIMINGS
-------

Total time                :    0.664 sec
Integral trafo            :    0.617 sec ( 93.0%)
I/O of integrals          :    0.000 sec (  0.0%)
K(i,j) Operators          :    0.002 sec (  0.2%)
T(i,j) pair energies      :    0.000 sec (  0.0%)
V-calculation             :    0.005 sec (  0.7%)
V**(-1/2)                 :    0.017 sec (  2.5%)
Gamma(ia|P)               :    0.000 sec (  0.0%)
Gamma-Trafo               :    0.000 sec (  0.0%)
D(virtual)                :    0.000 sec (  0.0%)
D(internal)               :    0.000 sec (  0.0%)
W(virtual)                :    0.000 sec (  0.0%)
W(internal)               :    0.000 sec (  0.0%)
L(virtual)                :    0.000 sec (  0.0%)
L(internal)               :    0.000 sec (  0.0%)
G(D)                      :    0.000 sec (  0.0%)
G(Z)                      :    0.000 sec (  0.0%)
Z-Vector Solution         :    0.000 sec (  0.0%)
Z-Vector Solution         :    0.000 sec (  0.0%)
3-Index Derivative 
+ Separable RIJ part      :    0.000 sec (  0.0%)
2-Index Derivative 
+ Separable RIJ part      :    0.000 sec (  0.0%)
Separable Gradient (X)    :    0.000 sec (  0.0%)


---------------------------------------
MP2 TOTAL ENERGY:    -1263.896963876 Eh
---------------------------------------


-------------------------------------------------------------------------------
                          DFT DISPERSION CORRECTION                            
                                                                               
                              DFTD3 V3.1  Rev 1                                
                          USING Becke-Johnson damping                          
-------------------------------------------------------------------------------
The DSD-BLYP/2013 functional is recognized
Active option DFTDOPT                   ...         4   

molecular C6(AA) [au] = 335.178079 


            DFT-D V3
 parameters
 s6 scaling factor         :     0.5700 
 a1 scaling factor         :     0.0000 
 s8 scaling factor         :     0.0000 
 a2 scaling factor         :     5.4000 
 ad hoc parameters k1-k3   :    16.0000     1.3333    -4.0000 

 Edisp/kcal,au: -0.392826282373  -0.000626008462 
 E6   /kcal   :  -0.392826282 
 E8   /kcal   :  -0.000000000 
 % E8         :   0.000000000 

-------------------------   ----------------
Dispersion correction           -0.000626008
-------------------------   ----------------


-------------------------   --------------------
FINAL SINGLE POINT ENERGY     -1263.897589884510
-------------------------   --------------------


                            ***************************************
                            *     ORCA property calculations      *
                            ***************************************


  WARNING: The energy has been calculated at the MP2 level but the densities
           used in the property calculations are still SCF densities
           MP2 response densities have not been calculated 
           use %mp2 Density relaxed end
           or  %mp2 Density unrelaxed end

                                    ---------------------
                                    Active property flags
                                    ---------------------
   (+) Dipole Moment


------------------------------------------------------------------------------
                       ORCA ELECTRIC PROPERTIES CALCULATION
------------------------------------------------------------------------------

Dipole Moment Calculation                       ... on
Quadrupole Moment Calculation                   ... off
Polarizability Calculation                      ... off
GBWName                                         ... FeH.gbw
Electron density file                           ... FeH.scfp
The origin for moment calculation is the CENTER OF MASS  = ( 0.000000,  0.000000  0.053938)

-------------
DIPOLE MOMENT
-------------
                                X             Y             Z
Electronic contribution:      0.00000       0.00000      -3.08295
Nuclear contribution   :      0.00000       0.00000       1.58614
                        -----------------------------------------
Total Dipole Moment    :      0.00000       0.00000      -1.49682
                        -----------------------------------------
Magnitude (a.u.)       :      1.49682
Magnitude (Debye)      :      3.80460



--------------------
Rotational spectrum 
--------------------
 
Rotational constants in cm-1:     0.000000     6.568301     6.568301 
Rotational constants in MHz :     0.000000 196912.697447 196912.697447 

 Dipole components along the rotational axes: 
x,y,z [a.u.] :    -1.496816     0.000000     0.000000 
x,y,z [Debye]:    -3.804603     0.000000     0.000000 

 

Timings for individual modules:

Sum of individual times         ...       23.332 sec (=   0.389 min)
GTO integral calculation        ...        1.034 sec (=   0.017 min)   4.4 %
SCF iterations                  ...       20.962 sec (=   0.349 min)  89.8 %
MP2 module                      ...        1.336 sec (=   0.022 min)   5.7 %
                             ****ORCA TERMINATED NORMALLY****
TOTAL RUN TIME: 0 days 0 hours 0 minutes 24 seconds 132 msec
