
                                 *****************
                                 * O   R   C   A *
                                 *****************

           --- An Ab Initio, DFT and Semiempirical electronic structure package ---

                  #######################################################
                  #                        -***-                        #
                  #          Department of theory and spectroscopy      #
                  #               Directorship: Frank Neese             #
                  #        Max Planck Institute fuer Kohlenforschung    #
                  #                Kaiser Wilhelm Platz 1               #
                  #                 D-45470 Muelheim/Ruhr               #
                  #                      Germany                        #
                  #                                                     #
                  #                  All rights reserved                #
                  #                        -***-                        #
                  #######################################################


                         Program Version 4.2.0 -  RELEASE  -


 With contributions from (in alphabetic order):
   Daniel Aravena         : Magnetic Suceptibility
   Michael Atanasov       : Ab Initio Ligand Field Theory (pilot matlab implementation)
   Alexander A. Auer      : GIAO ZORA, VPT2
   Ute Becker             : Parallelization
   Giovanni Bistoni       : ED, misc. LED, open-shell LED, HFLED
   Martin Brehm           : Molecular dynamics
   Dmytro Bykov           : SCF Hessian
   Vijay G. Chilkuri      : MRCI spin determinant printing, contributions to CSF-ICE
   Dipayan Datta          : RHF DLPNO-CCSD density
   Achintya Kumar Dutta   : EOM-CC, STEOM-CC
   Dmitry Ganyushin       : Spin-Orbit,Spin-Spin,Magnetic field MRCI
   Miquel Garcia          : C-PCM Hessian, Gaussian charge scheme
   Yang Guo               : DLPNO-NEVPT2, CIM, IAO-localization
   Andreas Hansen         : Spin unrestricted coupled pair/coupled cluster methods
   Benjamin Helmich-Paris : CASSCF linear response (MC-RPA)
   Lee Huntington         : MR-EOM, pCC
   Robert Izsak           : Overlap fitted RIJCOSX, COSX-SCS-MP3, EOM
   Christian Kollmar      : KDIIS, OOCD, Brueckner-CCSD(T), CCSD density
   Simone Kossmann        : Meta GGA functionals, TD-DFT gradient, OOMP2, MP2 Hessian
   Martin Krupicka        : AUTO-CI
   Lucas Lang             : DCDCAS
   Dagmar Lenk            : GEPOL surface, SMD
   Dimitrios Liakos       : Extrapolation schemes; Compound Job, initial MDCI parallelization
   Dimitrios Manganas     : Further ROCIS development; embedding schemes
   Dimitrios Pantazis     : SARC Basis sets
   Taras Petrenko         : DFT Hessian,TD-DFT gradient, ASA, ECA, R-Raman, ABS, FL, XAS/XES, NRVS
   Peter Pinski           : DLPNO-MP2, DLPNO-MP2 Gradient
   Christoph Reimann      : Effective Core Potentials
   Marius Retegan         : Local ZFS, SOC
   Christoph Riplinger    : Optimizer, TS searches, QM/MM, DLPNO-CCSD(T), (RO)-DLPNO pert. Triples
   Tobias Risthaus        : Range-separated hybrids, TD-DFT gradient, RPA, STAB
   Michael Roemelt        : Original ROCIS implementation
   Masaaki Saitow         : Open-shell DLPNO-CCSD energy and density
   Barbara Sandhoefer     : DKH picture change effects
   Avijit Sen             : IP-ROCIS
   Kantharuban Sivalingam : CASSCF convergence, NEVPT2, FIC-MRCI
   Bernardo de Souza      : ESD, SOC TD-DFT
   Georgi Stoychev        : AutoAux, RI-MP2 NMR
   Willem Van den Heuvel  : Paramagnetic NMR
   Boris Wezisla          : Elementary symmetry handling
   Frank Wennmohs         : Technical directorship


 We gratefully acknowledge several colleagues who have allowed us to
 interface, adapt or use parts of their codes:
   Stefan Grimme, W. Hujo, H. Kruse,             : VdW corrections, initial TS optimization,
                  C. Bannwarth                     DFT functionals, gCP, sTDA/sTD-DF
   Ed Valeev, F. Pavosevic, A. Kumar             : LibInt (2-el integral package), F12 methods
   Garnet Chan, S. Sharma, J. Yang, R. Olivares  : DMRG
   Ulf Ekstrom                                   : XCFun DFT Library
   Mihaly Kallay                                 : mrcc  (arbitrary order and MRCC methods)
   Andreas Klamt, Michael Diedenhofen            : otool_cosmo (COSMO solvation model)
   Jiri Pittner, Ondrej Demel                    : Mk-CCSD
   Frank Weinhold                                : gennbo (NPA and NBO analysis)
   Christopher J. Cramer and Donald G. Truhlar   : smd solvation model
   Lars Goerigk                                  : TD-DFT with DH, B97 family of functionals
   V. Asgeirsson, H. Jonsson                     : NEB implementation
   FAccTs GmbH                                   : IRC, NEB, NEB-TS, Multilevel, MM, QM/MM, CI optimization
   S Lehtola, MJT Oliveira, MAL Marques          : LibXC Library


 Your calculation uses the libint2 library for the computation of 2-el integrals
 For citations please refer to: http://libint.valeyev.net

 Your ORCA version has been built with support for libXC version: 4.2.3
 For citations please refer to: https://tddft.org/programs/libxc/

 This ORCA versions uses:
   CBLAS   interface :  Fast vector & matrix operations
   LAPACKE interface :  Fast linear algebra routines
   SCALAPACK package :  Parallel linear algebra routines


Your calculation utilizes the atom-pairwise dispersion correction
with the Becke-Johnson damping scheme (D3BJ)
Cite in your paper:
S.Grimme, S.Ehrlich, L.Goerigk, J Comput Chem, (2011), 32, 1456–1465 
S.Grimme, J.Antony, S.Ehrlich and H.Krieg, J.Chem.Phys., 132, (2010), 154104 
   

----- Orbital basis set information -----
Your calculation utilizes the basis: def2-TZVPPD
   F. Weigend and R. Ahlrichs, Phys. Chem. Chem. Phys. 7, 3297 (2005).
   D. Rappoport and F. Furche, J. Chem. Phys. 133 134105 (2010).

----- AuxC basis set information -----
Your calculation utilizes the auxiliary basis: def2-TZVPPD/C
   A. Hellweg, C. Hattig, S. Hofener and W. Klopper, Theor. Chem. Acc. 117, 587 (2007).

----- AuxJK basis set information -----
Your calculation utilizes the auxiliary basis: def2/JK
   H-Ba, Hf-Rn: F. Weigend, J. Comput. Chem. 29, 167 (2008).

================================================================================
                                        WARNINGS
                       Please study these warnings very carefully!
================================================================================


WARNING: your system is open-shell and RHF/RKS was chosen
  ===> : WILL SWITCH to UHF/UKS


WARNING: No MP2 level density has been requested!
         To caclulate MP2 level properties use
         %mp2 Density relaxed end
         or
         %mp2 Density unrelaxed end
         Otherwise for double-hybrid DFT only the energy is correct!

WARNING: There are different parametrizations of Gershom Martin's DSD-DFs
         for use with and without D3(BJ)!
         You are using the D3(BJ) parametrized version,
         consistent with the 2013 article (S. Kozuch and J. M. L. Martin, JCC 2013, 34, 2327)

WARNING: The frozen-core approximation is turned on by default for 
         the MP2 part of double-hybrid DFT.

INFO   : the flag for use of LIBINT has been found!

================================================================================
                                       INPUT FILE
================================================================================
NAME = LiO.in
|  1> #
|  2> # LiO ri-DSD-BLYP/2013-D3BJ/Def2-TZVPPD
|  3> #
|  4> ! rijk ri-dsd-blyp/2013 d3bj def2-tzvppd def2/jk def2-tzvppd/c grid4 nofinalgrid
|  5> 
|  6> *xyz 0 2
|  7> Li         0.00000        0.00000        0.00000
|  8> O          0.00000        0.00000        1.68900
|  9> *
| 10> 
| 11> %maxcore 5000
| 12> 
| 13> %pal
| 14> nprocs = 28
| 15> end
| 16> 
| 17> 
| 18>                          ****END OF INPUT****
================================================================================

                       ****************************
                       * Single Point Calculation *
                       ****************************

---------------------------------
CARTESIAN COORDINATES (ANGSTROEM)
---------------------------------
  Li     0.000000    0.000000    0.000000
  O      0.000000    0.000000    1.689000

----------------------------
CARTESIAN COORDINATES (A.U.)
----------------------------
  NO LB      ZA    FRAG     MASS         X           Y           Z
   0 Li    3.0000    0     6.941    0.000000    0.000000    0.000000
   1 O     8.0000    0    15.999    0.000000    0.000000    3.191747

--------------------------------
INTERNAL COORDINATES (ANGSTROEM)
--------------------------------
 Li     0   0   0     0.000000000000     0.00000000     0.00000000
 O      1   0   0     1.689000000000     0.00000000     0.00000000

---------------------------
INTERNAL COORDINATES (A.U.)
---------------------------
 Li     0   0   0     0.000000000000     0.00000000     0.00000000
 O      1   0   0     3.191747440193     0.00000000     0.00000000

---------------------
BASIS SET INFORMATION
---------------------
There are 2 groups of distinct atoms

 Group   1 Type Li  : 11s4p1d contracted to 5s4p1d pattern {62111/1111/1}
 Group   2 Type O   : 12s7p3d1f contracted to 6s4p3d1f pattern {621111/4111/111/1}

Atom   0Li   basis set group =>   1
Atom   1O    basis set group =>   2
---------------------------------
AUXILIARY/C BASIS SET INFORMATION
---------------------------------
There are 2 groups of distinct atoms

 Group   1 Type Li  : 10s7p4d1f contracted to 10s7p4d1f pattern {1111111111/1111111/1111/1}
 Group   2 Type O   : 9s7p6d4f1g contracted to 9s7p5d4f1g pattern {111111111/1111111/21111/1111/1}

Atom   0Li   basis set group =>   1
Atom   1O    basis set group =>   2
----------------------------------
AUXILIARY/JK BASIS SET INFORMATION
----------------------------------
There are 2 groups of distinct atoms

 Group   1 Type Li  : 10s7p4d2f contracted to 7s5p3d2f pattern {4111111/31111/211/11}
 Group   2 Type O   : 14s10p6d2f1g contracted to 10s8p4d2f1g pattern {5111111111/31111111/3111/11/1}

Atom   0Li   basis set group =>   1
Atom   1O    basis set group =>   2


           ************************************************************
           *        Program running with 28 parallel MPI-processes    *
           *              working on a common directory               *
           ************************************************************
------------------------------------------------------------------------------
                           ORCA GTO INTEGRAL CALCULATION
                           -- RI-GTO INTEGRALS CHOSEN --
------------------------------------------------------------------------------

                         BASIS SET STATISTICS AND STARTUP INFO

Gaussian basis set:
 # of primitive gaussian shells          ...   39
 # of primitive gaussian functions       ...   83
 # of contracted shells                  ...   24
 # of contracted basis functions         ...   62
 Highest angular momentum                ...    3
 Maximum contraction depth               ...    6
Auxiliary gaussian basis set:
 # of primitive gaussian shells          ...   56
 # of primitive gaussian functions       ...  162
 # of contracted shells                  ...   42
 # of contracted aux-basis functions     ...  128
 Highest angular momentum                ...    4
 Maximum contraction depth               ...    5
Ratio of auxiliary to basis functions    ...  2.06
Integral package used                  ... LIBINT
 One Electron integrals                  ... done
 Ordering auxiliary basis shells         ... done
 Integral threshhold             Thresh  ...  1.000e-10
 Primitive cut-off               TCut    ...  1.000e-11
 Pre-screening matrix                    ... done
 Shell pair data                         ... 
 Ordering of the shell pairs             ... done (   0.000 sec) 297 of 300 pairs
 Determination of significant pairs      ... done (   0.000 sec)
 Creation of shell pair data             ... done (   0.000 sec)
 Storage of shell pair data              ... done (   0.013 sec)
 Shell pair data done in (   0.013 sec)
 Computing two index integrals           ... done
 Cholesky decomposition of the V-matrix  ... done


Timings:
 Total evaluation time                   ...   0.200 sec (  0.003 min)
 One electron matrix time                ...   0.029 sec (  0.000 min) = 14.4%
 Schwartz matrix evaluation time         ...   0.099 sec (  0.002 min) = 49.5%
 Two index repulsion integral time       ...   0.014 sec (  0.000 min) =  7.2%
 Cholesky decomposition of V             ...   0.017 sec (  0.000 min) =  8.7%
 Three index repulsion integral time     ...   0.000 sec (  0.000 min) =  0.0%



           ************************************************************
           *        Program running with 28 parallel MPI-processes    *
           *              working on a common directory               *
           ************************************************************
-------------------------------------------------------------------------------
                                 ORCA SCF
-------------------------------------------------------------------------------

------------
SCF SETTINGS
------------
Hamiltonian:
 Density Functional     Method          .... DFT(GTOs)
 Exchange Functional    Exchange        .... B88
   X-Alpha parameter    XAlpha          ....  0.666667
   Becke's b parameter  XBeta           ....  0.004200
 Correlation Functional Correlation     .... LYP
 LDA part of GGA corr.  LDAOpt          .... VWN-5
 Gradients option       PostSCFGGA      .... off
 Hybrid DFT is turned on
   Fraction HF Exchange ScalHFX         ....  0.710000
   Scaling of DF-GGA-X  ScalDFX         ....  0.290000
   Scaling of DF-GGA-C  ScalDFC         ....  0.540000
   Scaling of DF-LDA-C  ScalLDAC        ....  0.540000
   Perturbative correction              ....  1.000000
   Density functional embedding theory  .... OFF
 RI-approximation to the Coulomb term is turned on
   Number of auxiliary basis functions  .... 128
   RI-JK (J+K treated both via RI)      .... on


General Settings:
 Integral files         IntName         .... LiO
 Hartree-Fock type      HFTyp           .... UHF
 Total Charge           Charge          ....    0
 Multiplicity           Mult            ....    2
 Number of Electrons    NEL             ....   11
 Basis Dimension        Dim             ....   62
 Nuclear Repulsion      ENuc            ....      7.5193919474 Eh

Convergence Acceleration:
 DIIS                   CNVDIIS         .... on
   Start iteration      DIISMaxIt       ....    12
   Startup error        DIISStart       ....  0.200000
   # of expansion vecs  DIISMaxEq       ....     5
   Bias factor          DIISBfac        ....   1.050
   Max. coefficient     DIISMaxC        ....  10.000
 Newton-Raphson         CNVNR           .... off
 SOSCF                  CNVSOSCF        .... off
 Level Shifting         CNVShift        .... on
   Level shift para.    LevelShift      ....    0.2500
   Turn off err/grad.   ShiftErr        ....    0.0010
 Zerner damping         CNVZerner       .... off
 Static damping         CNVDamp         .... on
   Fraction old density DampFac         ....    0.7000
   Max. Damping (<1)    DampMax         ....    0.9800
   Min. Damping (>=0)   DampMin         ....    0.0000
   Turn off err/grad.   DampErr         ....    0.1000
 Fernandez-Rico         CNVRico         .... off

SCF Procedure:
 Maximum # iterations   MaxIter         ....   125
 SCF integral mode      SCFMode         .... Direct
   Integral package                     .... LIBINT
 Reset frequency        DirectResetFreq ....    20
 Integral Threshold     Thresh          ....  1.000e-10 Eh
 Primitive CutOff       TCut            ....  1.000e-11 Eh

Convergence Tolerance:
 Convergence Check Mode ConvCheckMode   .... Total+1el-Energy
 Convergence forced     ConvForced      .... 0
 Energy Change          TolE            ....  1.000e-06 Eh
 1-El. energy change                    ....  1.000e-03 Eh
 DIIS Error             TolErr          ....  1.000e-06


Diagonalization of the overlap matrix:
Smallest eigenvalue                        ... 2.607e-03
Time for diagonalization                   ...    0.001 sec
Threshold for overlap eigenvalues          ... 1.000e-08
Number of eigenvalues below threshold      ... 0
Time for construction of square roots      ...    0.027 sec
Total time needed                          ...    0.028 sec

-------------------
DFT GRID GENERATION
-------------------

General Integration Accuracy     IntAcc      ...  4.670
Radial Grid Type                 RadialGrid  ... Gauss-Chebyshev
Angular Grid (max. acc.)         AngularGrid ... Lebedev-302
Angular grid pruning method      GridPruning ... 3 (G Style)
Weight generation scheme         WeightScheme... Becke
Basis function cutoff            BFCut       ...    1.0000e-10
Integration weight cutoff        WCut        ...    1.0000e-14
Grids for H and He will be reduced by one unit

# of grid points (after initial pruning)     ...  12088 (   0.0 sec)
# of grid points (after weights+screening)   ...  12047 (   0.0 sec)
nearest neighbour list constructed           ...    0.0 sec
Grid point re-assignment to atoms done       ...    0.0 sec
Grid point division into batches done        ...    0.1 sec
Reduced shell lists constructed in    0.1 sec

Total number of grid points                  ...    12047
Total number of batches                      ...      190
Average number of points per batch           ...       63
Average number of grid points per atom       ...     6024
Average number of shells per batch           ...     3.75 (15.62%)
Average number of basis functions per batch  ...     8.50 (13.71%)
Average number of large shells per batch     ...     2.12 (56.67%)
Average number of large basis fcns per batch ...     4.88 (57.35%)
Average number of aux-shells per batch       ...     3.75 ( 8.93%)
Average number of aux functions per batch    ...     8.50 ( 6.64%)
Maximum spatial batch extension              ...  43.84, 39.87, 23.89 au
Average spatial batch extension              ...   1.29,  1.08,  0.81 au

Time for grid setup =    0.093 sec

------------------------------
INITIAL GUESS: MODEL POTENTIAL
------------------------------
Loading Hartree-Fock densities                     ... done
Calculating cut-offs                               ... done
Setting up the integral package                    ... done
Initializing the effective Hamiltonian             ... done
Starting the Coulomb interaction                   ... done (   0.0 sec)
Reading the grid                                   ... done
Mapping shells                                     ... done
Starting the XC term evaluation                    ... done (   0.0 sec)
  promolecular density results
     # of electrons  =     11.000010517
     EX              =     -9.856005972
     EC              =     -0.019010288
     EX+EC           =     -9.875016260
Transforming the Hamiltonian                       ... done (   0.0 sec)
Diagonalizing the Hamiltonian                      ... done (   0.0 sec)
Back transforming the eigenvectors                 ... done (   0.0 sec)
Now organizing SCF variables                       ... done
                      ------------------
                      INITIAL GUESS DONE (   0.2 sec)
                      ------------------
--------------
SCF ITERATIONS
--------------
ITER       Energy         Delta-E        Max-DP      RMS-DP      [F,P]     Damp
  0    -82.4390307927   0.000000000000 0.02178348  0.00085625  0.2848941 0.7000
  1    -82.3599712002   0.079059592498 0.02028079  0.00086090  0.2465451 0.7000
                               ***Turning on DIIS***
  2    -82.3699458546  -0.009974654393 0.01131211  0.00050431  0.1177828 0.7000
  3    -82.4263317107  -0.056385856061 0.00966484  0.00057175  0.0361883 0.0000
  4    -82.5091276173  -0.082795906633 0.00486568  0.00029221  0.0679244 0.0000
  5    -82.5128719339  -0.003744316597 0.00325089  0.00016647  0.0323109 0.0000
  6    -82.5138942840  -0.001022350097 0.00193434  0.00008547  0.0125360 0.0000
  7    -82.5141054593  -0.000211175296 0.00082837  0.00003494  0.0035406 0.0000
  8    -82.5141352267  -0.000029767432 0.00049028  0.00002466  0.0009842 0.0000
  9    -82.5141424993  -0.000007272537 0.00019941  0.00000976  0.0001634 0.0000
 10    -82.5141435942  -0.000001094924 0.00009301  0.00000464  0.0000562 0.0000
                 **** Energy Check signals convergence ****

               *****************************************************
               *                     SUCCESS                       *
               *           SCF CONVERGED AFTER  11 CYCLES          *
               *****************************************************


----------------
TOTAL SCF ENERGY
----------------

Total Energy       :          -82.51414388 Eh           -2245.32400 eV

Components:
Nuclear Repulsion  :            7.51939195 Eh             204.61306 eV
Electronic Energy  :          -90.03353582 Eh           -2449.93706 eV
One Electron Energy:         -129.61012983 Eh           -3526.87094 eV
Two Electron Energy:           39.57659401 Eh            1076.93387 eV

Virial components:
Potential Energy   :         -164.86560156 Eh           -4486.22109 eV
Kinetic Energy     :           82.35145768 Eh            2240.89709 eV
Virial Ratio       :            2.00197551


DFT components:
N(Alpha)           :        6.000008558174 electrons
N(Beta)            :        5.000007678879 electrons
N(Total)           :       11.000016237053 electrons
E(X)               :       -2.938208811064 Eh       
E(C)               :       -0.191630755687 Eh       
E(XC)              :       -3.129839566750 Eh       
DFET-embed. en.    :        0.000000000000 Eh       

---------------
SCF CONVERGENCE
---------------

  Last Energy change         ...   -2.8307e-07  Tolerance :   1.0000e-06
  Last MAX-Density change    ...    6.2637e-05  Tolerance :   1.0000e-05
  Last RMS-Density change    ...    3.3980e-06  Tolerance :   1.0000e-06
  Last DIIS Error            ...    2.0825e-05  Tolerance :   1.0000e-06

             **** THE GBW FILE WAS UPDATED (LiO.gbw) ****
             **** DENSITY FILE WAS UPDATED (LiO.scfp) ****
             **** ENERGY FILE WAS UPDATED (LiO.en.tmp) ****
----------------------
UHF SPIN CONTAMINATION
----------------------

Warning: in a DFT calculation there is little theoretical justification to 
         calculate <S**2> as in Hartree-Fock theory. We will do it anyways
         but you should keep in mind that the values have only limited relevance

Expectation value of <S**2>     :     0.756324
Ideal value S*(S+1) for S=0.5   :     0.750000
Deviation                       :     0.006324

             **** THE GBW FILE WAS UPDATED (LiO.gbw) ****
             **** DENSITY FILE WAS UPDATED (LiO.scfp) ****
----------------
ORBITAL ENERGIES
----------------
                 SPIN UP ORBITALS
  NO   OCC          E(Eh)            E(eV) 
   0   1.0000     -19.966300      -543.3106 
   1   1.0000      -2.286207       -62.2109 
   2   1.0000      -1.051079       -28.6013 
   3   1.0000      -0.424000       -11.5376 
   4   1.0000      -0.362856        -9.8738 
   5   1.0000      -0.341650        -9.2968 
   6   0.0000      -0.021353        -0.5810 
   7   0.0000       0.025272         0.6877 
   8   0.0000       0.026619         0.7243 
   9   0.0000       0.044779         1.2185 
  10   0.0000       0.087233         2.3737 
  11   0.0000       0.114529         3.1165 
  12   0.0000       0.117377         3.1940 
  13   0.0000       0.167043         4.5455 
  14   0.0000       0.170455         4.6383 
  15   0.0000       0.177100         4.8191 
  16   0.0000       0.208693         5.6788 
  17   0.0000       0.306213         8.3325 
  18   0.0000       0.346123         9.4185 
  19   0.0000       0.346594         9.4313 
  20   0.0000       0.400858        10.9079 
  21   0.0000       0.425793        11.5864 
  22   0.0000       0.428265        11.6537 
  23   0.0000       0.480318        13.0701 
  24   0.0000       0.490302        13.3418 
  25   0.0000       0.540706        14.7134 
  26   0.0000       0.540966        14.7204 
  27   0.0000       0.631079        17.1725 
  28   0.0000       0.713441        19.4137 
  29   0.0000       0.737371        20.0649 
  30   0.0000       0.800517        21.7832 
  31   0.0000       0.921569        25.0772 
  32   0.0000       0.939322        25.5603 
  33   0.0000       0.972527        26.4638 
  34   0.0000       1.031150        28.0590 
  35   0.0000       1.748630        47.5827 
  36   0.0000       1.934667        52.6450 
  37   0.0000       1.934959        52.6529 
  38   0.0000       1.943765        52.8925 
  39   0.0000       1.986584        54.0577 
  40   0.0000       2.279599        62.0310 
  41   0.0000       2.990496        81.3755 
  42   0.0000       3.050590        83.0108 
  43   0.0000       3.102804        84.4316 
  44   0.0000       3.353341        91.2490 
  45   0.0000       5.461028       148.6021 
  46   0.0000       5.472822       148.9231 
  47   0.0000       5.484144       149.2312 
  48   0.0000       5.492709       149.4642 
  49   0.0000       5.492722       149.4646 
  50   0.0000       5.529635       150.4690 
  51   0.0000       5.600961       152.4099 
  52   0.0000       6.258429       170.3005 
  53   0.0000       6.261423       170.3820 
  54   0.0000       6.514531       177.2694 
  55   0.0000       6.736016       183.2963 
  56   0.0000       6.739560       183.3927 
  57   0.0000       6.754874       183.8095 
  58   0.0000       6.811987       185.3636 
  59   0.0000       6.963970       189.4993 
  60   0.0000      15.021032       408.7431 
  61   0.0000      44.315679      1205.8909 

                 SPIN DOWN ORBITALS
  NO   OCC          E(Eh)            E(eV) 
   0   1.0000     -19.934682      -542.4503 
   1   1.0000      -2.286937       -62.2307 
   2   1.0000      -0.921289       -25.0696 
   3   1.0000      -0.326766        -8.8918 
   4   1.0000      -0.301461        -8.2032 
   5   0.0000      -0.020904        -0.5688 
   6   0.0000       0.016891         0.4596 
   7   0.0000       0.027285         0.7425 
   8   0.0000       0.045352         1.2341 
   9   0.0000       0.072100         1.9619 
  10   0.0000       0.087717         2.3869 
  11   0.0000       0.117903         3.2083 
  12   0.0000       0.131305         3.5730 
  13   0.0000       0.168503         4.5852 
  14   0.0000       0.179907         4.8955 
  15   0.0000       0.211745         5.7619 
  16   0.0000       0.223447         6.0803 
  17   0.0000       0.309720         8.4279 
  18   0.0000       0.347674         9.4607 
  19   0.0000       0.348168         9.4741 
  20   0.0000       0.402067        10.9408 
  21   0.0000       0.428944        11.6722 
  22   0.0000       0.430854        11.7241 
  23   0.0000       0.489050        13.3077 
  24   0.0000       0.493662        13.4332 
  25   0.0000       0.547589        14.9006 
  26   0.0000       0.548358        14.9216 
  27   0.0000       0.633953        17.2507 
  28   0.0000       0.744689        20.2640 
  29   0.0000       0.772078        21.0093 
  30   0.0000       0.814745        22.1703 
  31   0.0000       0.943647        25.6779 
  32   0.0000       0.957690        26.0601 
  33   0.0000       0.989962        26.9382 
  34   0.0000       1.033376        28.1196 
  35   0.0000       1.756248        47.7899 
  36   0.0000       1.994659        54.2774 
  37   0.0000       2.000657        54.4407 
  38   0.0000       2.002088        54.4796 
  39   0.0000       2.008745        54.6607 
  40   0.0000       2.299104        62.5618 
  41   0.0000       3.072678        83.6118 
  42   0.0000       3.111687        84.6733 
  43   0.0000       3.124260        85.0154 
  44   0.0000       3.393588        92.3442 
  45   0.0000       5.526896       150.3945 
  46   0.0000       5.532681       150.5519 
  47   0.0000       5.533513       150.5745 
  48   0.0000       5.534204       150.5934 
  49   0.0000       5.537978       150.6960 
  50   0.0000       5.538300       150.7048 
  51   0.0000       5.617702       152.8654 
  52   0.0000       6.259749       170.3364 
  53   0.0000       6.261409       170.3816 
  54   0.0000       6.519224       177.3971 
  55   0.0000       6.827292       185.7801 
  56   0.0000       6.829370       185.8366 
  57   0.0000       6.830326       185.8626 
  58   0.0000       6.840993       186.1529 
  59   0.0000       6.996755       190.3914 
  60   0.0000      15.020524       408.7292 
  61   0.0000      44.336139      1206.4477 

                    ********************************
                    * MULLIKEN POPULATION ANALYSIS *
                    ********************************

--------------------------------------------
MULLIKEN ATOMIC CHARGES AND SPIN POPULATIONS
--------------------------------------------
   0 Li:    0.857032   -0.012895
   1 O :   -0.857032    1.012895
Sum of atomic charges         :    0.0000000
Sum of atomic spin populations:    1.0000000

-----------------------------------------------------
MULLIKEN REDUCED ORBITAL CHARGES AND SPIN POPULATIONS
-----------------------------------------------------
CHARGE
  0 Lis       :     2.005936  s :     2.005936
      pz      :     0.075348  p :     0.125792
      px      :     0.026447
      py      :     0.023996
      dz2     :     0.004956  d :     0.011240
      dxz     :     0.003283
      dyz     :     0.002991
      dx2y2   :     0.000000
      dxy     :     0.000011
  1 O s       :     3.970398  s :     3.970398
      pz      :     1.940292  p :     4.875705
      px      :     1.501558
      py      :     1.433855
      dz2     :     0.002306  d :     0.010783
      dxz     :     0.004029
      dyz     :     0.003749
      dx2y2   :     0.000003
      dxy     :     0.000696
      f0      :     0.000027  f :     0.000145
      f+1     :     0.000008
      f-1     :     0.000007
      f+2     :     0.000000
      f-2     :     0.000027
      f+3     :     0.000039
      f-3     :     0.000039

SPIN
  0 Lis       :    -0.005084  s :    -0.005084
      pz      :    -0.006019  p :    -0.007468
      px      :    -0.001333
      py      :    -0.000115
      dz2     :    -0.000639  d :    -0.000344
      dxz     :     0.000081
      dyz     :     0.000211
      dx2y2   :     0.000000
      dxy     :     0.000003
  1 O s       :     0.003217  s :     0.003217
      pz      :     0.008794  p :     1.008720
      px      :     0.465369
      py      :     0.534558
      dz2     :    -0.000226  d :     0.000870
      dxz     :     0.000485
      dyz     :     0.000673
      dx2y2   :    -0.000000
      dxy     :    -0.000062
      f0      :    -0.000009  f :     0.000089
      f+1     :    -0.000002
      f-1     :    -0.000001
      f+2     :     0.000000
      f-2     :     0.000025
      f+3     :     0.000038
      f-3     :     0.000038


                     *******************************
                     * LOEWDIN POPULATION ANALYSIS *
                     *******************************

-------------------------------------------
LOEWDIN ATOMIC CHARGES AND SPIN POPULATIONS
-------------------------------------------
   0 Li:    0.533452    0.021499
   1 O :   -0.533452    0.978501

----------------------------------------------------
LOEWDIN REDUCED ORBITAL CHARGES AND SPIN POPULATIONS
----------------------------------------------------
CHARGE
  0 Lis       :     2.005308  s :     2.005308
      pz      :     0.178787  p :     0.276215
      px      :     0.050682
      py      :     0.046747
      dz2     :     0.090618  d :     0.185025
      dxz     :     0.048521
      dyz     :     0.045870
      dx2y2   :     0.000000
      dxy     :     0.000016
  1 O s       :     3.789141  s :     3.789141
      pz      :     1.898426  p :     4.703515
      px      :     1.434555
      py      :     1.370534
      dz2     :     0.036917  d :     0.040610
      dxz     :     0.001560
      dyz     :     0.001439
      dx2y2   :     0.000003
      dxy     :     0.000691
      f0      :     0.000066  f :     0.000186
      f+1     :     0.000008
      f-1     :     0.000008
      f+2     :     0.000000
      f-2     :     0.000027
      f+3     :     0.000039
      f-3     :     0.000039

SPIN
  0 Lis       :    -0.005041  s :    -0.005041
      pz      :    -0.007790  p :     0.001381
      px      :     0.003431
      py      :     0.005739
      dz2     :    -0.000902  d :     0.025159
      dxz     :     0.011940
      dyz     :     0.014122
      dx2y2   :    -0.000000
      dxy     :    -0.000001
  1 O s       :     0.007984  s :     0.007984
      pz      :     0.006086  p :     0.970549
      px      :     0.449152
      py      :     0.515312
      dz2     :    -0.000321  d :    -0.000156
      dxz     :     0.000073
      dyz     :     0.000149
      dx2y2   :    -0.000000
      dxy     :    -0.000058
      f0      :     0.000017  f :     0.000125
      f+1     :     0.000003
      f-1     :     0.000004
      f+2     :     0.000000
      f-2     :     0.000025
      f+3     :     0.000038
      f-3     :     0.000038


                      *****************************
                      * MAYER POPULATION ANALYSIS *
                      *****************************

  NA   - Mulliken gross atomic population
  ZA   - Total nuclear charge
  QA   - Mulliken gross atomic charge
  VA   - Mayer's total valence
  BVA  - Mayer's bonded valence
  FA   - Mayer's free valence

  ATOM       NA         ZA         QA         VA         BVA        FA
  0 Li     2.1430     3.0000     0.8570     0.2907     0.2904     0.0003
  1 O      8.8570     8.0000    -0.8570     1.2827     0.2904     0.9923

  Mayer bond orders larger than 0.100000
B(  0-Li,  1-O ) :   0.2904 

-------
TIMINGS
-------

Total SCF time: 0 days 0 hours 0 min 3 sec 

Total time                  ....       3.938 sec
Sum of individual times     ....       3.534 sec  ( 89.8%)

Fock matrix formation       ....       3.068 sec  ( 77.9%)
  XC integration            ....       1.225 sec  ( 39.9% of F)
    Basis function eval.    ....       0.006 sec  (  0.5% of XC)
    Density eval.           ....       0.007 sec  (  0.5% of XC)
    XC-Functional eval.     ....       0.014 sec  (  1.1% of XC)
    XC-Potential eval.      ....       0.009 sec  (  0.7% of XC)
Diagonalization             ....       0.049 sec  (  1.2%)
Density matrix formation    ....       0.004 sec  (  0.1%)
Population analysis         ....       0.137 sec  (  3.5%)
Initial guess               ....       0.105 sec  (  2.7%)
Orbital Transformation      ....       0.000 sec  (  0.0%)
Orbital Orthonormalization  ....       0.000 sec  (  0.0%)
DIIS solution               ....       0.079 sec  (  2.0%)
Grid generation             ....       0.093 sec  (  2.4%)


           ************************************************************
           *        Program running with 28 parallel MPI-processes    *
           *              working on a common directory               *
           ************************************************************

------------------------------------------------------------------------------
                                ORCA  MP2 
------------------------------------------------------------------------------

Freezing NCore=2 chemical core electrons

-------------
RI-MP2 ENERGY
-------------
Dimension of the basis                    ...   62
Memory devoted to MP2                     ... 5000 MB   
Data format for buffers                   ... DOUBLE
Compression type for matrix containers    ... UNCOMPRESSED
Scaling for aa/bb pairs                   ...   4.000e-01
Scaling for ab pairs                      ...   4.700e-01
Overall scaling of the MP2 energy         ...   1.000e+00
Calculating two index integrals           ... done (    0.001 sec)
Cholesky decomposition of V**-1           ... done (    0.004 sec)

-----------------
RI-TRANSFORMATION (AUX index driven)
-----------------

Dimension of the orbital-basis         ... 62
Dimension of the aux-basis             ... 150
Transformation of internal/external MOs...    1-   5 to    6-  61
Number Format for Storage              ... Double (8 Byte)
Integral mode                          ... Direct

First Phase: integral generation and transformation of MO indices
  Aux angular momentum 0               ... done (    0.000 sec)
  Aux angular momentum 1               ... done (    0.003 sec)
  Aux angular momentum 2               ... done (    0.000 sec)
  Aux angular momentum 3               ... done (    0.000 sec)
  Aux angular momentum 4               ... done (    0.001 sec)
Closing buffer VIA ( 0.00 GB; CompressionRatio= 0.99)
  Phase 1 completed in     0.288 sec
Second Phase: sorting and transformation of aux index

IA-Transformation
Memory available                       ... 5000 MB 
Max. # MO pairs treated in a batch     ... 1    
# of internal orbitals                 ... 5
# batches for internal orbitals        ... 1
Closing buffer IAV ( 0.00 GB; CompressionRatio= 1.00)
(ia|v) transformation done in     0.101 sec

  Phase 2 completed in     0.414 sec
RI-Integral transformation completed in     0.979 sec

-----------------
RI-TRANSFORMATION (AUX index driven)
-----------------

Dimension of the orbital-basis         ... 62
Dimension of the aux-basis             ... 150
Transformation of internal/external MOs...    1-   4 to    5-  61
Number Format for Storage              ... Double (8 Byte)
Integral mode                          ... Direct

First Phase: integral generation and transformation of MO indices
  Aux angular momentum 0               ... done (    0.000 sec)
  Aux angular momentum 1               ... done (    0.002 sec)
  Aux angular momentum 2               ... done (    0.000 sec)
  Aux angular momentum 3               ... done (    0.000 sec)
  Aux angular momentum 4               ... done (    0.001 sec)
Closing buffer VIA ( 0.00 GB; CompressionRatio= 0.99)
  Phase 1 completed in     0.128 sec
Second Phase: sorting and transformation of aux index

IA-Transformation
Memory available                       ... 5000 MB 
Max. # MO pairs treated in a batch     ... 1    
# of internal orbitals                 ... 4
# batches for internal orbitals        ... 1
Closing buffer IAV ( 0.00 GB; CompressionRatio= 1.00)
(ia|v) transformation done in     0.030 sec

  Phase 2 completed in     0.378 sec
RI-Integral transformation completed in     0.647 sec
Opening buffers                              ... done

Starting loop over batches of integrals:

Operator 0  - window                       ... (  1-  5)x(  6- 61)
Operator 0  - Memory available             ...  5000 MB
Operator 0  - Memory needed per MO         ...   0.1 MB
Operator 0  - Number of orbitals per batch ... 1
Operator 0  - Number of batches            ... 1

OPERATOR  0   PASS   0:  MOs     1 ...    1 +    2 ...    2 +    3 ...    3 +    4 ...    4
                            +    5 ...    5
  Reading integrals       ... ok

Operator 1  - window                       ... (  1-  4)x(  5- 61)
Operator 1  - Memory available             ...  5000 MB
Operator 1  - Memory needed per MO         ...   0.1 MB
Operator 1  - Number of orbitals per batch ... 1
Operator 1  - Number of batches            ... 1

OPERATOR  1   PASS   0:  MOs     1 ...    1 +    2 ...    2 +    3 ...    3 +    4 ...    4
  Reading integrals       ... ok
Time spent in pair loops =     0.010 sec
Deleting buffer (Ka|jb)[aa] ...done
Deleting buffer (Ka|jb)[ab] ...done
Deleting buffer (Ka|jb)[ba] ...done
Deleting buffer (Ka|jb)[bb] ...done

Spin-scaled correlation energy components}
 E2 and T2 for alpha/alpha pairs :     -0.015553322 Eh      0.000000000
 E2 and T2 for beta/beta   pairs :     -0.007565181 Eh      0.000000000
 E2 and T2 for alpha/beta  pairs :     -0.096549225 Eh      0.000000000


-----------------------------------------------
 RI-MP2 CORRELATION ENERGY:     -0.119667728 Eh
-----------------------------------------------


-------
TIMINGS
-------

Total time                :    1.693 sec
Integral trafo            :    1.657 sec ( 97.9%)
I/O of integrals          :    0.000 sec (  0.0%)
K(i,j) Operators          :    0.001 sec (  0.1%)
T(i,j) pair energies      :    0.000 sec (  0.0%)
V-calculation             :    0.001 sec (  0.0%)
V**(-1/2)                 :    0.004 sec (  0.3%)
Gamma(ia|P)               :    0.000 sec (  0.0%)
Gamma-Trafo               :    0.000 sec (  0.0%)
D(virtual)                :    0.000 sec (  0.0%)
D(internal)               :    0.000 sec (  0.0%)
W(virtual)                :    0.000 sec (  0.0%)
W(internal)               :    0.000 sec (  0.0%)
L(virtual)                :    0.000 sec (  0.0%)
L(internal)               :    0.000 sec (  0.0%)
G(D)                      :    0.000 sec (  0.0%)
G(Z)                      :    0.000 sec (  0.0%)
Z-Vector Solution         :    0.000 sec (  0.0%)
Z-Vector Solution         :    0.000 sec (  0.0%)
3-Index Derivative 
+ Separable RIJ part      :    0.000 sec (  0.0%)
2-Index Derivative 
+ Separable RIJ part      :    0.000 sec (  0.0%)
Separable Gradient (X)    :    0.000 sec (  0.0%)


---------------------------------------
MP2 TOTAL ENERGY:      -82.633811605 Eh
---------------------------------------


-------------------------------------------------------------------------------
                          DFT DISPERSION CORRECTION                            
                                                                               
                              DFTD3 V3.1  Rev 1                                
                          USING Becke-Johnson damping                          
-------------------------------------------------------------------------------
The DSD-BLYP/2013 functional is recognized
Active option DFTDOPT                   ...         4   

molecular C6(AA) [au] = 159.524706 


            DFT-D V3
 parameters
 s6 scaling factor         :     0.5700 
 a1 scaling factor         :     0.0000 
 s8 scaling factor         :     0.0000 
 a2 scaling factor         :     5.4000 
 ad hoc parameters k1-k3   :    16.0000     1.3333    -4.0000 

 Edisp/kcal,au: -0.373821480412  -0.000595722385 
 E6   /kcal   :  -0.373821480 
 E8   /kcal   :  -0.000000000 
 % E8         :   0.000000000 

-------------------------   ----------------
Dispersion correction           -0.000595722
-------------------------   ----------------


-------------------------   --------------------
FINAL SINGLE POINT ENERGY       -82.634407327338
-------------------------   --------------------


                            ***************************************
                            *     ORCA property calculations      *
                            ***************************************


  WARNING: The energy has been calculated at the MP2 level but the densities
           used in the property calculations are still SCF densities
           MP2 response densities have not been calculated 
           use %mp2 Density relaxed end
           or  %mp2 Density unrelaxed end

                                    ---------------------
                                    Active property flags
                                    ---------------------
   (+) Dipole Moment


------------------------------------------------------------------------------
                       ORCA ELECTRIC PROPERTIES CALCULATION
------------------------------------------------------------------------------

Dipole Moment Calculation                       ... on
Quadrupole Moment Calculation                   ... off
Polarizability Calculation                      ... off
GBWName                                         ... LiO.gbw
Electron density file                           ... LiO.scfp
The origin for moment calculation is the CENTER OF MASS  = ( 0.000000,  0.000000  2.226014)

-------------
DIPOLE MOMENT
-------------
                                X             Y             Z
Electronic contribution:     -0.00000       0.00000      -3.70457
Nuclear contribution   :      0.00000       0.00000       1.04782
                        -----------------------------------------
Total Dipole Moment    :     -0.00000       0.00000      -2.65675
                        -----------------------------------------
Magnitude (a.u.)       :      2.65675
Magnitude (Debye)      :      6.75292



--------------------
Rotational spectrum 
--------------------
 
Rotational constants in cm-1:     0.000000     1.220720     1.220720 
Rotational constants in MHz :     0.000000 36596.271053 36596.271053 

 Dipole components along the rotational axes: 
x,y,z [a.u.] :    -2.656747     0.000000    -0.000000 
x,y,z [Debye]:    -6.752915     0.000000    -0.000000 

 

Timings for individual modules:

Sum of individual times         ...        7.710 sec (=   0.128 min)
GTO integral calculation        ...        0.881 sec (=   0.015 min)  11.4 %
SCF iterations                  ...        4.497 sec (=   0.075 min)  58.3 %
MP2 module                      ...        2.333 sec (=   0.039 min)  30.3 %
                             ****ORCA TERMINATED NORMALLY****
TOTAL RUN TIME: 0 days 0 hours 0 minutes 8 seconds 418 msec
