
                                 *****************
                                 * O   R   C   A *
                                 *****************

           --- An Ab Initio, DFT and Semiempirical electronic structure package ---

                  #######################################################
                  #                        -***-                        #
                  #          Department of theory and spectroscopy      #
                  #               Directorship: Frank Neese             #
                  #        Max Planck Institute fuer Kohlenforschung    #
                  #                Kaiser Wilhelm Platz 1               #
                  #                 D-45470 Muelheim/Ruhr               #
                  #                      Germany                        #
                  #                                                     #
                  #                  All rights reserved                #
                  #                        -***-                        #
                  #######################################################


                         Program Version 4.2.0 -  RELEASE  -


 With contributions from (in alphabetic order):
   Daniel Aravena         : Magnetic Suceptibility
   Michael Atanasov       : Ab Initio Ligand Field Theory (pilot matlab implementation)
   Alexander A. Auer      : GIAO ZORA, VPT2
   Ute Becker             : Parallelization
   Giovanni Bistoni       : ED, misc. LED, open-shell LED, HFLED
   Martin Brehm           : Molecular dynamics
   Dmytro Bykov           : SCF Hessian
   Vijay G. Chilkuri      : MRCI spin determinant printing, contributions to CSF-ICE
   Dipayan Datta          : RHF DLPNO-CCSD density
   Achintya Kumar Dutta   : EOM-CC, STEOM-CC
   Dmitry Ganyushin       : Spin-Orbit,Spin-Spin,Magnetic field MRCI
   Miquel Garcia          : C-PCM Hessian, Gaussian charge scheme
   Yang Guo               : DLPNO-NEVPT2, CIM, IAO-localization
   Andreas Hansen         : Spin unrestricted coupled pair/coupled cluster methods
   Benjamin Helmich-Paris : CASSCF linear response (MC-RPA)
   Lee Huntington         : MR-EOM, pCC
   Robert Izsak           : Overlap fitted RIJCOSX, COSX-SCS-MP3, EOM
   Christian Kollmar      : KDIIS, OOCD, Brueckner-CCSD(T), CCSD density
   Simone Kossmann        : Meta GGA functionals, TD-DFT gradient, OOMP2, MP2 Hessian
   Martin Krupicka        : AUTO-CI
   Lucas Lang             : DCDCAS
   Dagmar Lenk            : GEPOL surface, SMD
   Dimitrios Liakos       : Extrapolation schemes; Compound Job, initial MDCI parallelization
   Dimitrios Manganas     : Further ROCIS development; embedding schemes
   Dimitrios Pantazis     : SARC Basis sets
   Taras Petrenko         : DFT Hessian,TD-DFT gradient, ASA, ECA, R-Raman, ABS, FL, XAS/XES, NRVS
   Peter Pinski           : DLPNO-MP2, DLPNO-MP2 Gradient
   Christoph Reimann      : Effective Core Potentials
   Marius Retegan         : Local ZFS, SOC
   Christoph Riplinger    : Optimizer, TS searches, QM/MM, DLPNO-CCSD(T), (RO)-DLPNO pert. Triples
   Tobias Risthaus        : Range-separated hybrids, TD-DFT gradient, RPA, STAB
   Michael Roemelt        : Original ROCIS implementation
   Masaaki Saitow         : Open-shell DLPNO-CCSD energy and density
   Barbara Sandhoefer     : DKH picture change effects
   Avijit Sen             : IP-ROCIS
   Kantharuban Sivalingam : CASSCF convergence, NEVPT2, FIC-MRCI
   Bernardo de Souza      : ESD, SOC TD-DFT
   Georgi Stoychev        : AutoAux, RI-MP2 NMR
   Willem Van den Heuvel  : Paramagnetic NMR
   Boris Wezisla          : Elementary symmetry handling
   Frank Wennmohs         : Technical directorship


 We gratefully acknowledge several colleagues who have allowed us to
 interface, adapt or use parts of their codes:
   Stefan Grimme, W. Hujo, H. Kruse,             : VdW corrections, initial TS optimization,
                  C. Bannwarth                     DFT functionals, gCP, sTDA/sTD-DF
   Ed Valeev, F. Pavosevic, A. Kumar             : LibInt (2-el integral package), F12 methods
   Garnet Chan, S. Sharma, J. Yang, R. Olivares  : DMRG
   Ulf Ekstrom                                   : XCFun DFT Library
   Mihaly Kallay                                 : mrcc  (arbitrary order and MRCC methods)
   Andreas Klamt, Michael Diedenhofen            : otool_cosmo (COSMO solvation model)
   Jiri Pittner, Ondrej Demel                    : Mk-CCSD
   Frank Weinhold                                : gennbo (NPA and NBO analysis)
   Christopher J. Cramer and Donald G. Truhlar   : smd solvation model
   Lars Goerigk                                  : TD-DFT with DH, B97 family of functionals
   V. Asgeirsson, H. Jonsson                     : NEB implementation
   FAccTs GmbH                                   : IRC, NEB, NEB-TS, Multilevel, MM, QM/MM, CI optimization
   S Lehtola, MJT Oliveira, MAL Marques          : LibXC Library


 Your calculation uses the libint2 library for the computation of 2-el integrals
 For citations please refer to: http://libint.valeyev.net

 Your ORCA version has been built with support for libXC version: 4.2.3
 For citations please refer to: https://tddft.org/programs/libxc/

 This ORCA versions uses:
   CBLAS   interface :  Fast vector & matrix operations
   LAPACKE interface :  Fast linear algebra routines
   SCALAPACK package :  Parallel linear algebra routines


Your calculation utilizes the atom-pairwise dispersion correction
with the Becke-Johnson damping scheme (D3BJ)
Cite in your paper:
S.Grimme, S.Ehrlich, L.Goerigk, J Comput Chem, (2011), 32, 1456–1465 
S.Grimme, J.Antony, S.Ehrlich and H.Krieg, J.Chem.Phys., 132, (2010), 154104 
   

----- Orbital basis set information -----
Your calculation utilizes the basis: def2-TZVPPD
   F. Weigend and R. Ahlrichs, Phys. Chem. Chem. Phys. 7, 3297 (2005).
   D. Rappoport and F. Furche, J. Chem. Phys. 133 134105 (2010).

----- AuxJK basis set information -----
Your calculation utilizes the auxiliary basis: def2/JK
   H-Ba, Hf-Rn: F. Weigend, J. Comput. Chem. 29, 167 (2008).

================================================================================
                                        WARNINGS
                       Please study these warnings very carefully!
================================================================================


WARNING: your system is open-shell and RHF/RKS was chosen
  ===> : WILL SWITCH to UHF/UKS


INFO   : the flag for use of LIBINT has been found!

================================================================================
                                       INPUT FILE
================================================================================
NAME = al.in
|  1> #
|  2> # al TPSSh-D3BJ/Def2-TZVPPD
|  3> #
|  4> ! tpssh d3bj def2-tzvppd def2/jk grid4 nofinalgrid
|  5> 
|  6> *xyz 0 2
|  7> Al         0.00000        0.00000        0.00000
|  8> *
|  9> 
| 10> %maxcore 5000
| 11> 
| 12> %pal
| 13> nprocs = 28
| 14> end
| 15> 
| 16> 
| 17>                          ****END OF INPUT****
================================================================================

                       ****************************
                       * Single Point Calculation *
                       ****************************

---------------------------------
CARTESIAN COORDINATES (ANGSTROEM)
---------------------------------
  Al     0.000000    0.000000    0.000000

----------------------------
CARTESIAN COORDINATES (A.U.)
----------------------------
  NO LB      ZA    FRAG     MASS         X           Y           Z
   0 Al   13.0000    0    26.982    0.000000    0.000000    0.000000

--------------------------------
INTERNAL COORDINATES (ANGSTROEM)
--------------------------------
 Al     0   0   0     0.000000000000     0.00000000     0.00000000

---------------------------
INTERNAL COORDINATES (A.U.)
---------------------------
 Al     0   0   0     0.000000000000     0.00000000     0.00000000

---------------------
BASIS SET INFORMATION
---------------------
There are 1 groups of distinct atoms

 Group   1 Type Al  : 15s9p4d1f contracted to 6s5p4d1f pattern {732111/51111/1111/1}

Atom   0Al   basis set group =>   1
----------------------------------
AUXILIARY/JK BASIS SET INFORMATION
----------------------------------
There are 1 groups of distinct atoms

 Group   1 Type Al  : 16s12p10d4f1g contracted to 13s11p9d4f1g pattern {4111111111111/21111111111/211111111/1111/1}

Atom   0Al   basis set group =>   1


           ************************************************************
           *        Program running with 28 parallel MPI-processes    *
           *              working on a common directory               *
           ************************************************************
------------------------------------------------------------------------------
                           ORCA GTO INTEGRAL CALCULATION
------------------------------------------------------------------------------

                         BASIS SET STATISTICS AND STARTUP INFO

 # of primitive gaussian shells          ...   29
 # of primitive gaussian functions       ...   69
 # of contracted shells                  ...   16
 # of contracted basis functions         ...   48
 Highest angular momentum                ...    3
 Maximum contraction depth               ...    7
 Integral package used                   ... LIBINT
 Integral threshhold            Thresh   ...  1.000e-10
 Primitive cut-off              TCut     ...  1.000e-11


------------------------------ INTEGRAL EVALUATION ----------------------------


 * One electron integrals 
 Pre-screening matrix                    ... done
 Shell pair data                         ... done (   0.000 sec)



           ************************************************************
           *        Program running with 28 parallel MPI-processes    *
           *              working on a common directory               *
           ************************************************************
-------------------------------------------------------------------------------
                                 ORCA SCF
-------------------------------------------------------------------------------

------------
SCF SETTINGS
------------
Hamiltonian:
 Density Functional     Method          .... DFT(GTOs)
 Exchange Functional    Exchange        .... TPSS
 Correlation Functional Correlation     .... TPSS
 LDA part of GGA corr.  LDAOpt          .... PW91-LDA
 Gradients option       PostSCFGGA      .... off
 Hybrid DFT is turned on
   Fraction HF Exchange ScalHFX         ....  0.100000
   Scaling of DF-GGA-X  ScalDFX         ....  0.900000
   Scaling of DF-GGA-C  ScalDFC         ....  1.000000
   Scaling of DF-LDA-C  ScalLDAC        ....  1.000000
   Perturbative correction              ....  0.000000
   Density functional embedding theory  .... OFF
   NL short-range parameter             ....  5.200000


General Settings:
 Integral files         IntName         .... al
 Hartree-Fock type      HFTyp           .... UHF
 Total Charge           Charge          ....    0
 Multiplicity           Mult            ....    2
 Number of Electrons    NEL             ....   13
 Basis Dimension        Dim             ....   48
 Nuclear Repulsion      ENuc            ....      0.0000000000 Eh

Convergence Acceleration:
 DIIS                   CNVDIIS         .... on
   Start iteration      DIISMaxIt       ....    12
   Startup error        DIISStart       ....  0.200000
   # of expansion vecs  DIISMaxEq       ....     5
   Bias factor          DIISBfac        ....   1.050
   Max. coefficient     DIISMaxC        ....  10.000
 Newton-Raphson         CNVNR           .... off
 SOSCF                  CNVSOSCF        .... off
 Level Shifting         CNVShift        .... on
   Level shift para.    LevelShift      ....    0.2500
   Turn off err/grad.   ShiftErr        ....    0.0010
 Zerner damping         CNVZerner       .... off
 Static damping         CNVDamp         .... on
   Fraction old density DampFac         ....    0.7000
   Max. Damping (<1)    DampMax         ....    0.9800
   Min. Damping (>=0)   DampMin         ....    0.0000
   Turn off err/grad.   DampErr         ....    0.1000
 Fernandez-Rico         CNVRico         .... off

SCF Procedure:
 Maximum # iterations   MaxIter         ....   125
 SCF integral mode      SCFMode         .... Direct
   Integral package                     .... LIBINT
 Reset frequency        DirectResetFreq ....    20
 Integral Threshold     Thresh          ....  1.000e-10 Eh
 Primitive CutOff       TCut            ....  1.000e-11 Eh

Convergence Tolerance:
 Convergence Check Mode ConvCheckMode   .... Total+1el-Energy
 Convergence forced     ConvForced      .... 0
 Energy Change          TolE            ....  1.000e-06 Eh
 1-El. energy change                    ....  1.000e-03 Eh
 DIIS Error             TolErr          ....  1.000e-06


Diagonalization of the overlap matrix:
Smallest eigenvalue                        ... 2.409e-02
Time for diagonalization                   ...    0.013 sec
Threshold for overlap eigenvalues          ... 1.000e-08
Number of eigenvalues below threshold      ... 0
Time for construction of square roots      ...    0.038 sec
Total time needed                          ...    0.051 sec

-------------------
DFT GRID GENERATION
-------------------

General Integration Accuracy     IntAcc      ...  4.670
Radial Grid Type                 RadialGrid  ... Gauss-Chebyshev
Angular Grid (max. acc.)         AngularGrid ... Lebedev-302
Angular grid pruning method      GridPruning ... 3 (G Style)
Weight generation scheme         WeightScheme... Becke
Basis function cutoff            BFCut       ...    1.0000e-10
Integration weight cutoff        WCut        ...    1.0000e-14
Grids for H and He will be reduced by one unit

# of grid points (after initial pruning)     ...   6846 (   0.0 sec)
# of grid points (after weights+screening)   ...   6846 (   0.0 sec)
Grid point division into batches done        ...    0.0 sec
Reduced shell lists constructed in    0.0 sec

Total number of grid points                  ...     6846
Total number of batches                      ...      107
Average number of points per batch           ...       63
Average number of grid points per atom       ...     6846
Average number of shells per batch           ...     3.20 (20.00%)
Average number of basis functions per batch  ...     8.00 (16.67%)
Average number of large shells per batch     ...     2.40 (75.00%)
Average number of large basis fcns per batch ...     7.20 (90.00%)
Maximum spatial batch extension              ...  23.12, 23.12, 21.41 au
Average spatial batch extension              ...   0.72,  0.72,  0.80 au

Time for grid setup =    0.236 sec

------------------------------
INITIAL GUESS: MODEL POTENTIAL
------------------------------
Loading Hartree-Fock densities                     ... done
Calculating cut-offs                               ... done
Setting up the integral package                    ... done
Initializing the effective Hamiltonian             ... done
Starting the Coulomb interaction                   ... done (   0.0 sec)
Reading the grid                                   ... done
Mapping shells                                     ... done
Starting the XC term evaluation                    ... done (   0.0 sec)
  promolecular density results
     # of electrons  =     12.999996150
     EX              =    -17.960863511
     EC              =     -0.449465569
     EX+EC           =    -18.410329080
Transforming the Hamiltonian                       ... done (   0.0 sec)
Diagonalizing the Hamiltonian                      ... done (   0.0 sec)
Back transforming the eigenvectors                 ... done (   0.0 sec)
Now organizing SCF variables                       ... done
                      ------------------
                      INITIAL GUESS DONE (   0.4 sec)
                      ------------------
--------------
SCF ITERATIONS
--------------
ITER       Energy         Delta-E        Max-DP      RMS-DP      [F,P]     Damp
               ***  Starting incremental Fock matrix formation  ***
  0   -242.3710503678   0.000000000000 0.00698713  0.00025997  0.0341828 0.7000
  1   -242.3717192318  -0.000668863961 0.00763878  0.00026709  0.0237906 0.7000
                               ***Turning on DIIS***
  2   -242.3722597218  -0.000540489982 0.02173337  0.00075254  0.0165661 0.0000
  3   -242.3737293607  -0.001469638970 0.00372802  0.00014579  0.0035938 0.0000
  4   -242.3737989579  -0.000069597141 0.00233520  0.00007238  0.0013982 0.0000
  5   -242.3738183213  -0.000019363458 0.00283100  0.00007682  0.0004333 0.0000
  6   -242.3738256463  -0.000007325012 0.00052217  0.00001357  0.0000483 0.0000
                 **** Energy Check signals convergence ****

               *****************************************************
               *                     SUCCESS                       *
               *           SCF CONVERGED AFTER   7 CYCLES          *
               *****************************************************


----------------
TOTAL SCF ENERGY
----------------

Total Energy       :         -242.37382575 Eh           -6595.32710 eV

Components:
Nuclear Repulsion  :            0.00000000 Eh               0.00000 eV
Electronic Energy  :         -242.37382575 Eh           -6595.32710 eV
One Electron Energy:         -336.72503410 Eh           -9162.75400 eV
Two Electron Energy:           94.35120835 Eh            2567.42690 eV

Virial components:
Potential Energy   :         -484.23192053 Eh          -13176.62044 eV
Kinetic Energy     :          241.85809478 Eh            6581.29335 eV
Virial Ratio       :            2.00213237


DFT components:
N(Alpha)           :        7.000000416208 electrons
N(Beta)            :        6.000000415387 electrons
N(Total)           :       13.000000831595 electrons
E(X)               :      -16.320849042978 Eh       
E(C)               :       -0.448770437656 Eh       
E(XC)              :      -16.769619480633 Eh       
DFET-embed. en.    :        0.000000000000 Eh       

---------------
SCF CONVERGENCE
---------------

  Last Energy change         ...   -1.0832e-07  Tolerance :   1.0000e-06
  Last MAX-Density change    ...    2.8368e-05  Tolerance :   1.0000e-05
  Last RMS-Density change    ...    7.3939e-07  Tolerance :   1.0000e-06
  Last DIIS Error            ...    1.0280e-05  Tolerance :   1.0000e-06

             **** THE GBW FILE WAS UPDATED (al.gbw) ****
             **** DENSITY FILE WAS UPDATED (al.scfp) ****
             **** ENERGY FILE WAS UPDATED (al.en.tmp) ****
----------------------
UHF SPIN CONTAMINATION
----------------------

Warning: in a DFT calculation there is little theoretical justification to 
         calculate <S**2> as in Hartree-Fock theory. We will do it anyways
         but you should keep in mind that the values have only limited relevance

Expectation value of <S**2>     :     0.757989
Ideal value S*(S+1) for S=0.5   :     0.750000
Deviation                       :     0.007989

             **** THE GBW FILE WAS UPDATED (al.gbw) ****
             **** DENSITY FILE WAS UPDATED (al.scfp) ****
----------------
ORBITAL ENERGIES
----------------
                 SPIN UP ORBITALS
  NO   OCC          E(Eh)            E(eV) 
   0   1.0000     -55.927872     -1521.8748 
   1   1.0000      -4.097166      -111.4896 
   2   1.0000      -2.641355       -71.8749 
   3   1.0000      -2.641355       -71.8749 
   4   1.0000      -2.637688       -71.7751 
   5   1.0000      -0.309113        -8.4114 
   6   1.0000      -0.130160        -3.5418 
   7   0.0000      -0.084301        -2.2940 
   8   0.0000      -0.084301        -2.2939 
   9   0.0000       0.012891         0.3508 
  10   0.0000       0.056544         1.5386 
  11   0.0000       0.056544         1.5386 
  12   0.0000       0.058836         1.6010 
  13   0.0000       0.063396         1.7251 
  14   0.0000       0.063397         1.7251 
  15   0.0000       0.197702         5.3798 
  16   0.0000       0.206068         5.6074 
  17   0.0000       0.206068         5.6074 
  18   0.0000       0.223079         6.0703 
  19   0.0000       0.223079         6.0703 
  20   0.0000       0.226559         6.1650 
  21   0.0000       0.233884         6.3643 
  22   0.0000       0.233885         6.3643 
  23   0.0000       0.271135         7.3779 
  24   0.0000       0.735019        20.0009 
  25   0.0000       0.735019        20.0009 
  26   0.0000       0.736079        20.0297 
  27   0.0000       0.736079        20.0297 
  28   0.0000       0.744977        20.2718 
  29   0.0000       0.745259        20.2795 
  30   0.0000       0.745260        20.2795 
  31   0.0000       0.772563        21.0225 
  32   0.0000       0.772564        21.0225 
  33   0.0000       0.775622        21.1058 
  34   0.0000       0.775622        21.1058 
  35   0.0000       0.782197        21.2847 
  36   0.0000       1.834601        49.9220 
  37   0.0000       1.834601        49.9220 
  38   0.0000       1.856056        50.5058 
  39   0.0000       3.131855        85.2221 
  40   0.0000       3.131855        85.2221 
  41   0.0000       3.142808        85.5201 
  42   0.0000       3.142808        85.5201 
  43   0.0000       3.146200        85.6124 
  44   0.0000       6.416924       174.6134 
  45   0.0000       9.110057       247.8973 
  46   0.0000       9.110057       247.8973 
  47   0.0000       9.123043       248.2506 

                 SPIN DOWN ORBITALS
  NO   OCC          E(Eh)            E(eV) 
   0   1.0000     -55.925623     -1521.8136 
   1   1.0000      -4.094924      -111.4286 
   2   1.0000      -2.640372       -71.8482 
   3   1.0000      -2.640372       -71.8482 
   4   1.0000      -2.630027       -71.5667 
   5   1.0000      -0.278380        -7.5751 
   6   0.0000      -0.077964        -2.1215 
   7   0.0000      -0.077964        -2.1215 
   8   0.0000      -0.053156        -1.4465 
   9   0.0000       0.022305         0.6069 
  10   0.0000       0.067867         1.8467 
  11   0.0000       0.067868         1.8468 
  12   0.0000       0.069715         1.8971 
  13   0.0000       0.072624         1.9762 
  14   0.0000       0.072624         1.9762 
  15   0.0000       0.208308         5.6684 
  16   0.0000       0.208308         5.6684 
  17   0.0000       0.228192         6.2094 
  18   0.0000       0.235679         6.4132 
  19   0.0000       0.235680         6.4132 
  20   0.0000       0.252285         6.8650 
  21   0.0000       0.252285         6.8650 
  22   0.0000       0.256055         6.9676 
  23   0.0000       0.279653         7.6098 
  24   0.0000       0.732335        19.9278 
  25   0.0000       0.732335        19.9278 
  26   0.0000       0.750611        20.4252 
  27   0.0000       0.750611        20.4252 
  28   0.0000       0.761833        20.7305 
  29   0.0000       0.761833        20.7305 
  30   0.0000       0.763919        20.7873 
  31   0.0000       0.771401        20.9909 
  32   0.0000       0.771401        20.9909 
  33   0.0000       0.789925        21.4950 
  34   0.0000       0.789925        21.4950 
  35   0.0000       0.796008        21.6605 
  36   0.0000       1.838535        50.0291 
  37   0.0000       1.838535        50.0291 
  38   0.0000       1.859001        50.5860 
  39   0.0000       3.132323        85.2348 
  40   0.0000       3.132323        85.2348 
  41   0.0000       3.146962        85.6332 
  42   0.0000       3.146962        85.6332 
  43   0.0000       3.151887        85.7672 
  44   0.0000       6.423013       174.7791 
  45   0.0000       9.112914       247.9750 
  46   0.0000       9.112914       247.9750 
  47   0.0000       9.123442       248.2615 

                    ********************************
                    * MULLIKEN POPULATION ANALYSIS *
                    ********************************

--------------------------------------------
MULLIKEN ATOMIC CHARGES AND SPIN POPULATIONS
--------------------------------------------
   0 Al:   -0.000000    1.000000
Sum of atomic charges         :   -0.0000000
Sum of atomic spin populations:    1.0000000

-----------------------------------------------------
MULLIKEN REDUCED ORBITAL CHARGES AND SPIN POPULATIONS
-----------------------------------------------------
CHARGE
  0 Als       :     5.995871  s :     5.995871
      pz      :     2.998565  p :     6.999984
      px      :     2.000102
      py      :     2.001316
      dz2     :     0.004111  d :     0.004129
      dxz     :     0.000001
      dyz     :     0.000016
      dx2y2   :     0.000000
      dxy     :     0.000000
      f0      :     0.000016  f :     0.000016
      f+1     :     0.000000
      f-1     :     0.000000
      f+2     :     0.000000
      f-2     :     0.000000
      f+3     :     0.000000
      f-3     :     0.000000

SPIN
  0 Als       :     0.000828  s :     0.000828
      pz      :     0.998566  p :     0.999986
      px      :     0.000103
      py      :     0.001317
      dz2     :    -0.000824  d :    -0.000828
      dxz     :    -0.000000
      dyz     :    -0.000003
      dx2y2   :    -0.000000
      dxy     :    -0.000000
      f0      :     0.000015  f :     0.000014
      f+1     :    -0.000000
      f-1     :    -0.000000
      f+2     :    -0.000000
      f-2     :    -0.000000
      f+3     :    -0.000000
      f-3     :    -0.000000


                     *******************************
                     * LOEWDIN POPULATION ANALYSIS *
                     *******************************

-------------------------------------------
LOEWDIN ATOMIC CHARGES AND SPIN POPULATIONS
-------------------------------------------
   0 Al:   -0.000000    1.000000

----------------------------------------------------
LOEWDIN REDUCED ORBITAL CHARGES AND SPIN POPULATIONS
----------------------------------------------------
CHARGE
  0 Als       :     5.995871  s :     5.995871
      pz      :     2.998565  p :     6.999984
      px      :     2.000102
      py      :     2.001316
      dz2     :     0.004111  d :     0.004129
      dxz     :     0.000001
      dyz     :     0.000016
      dx2y2   :     0.000000
      dxy     :     0.000000
      f0      :     0.000016  f :     0.000016
      f+1     :     0.000000
      f-1     :     0.000000
      f+2     :     0.000000
      f-2     :     0.000000
      f+3     :     0.000000
      f-3     :     0.000000

SPIN
  0 Als       :     0.000828  s :     0.000828
      pz      :     0.998566  p :     0.999986
      px      :     0.000103
      py      :     0.001317
      dz2     :    -0.000824  d :    -0.000828
      dxz     :    -0.000000
      dyz     :    -0.000003
      dx2y2   :    -0.000000
      dxy     :    -0.000000
      f0      :     0.000015  f :     0.000014
      f+1     :    -0.000000
      f-1     :    -0.000000
      f+2     :    -0.000000
      f-2     :    -0.000000
      f+3     :    -0.000000
      f-3     :    -0.000000


                      *****************************
                      * MAYER POPULATION ANALYSIS *
                      *****************************

  NA   - Mulliken gross atomic population
  ZA   - Total nuclear charge
  QA   - Mulliken gross atomic charge
  VA   - Mayer's total valence
  BVA  - Mayer's bonded valence
  FA   - Mayer's free valence

  ATOM       NA         ZA         QA         VA         BVA        FA
  0 Al    13.0000    13.0000    -0.0000     1.0160     0.0000     1.0160

  Mayer bond orders larger than 0.100000


-------
TIMINGS
-------

Total SCF time: 0 days 0 hours 0 min 10 sec 

Total time                  ....      10.103 sec
Sum of individual times     ....       9.490 sec  ( 93.9%)

Fock matrix formation       ....       8.761 sec  ( 86.7%)
  XC integration            ....       7.146 sec  ( 81.6% of F)
    Basis function eval.    ....       0.002 sec  (  0.0% of XC)
    Density eval.           ....       0.008 sec  (  0.1% of XC)
    XC-Functional eval.     ....       0.010 sec  (  0.1% of XC)
    XC-Potential eval.      ....       0.008 sec  (  0.1% of XC)
Diagonalization             ....       0.173 sec  (  1.7%)
Density matrix formation    ....       0.054 sec  (  0.5%)
Population analysis         ....       0.110 sec  (  1.1%)
Initial guess               ....       0.116 sec  (  1.1%)
Orbital Transformation      ....       0.000 sec  (  0.0%)
Orbital Orthonormalization  ....       0.000 sec  (  0.0%)
DIIS solution               ....       0.039 sec  (  0.4%)
Grid generation             ....       0.236 sec  (  2.3%)


-------------------------------------------------------------------------------
                          DFT DISPERSION CORRECTION                            
                                                                               
                              DFTD3 V3.1  Rev 1                                
                          USING Becke-Johnson damping                          
-------------------------------------------------------------------------------
The TPSSH functional is recognized
Active option DFTDOPT                   ...         4   

molecular C6(AA) [au] = 537.982404 


            DFT-D V3
 parameters
 s6 scaling factor         :     1.0000 
 a1 scaling factor         :     0.4529 
 s8 scaling factor         :     2.2382 
 a2 scaling factor         :     4.6550 
 ad hoc parameters k1-k3   :    16.0000     1.3333    -4.0000 

 Edisp/kcal,au: -0.000000000000  -0.000000000000 
 E6   /kcal   :  -0.000000000 
 E8   /kcal   :  -0.000000000 
 % E8         :          -nan 

-------------------------   ----------------
Dispersion correction            0.000000000
-------------------------   ----------------


-------------------------   --------------------
FINAL SINGLE POINT ENERGY      -242.373825754669
-------------------------   --------------------


                            ***************************************
                            *     ORCA property calculations      *
                            ***************************************

                                    ---------------------
                                    Active property flags
                                    ---------------------
   (+) Dipole Moment


------------------------------------------------------------------------------
                       ORCA ELECTRIC PROPERTIES CALCULATION
------------------------------------------------------------------------------

Dipole Moment Calculation                       ... on
Quadrupole Moment Calculation                   ... off
Polarizability Calculation                      ... off
GBWName                                         ... al.gbw
Electron density file                           ... al.scfp
The origin for moment calculation is the CENTER OF MASS  = ( 0.000000,  0.000000  0.000000)

-------------
DIPOLE MOMENT
-------------
                                X             Y             Z
Electronic contribution:     -0.00000      -0.00000       0.00000
Nuclear contribution   :      0.00000       0.00000       0.00000
                        -----------------------------------------
Total Dipole Moment    :     -0.00000      -0.00000       0.00000
                        -----------------------------------------
Magnitude (a.u.)       :      0.00000
Magnitude (Debye)      :      0.00000



--------------------
Rotational spectrum 
--------------------
 
Rotational constants in cm-1:     0.000000     0.000000     0.000000 
Rotational constants in MHz :     0.000000     0.000000     0.000000 

 Dipole components along the rotational axes: 
x,y,z [a.u.] :    -0.000000    -0.000000     0.000000 
x,y,z [Debye]:    -0.000000    -0.000000     0.000000 

 

Timings for individual modules:

Sum of individual times         ...       12.038 sec (=   0.201 min)
GTO integral calculation        ...        1.342 sec (=   0.022 min)  11.1 %
SCF iterations                  ...       10.696 sec (=   0.178 min)  88.9 %
                             ****ORCA TERMINATED NORMALLY****
TOTAL RUN TIME: 0 days 0 hours 0 minutes 14 seconds 646 msec
