
                                 *****************
                                 * O   R   C   A *
                                 *****************

           --- An Ab Initio, DFT and Semiempirical electronic structure package ---

                  #######################################################
                  #                        -***-                        #
                  #          Department of theory and spectroscopy      #
                  #               Directorship: Frank Neese             #
                  #        Max Planck Institute fuer Kohlenforschung    #
                  #                Kaiser Wilhelm Platz 1               #
                  #                 D-45470 Muelheim/Ruhr               #
                  #                      Germany                        #
                  #                                                     #
                  #                  All rights reserved                #
                  #                        -***-                        #
                  #######################################################


                         Program Version 4.2.0 -  RELEASE  -


 With contributions from (in alphabetic order):
   Daniel Aravena         : Magnetic Suceptibility
   Michael Atanasov       : Ab Initio Ligand Field Theory (pilot matlab implementation)
   Alexander A. Auer      : GIAO ZORA, VPT2
   Ute Becker             : Parallelization
   Giovanni Bistoni       : ED, misc. LED, open-shell LED, HFLED
   Martin Brehm           : Molecular dynamics
   Dmytro Bykov           : SCF Hessian
   Vijay G. Chilkuri      : MRCI spin determinant printing, contributions to CSF-ICE
   Dipayan Datta          : RHF DLPNO-CCSD density
   Achintya Kumar Dutta   : EOM-CC, STEOM-CC
   Dmitry Ganyushin       : Spin-Orbit,Spin-Spin,Magnetic field MRCI
   Miquel Garcia          : C-PCM Hessian, Gaussian charge scheme
   Yang Guo               : DLPNO-NEVPT2, CIM, IAO-localization
   Andreas Hansen         : Spin unrestricted coupled pair/coupled cluster methods
   Benjamin Helmich-Paris : CASSCF linear response (MC-RPA)
   Lee Huntington         : MR-EOM, pCC
   Robert Izsak           : Overlap fitted RIJCOSX, COSX-SCS-MP3, EOM
   Christian Kollmar      : KDIIS, OOCD, Brueckner-CCSD(T), CCSD density
   Simone Kossmann        : Meta GGA functionals, TD-DFT gradient, OOMP2, MP2 Hessian
   Martin Krupicka        : AUTO-CI
   Lucas Lang             : DCDCAS
   Dagmar Lenk            : GEPOL surface, SMD
   Dimitrios Liakos       : Extrapolation schemes; Compound Job, initial MDCI parallelization
   Dimitrios Manganas     : Further ROCIS development; embedding schemes
   Dimitrios Pantazis     : SARC Basis sets
   Taras Petrenko         : DFT Hessian,TD-DFT gradient, ASA, ECA, R-Raman, ABS, FL, XAS/XES, NRVS
   Peter Pinski           : DLPNO-MP2, DLPNO-MP2 Gradient
   Christoph Reimann      : Effective Core Potentials
   Marius Retegan         : Local ZFS, SOC
   Christoph Riplinger    : Optimizer, TS searches, QM/MM, DLPNO-CCSD(T), (RO)-DLPNO pert. Triples
   Tobias Risthaus        : Range-separated hybrids, TD-DFT gradient, RPA, STAB
   Michael Roemelt        : Original ROCIS implementation
   Masaaki Saitow         : Open-shell DLPNO-CCSD energy and density
   Barbara Sandhoefer     : DKH picture change effects
   Avijit Sen             : IP-ROCIS
   Kantharuban Sivalingam : CASSCF convergence, NEVPT2, FIC-MRCI
   Bernardo de Souza      : ESD, SOC TD-DFT
   Georgi Stoychev        : AutoAux, RI-MP2 NMR
   Willem Van den Heuvel  : Paramagnetic NMR
   Boris Wezisla          : Elementary symmetry handling
   Frank Wennmohs         : Technical directorship


 We gratefully acknowledge several colleagues who have allowed us to
 interface, adapt or use parts of their codes:
   Stefan Grimme, W. Hujo, H. Kruse,             : VdW corrections, initial TS optimization,
                  C. Bannwarth                     DFT functionals, gCP, sTDA/sTD-DF
   Ed Valeev, F. Pavosevic, A. Kumar             : LibInt (2-el integral package), F12 methods
   Garnet Chan, S. Sharma, J. Yang, R. Olivares  : DMRG
   Ulf Ekstrom                                   : XCFun DFT Library
   Mihaly Kallay                                 : mrcc  (arbitrary order and MRCC methods)
   Andreas Klamt, Michael Diedenhofen            : otool_cosmo (COSMO solvation model)
   Jiri Pittner, Ondrej Demel                    : Mk-CCSD
   Frank Weinhold                                : gennbo (NPA and NBO analysis)
   Christopher J. Cramer and Donald G. Truhlar   : smd solvation model
   Lars Goerigk                                  : TD-DFT with DH, B97 family of functionals
   V. Asgeirsson, H. Jonsson                     : NEB implementation
   FAccTs GmbH                                   : IRC, NEB, NEB-TS, Multilevel, MM, QM/MM, CI optimization
   S Lehtola, MJT Oliveira, MAL Marques          : LibXC Library


 Your calculation uses the libint2 library for the computation of 2-el integrals
 For citations please refer to: http://libint.valeyev.net

 Your ORCA version has been built with support for libXC version: 4.2.3
 For citations please refer to: https://tddft.org/programs/libxc/

 This ORCA versions uses:
   CBLAS   interface :  Fast vector & matrix operations
   LAPACKE interface :  Fast linear algebra routines
   SCALAPACK package :  Parallel linear algebra routines


Your calculation utilizes the atom-pairwise dispersion correction
with the Becke-Johnson damping scheme (D3BJ)
Cite in your paper:
S.Grimme, S.Ehrlich, L.Goerigk, J Comput Chem, (2011), 32, 1456–1465 
S.Grimme, J.Antony, S.Ehrlich and H.Krieg, J.Chem.Phys., 132, (2010), 154104 
   

----- Orbital basis set information -----
Your calculation utilizes the basis: def2-TZVPPD
   F. Weigend and R. Ahlrichs, Phys. Chem. Chem. Phys. 7, 3297 (2005).
   D. Rappoport and F. Furche, J. Chem. Phys. 133 134105 (2010).

----- AuxJK basis set information -----
Your calculation utilizes the auxiliary basis: def2/JK
   H-Ba, Hf-Rn: F. Weigend, J. Comput. Chem. 29, 167 (2008).

================================================================================
                                        WARNINGS
                       Please study these warnings very carefully!
================================================================================


INFO   : the flag for use of LIBINT has been found!

================================================================================
                                       INPUT FILE
================================================================================
NAME = alcl.in
|  1> #
|  2> # alcl TPSSh-D3BJ/Def2-TZVPPD
|  3> #
|  4> ! tpssh d3bj def2-tzvppd def2/jk grid4 nofinalgrid
|  5> 
|  6> *xyz 0 1
|  7> Cl         0.00000        0.00000       -1.07053
|  8> Al         0.00000        0.00000        1.07053
|  9> *
| 10> 
| 11> %maxcore 5000
| 12> 
| 13> %pal
| 14> nprocs = 28
| 15> end
| 16> 
| 17> 
| 18>                          ****END OF INPUT****
================================================================================

                       ****************************
                       * Single Point Calculation *
                       ****************************

---------------------------------
CARTESIAN COORDINATES (ANGSTROEM)
---------------------------------
  Cl     0.000000    0.000000   -1.070530
  Al     0.000000    0.000000    1.070530

----------------------------
CARTESIAN COORDINATES (A.U.)
----------------------------
  NO LB      ZA    FRAG     MASS         X           Y           Z
   0 Cl   17.0000    0    35.453    0.000000    0.000000   -2.023009
   1 Al   13.0000    0    26.982    0.000000    0.000000    2.023009

--------------------------------
INTERNAL COORDINATES (ANGSTROEM)
--------------------------------
 Cl     0   0   0     0.000000000000     0.00000000     0.00000000
 Al     1   0   0     2.141060000000     0.00000000     0.00000000

---------------------------
INTERNAL COORDINATES (A.U.)
---------------------------
 Cl     0   0   0     0.000000000000     0.00000000     0.00000000
 Al     1   0   0     4.046017036293     0.00000000     0.00000000

---------------------
BASIS SET INFORMATION
---------------------
There are 2 groups of distinct atoms

 Group   1 Type Cl  : 15s10p4d1f contracted to 6s6p4d1f pattern {732111/511111/1111/1}
 Group   2 Type Al  : 15s9p4d1f contracted to 6s5p4d1f pattern {732111/51111/1111/1}

Atom   0Cl   basis set group =>   1
Atom   1Al   basis set group =>   2
----------------------------------
AUXILIARY/JK BASIS SET INFORMATION
----------------------------------
There are 2 groups of distinct atoms

 Group   1 Type Cl  : 16s12p10d4f1g contracted to 13s11p9d4f1g pattern {4111111111111/21111111111/211111111/1111/1}
 Group   2 Type Al  : 16s12p10d4f1g contracted to 13s11p9d4f1g pattern {4111111111111/21111111111/211111111/1111/1}

Atom   0Cl   basis set group =>   1
Atom   1Al   basis set group =>   2


           ************************************************************
           *        Program running with 28 parallel MPI-processes    *
           *              working on a common directory               *
           ************************************************************
------------------------------------------------------------------------------
                           ORCA GTO INTEGRAL CALCULATION
------------------------------------------------------------------------------

                         BASIS SET STATISTICS AND STARTUP INFO

 # of primitive gaussian shells          ...   59
 # of primitive gaussian functions       ...  141
 # of contracted shells                  ...   33
 # of contracted basis functions         ...   99
 Highest angular momentum                ...    3
 Maximum contraction depth               ...    7
 Integral package used                   ... LIBINT
 Integral threshhold            Thresh   ...  1.000e-10
 Primitive cut-off              TCut     ...  1.000e-11


------------------------------ INTEGRAL EVALUATION ----------------------------


 * One electron integrals 
 Pre-screening matrix                    ... done
 Shell pair data                         ... done (   0.000 sec)



           ************************************************************
           *        Program running with 28 parallel MPI-processes    *
           *              working on a common directory               *
           ************************************************************
-------------------------------------------------------------------------------
                                 ORCA SCF
-------------------------------------------------------------------------------

------------
SCF SETTINGS
------------
Hamiltonian:
 Density Functional     Method          .... DFT(GTOs)
 Exchange Functional    Exchange        .... TPSS
 Correlation Functional Correlation     .... TPSS
 LDA part of GGA corr.  LDAOpt          .... PW91-LDA
 Gradients option       PostSCFGGA      .... off
 Hybrid DFT is turned on
   Fraction HF Exchange ScalHFX         ....  0.100000
   Scaling of DF-GGA-X  ScalDFX         ....  0.900000
   Scaling of DF-GGA-C  ScalDFC         ....  1.000000
   Scaling of DF-LDA-C  ScalLDAC        ....  1.000000
   Perturbative correction              ....  0.000000
   Density functional embedding theory  .... OFF
   NL short-range parameter             ....  5.200000


General Settings:
 Integral files         IntName         .... alcl
 Hartree-Fock type      HFTyp           .... RHF
 Total Charge           Charge          ....    0
 Multiplicity           Mult            ....    1
 Number of Electrons    NEL             ....   30
 Basis Dimension        Dim             ....   99
 Nuclear Repulsion      ENuc            ....     54.6216187469 Eh

Convergence Acceleration:
 DIIS                   CNVDIIS         .... on
   Start iteration      DIISMaxIt       ....    12
   Startup error        DIISStart       ....  0.200000
   # of expansion vecs  DIISMaxEq       ....     5
   Bias factor          DIISBfac        ....   1.050
   Max. coefficient     DIISMaxC        ....  10.000
 Newton-Raphson         CNVNR           .... off
 SOSCF                  CNVSOSCF        .... on
   Start iteration      SOSCFMaxIt      ....   150
   Startup grad/error   SOSCFStart      ....  0.003300
 Level Shifting         CNVShift        .... on
   Level shift para.    LevelShift      ....    0.2500
   Turn off err/grad.   ShiftErr        ....    0.0010
 Zerner damping         CNVZerner       .... off
 Static damping         CNVDamp         .... on
   Fraction old density DampFac         ....    0.7000
   Max. Damping (<1)    DampMax         ....    0.9800
   Min. Damping (>=0)   DampMin         ....    0.0000
   Turn off err/grad.   DampErr         ....    0.1000
 Fernandez-Rico         CNVRico         .... off

SCF Procedure:
 Maximum # iterations   MaxIter         ....   125
 SCF integral mode      SCFMode         .... Direct
   Integral package                     .... LIBINT
 Reset frequency        DirectResetFreq ....    20
 Integral Threshold     Thresh          ....  1.000e-10 Eh
 Primitive CutOff       TCut            ....  1.000e-11 Eh

Convergence Tolerance:
 Convergence Check Mode ConvCheckMode   .... Total+1el-Energy
 Convergence forced     ConvForced      .... 0
 Energy Change          TolE            ....  1.000e-06 Eh
 1-El. energy change                    ....  1.000e-03 Eh
 Orbital Gradient       TolG            ....  5.000e-05
 Orbital Rotation angle TolX            ....  5.000e-05
 DIIS Error             TolErr          ....  1.000e-06


Diagonalization of the overlap matrix:
Smallest eigenvalue                        ... 1.514e-03
Time for diagonalization                   ...    0.002 sec
Threshold for overlap eigenvalues          ... 1.000e-08
Number of eigenvalues below threshold      ... 0
Time for construction of square roots      ...    0.029 sec
Total time needed                          ...    0.031 sec

-------------------
DFT GRID GENERATION
-------------------

General Integration Accuracy     IntAcc      ...  4.670
Radial Grid Type                 RadialGrid  ... Gauss-Chebyshev
Angular Grid (max. acc.)         AngularGrid ... Lebedev-302
Angular grid pruning method      GridPruning ... 3 (G Style)
Weight generation scheme         WeightScheme... Becke
Basis function cutoff            BFCut       ...    1.0000e-10
Integration weight cutoff        WCut        ...    1.0000e-14
Grids for H and He will be reduced by one unit

# of grid points (after initial pruning)     ...  13584 (   0.0 sec)
# of grid points (after weights+screening)   ...  13557 (   0.0 sec)
nearest neighbour list constructed           ...    0.0 sec
Grid point re-assignment to atoms done       ...    0.0 sec
Grid point division into batches done        ...    0.1 sec
Reduced shell lists constructed in    0.1 sec

Total number of grid points                  ...    13557
Total number of batches                      ...      213
Average number of points per batch           ...       63
Average number of grid points per atom       ...     6778
Average number of shells per batch           ...     7.33 (22.22%)
Average number of basis functions per batch  ...    21.33 (21.55%)
Average number of large shells per batch     ...     5.56 (75.76%)
Average number of large basis fcns per batch ...    15.56 (72.92%)
Maximum spatial batch extension              ...  19.71, 19.71, 14.28 au
Average spatial batch extension              ...   0.68,  0.67,  0.43 au

Time for grid setup =    0.144 sec

------------------------------
INITIAL GUESS: MODEL POTENTIAL
------------------------------
Loading Hartree-Fock densities                     ... done
Calculating cut-offs                               ... done
Setting up the integral package                    ... done
Initializing the effective Hamiltonian             ... done
Starting the Coulomb interaction                   ... done (   0.0 sec)
Reading the grid                                   ... done
Mapping shells                                     ... done
Starting the XC term evaluation                    ... done (   0.0 sec)
  promolecular density results
     # of electrons  =     29.999999515
     EX              =    -45.373285072
     EC              =     -1.120222505
     EX+EC           =    -46.493507576
Transforming the Hamiltonian                       ... done (   0.0 sec)
Diagonalizing the Hamiltonian                      ... done (   0.0 sec)
Back transforming the eigenvectors                 ... done (   0.0 sec)
Now organizing SCF variables                       ... done
                      ------------------
                      INITIAL GUESS DONE (   0.3 sec)
                      ------------------
--------------
SCF ITERATIONS
--------------
ITER       Energy         Delta-E        Max-DP      RMS-DP      [F,P]     Damp
               ***  Starting incremental Fock matrix formation  ***
  0   -702.7061965001   0.000000000000 0.05945162  0.00110355  0.0924182 0.7000
  1   -702.7159030254  -0.009706525259 0.03600691  0.00079218  0.0498999 0.7000
                               ***Turning on DIIS***
  2   -702.7201338729  -0.004230847495 0.04779170  0.00141651  0.0247644 0.0000
  3   -702.7250569323  -0.004923059378 0.02882169  0.00061729  0.0290384 0.0000
  4   -702.7272864042  -0.002229471960 0.00370805  0.00014951  0.0050393 0.0000
                      *** Initiating the SOSCF procedure ***
                           *** Shutting down DIIS ***
                      *** Re-Reading the Fockian *** 
                      *** Removing any level shift *** 
ITER      Energy       Delta-E        Grad      Rot      Max-DP    RMS-DP
  5   -702.72740955  -0.0001231432  0.000597  0.000597  0.001055  0.000047
               *** Restarting incremental Fock matrix formation ***
  6   -702.72742479  -0.0000152467  0.000279  0.001157  0.000977  0.000037
  7   -702.72742599  -0.0000011981  0.000247  0.000352  0.000944  0.000023
  8   -702.72742716  -0.0000011643  0.000078  0.000094  0.000341  0.000008
  9   -702.72742722  -0.0000000624  0.000050  0.000052  0.000121  0.000002
                 **** Energy Check signals convergence ****
              ***Rediagonalizing the Fockian in SOSCF/NRSCF***

               *****************************************************
               *                     SUCCESS                       *
               *           SCF CONVERGED AFTER  10 CYCLES          *
               *****************************************************


----------------
TOTAL SCF ENERGY
----------------

Total Energy       :         -702.72742725 Eh          -19122.18545 eV

Components:
Nuclear Repulsion  :           54.62161875 Eh            1486.32981 eV
Electronic Energy  :         -757.34904600 Eh          -20608.51526 eV
One Electron Energy:        -1081.76096767 Eh          -29436.21244 eV
Two Electron Energy:          324.41192167 Eh            8827.69718 eV

Virial components:
Potential Energy   :        -1404.18518429 Eh          -38209.82141 eV
Kinetic Energy     :          701.45775704 Eh           19087.63597 eV
Virial Ratio       :            2.00181005


DFT components:
N(Alpha)           :       15.000001956879 electrons
N(Beta)            :       15.000001956879 electrons
N(Total)           :       30.000003913757 electrons
E(X)               :      -41.217548714147 Eh       
E(C)               :       -1.131924153036 Eh       
E(XC)              :      -42.349472867183 Eh       
DFET-embed. en.    :        0.000000000000 Eh       

---------------
SCF CONVERGENCE
---------------

  Last Energy change         ...   -3.0884e-08  Tolerance :   1.0000e-06
  Last MAX-Density change    ...    6.6374e-05  Tolerance :   1.0000e-05
  Last RMS-Density change    ...    1.2944e-06  Tolerance :   1.0000e-06
  Last Orbital Gradient      ...    1.0899e-05  Tolerance :   5.0000e-05
  Last Orbital Rotation      ...    1.9448e-05  Tolerance :   5.0000e-05

             **** THE GBW FILE WAS UPDATED (alcl.gbw) ****
             **** DENSITY FILE WAS UPDATED (alcl.scfp) ****
             **** ENERGY FILE WAS UPDATED (alcl.en.tmp) ****
             **** THE GBW FILE WAS UPDATED (alcl.gbw) ****
             **** DENSITY FILE WAS UPDATED (alcl.scfp) ****
----------------
ORBITAL ENERGIES
----------------

  NO   OCC          E(Eh)            E(eV) 
   0   2.0000    -101.355656     -2758.0276 
   1   2.0000     -55.938355     -1522.1600 
   2   2.0000      -9.358734      -254.6641 
   3   2.0000      -7.101234      -193.2344 
   4   2.0000      -7.099743      -193.1938 
   5   2.0000      -7.099743      -193.1938 
   6   2.0000      -4.107738      -111.7772 
   7   2.0000      -2.651732       -72.1573 
   8   2.0000      -2.651732       -72.1573 
   9   2.0000      -2.647458       -72.0410 
  10   2.0000      -0.781089       -21.2545 
  11   2.0000      -0.390924       -10.6376 
  12   2.0000      -0.315415        -8.5829 
  13   2.0000      -0.315415        -8.5829 
  14   2.0000      -0.239735        -6.5235 
  15   0.0000      -0.075238        -2.0473 
  16   0.0000      -0.075238        -2.0473 
  17   0.0000      -0.001074        -0.0292 
  18   0.0000       0.017256         0.4695 
  19   0.0000       0.051559         1.4030 
  20   0.0000       0.055647         1.5142 
  21   0.0000       0.055647         1.5142 
  22   0.0000       0.058554         1.5933 
  23   0.0000       0.058554         1.5933 
  24   0.0000       0.083805         2.2804 
  25   0.0000       0.083805         2.2804 
  26   0.0000       0.114472         3.1149 
  27   0.0000       0.150441         4.0937 
  28   0.0000       0.193684         5.2704 
  29   0.0000       0.193684         5.2704 
  30   0.0000       0.197733         5.3806 
  31   0.0000       0.197733         5.3806 
  32   0.0000       0.213705         5.8152 
  33   0.0000       0.239160         6.5079 
  34   0.0000       0.239164         6.5080 
  35   0.0000       0.246875         6.7178 
  36   0.0000       0.246875         6.7178 
  37   0.0000       0.258905         7.0452 
  38   0.0000       0.333796         9.0831 
  39   0.0000       0.333796         9.0831 
  40   0.0000       0.359926         9.7941 
  41   0.0000       0.411498        11.1974 
  42   0.0000       0.525499        14.2995 
  43   0.0000       0.525499        14.2995 
  44   0.0000       0.549732        14.9590 
  45   0.0000       0.584734        15.9114 
  46   0.0000       0.584734        15.9114 
  47   0.0000       0.585827        15.9412 
  48   0.0000       0.585831        15.9413 
  49   0.0000       0.727107        19.7856 
  50   0.0000       0.727107        19.7856 
  51   0.0000       0.754359        20.5272 
  52   0.0000       0.754373        20.5275 
  53   0.0000       0.755078        20.5467 
  54   0.0000       0.784845        21.3567 
  55   0.0000       0.784846        21.3567 
  56   0.0000       0.794062        21.6075 
  57   0.0000       0.794062        21.6075 
  58   0.0000       0.841755        22.9053 
  59   0.0000       0.990451        26.9515 
  60   0.0000       0.990451        26.9515 
  61   0.0000       1.059104        28.8197 
  62   0.0000       1.098353        29.8877 
  63   0.0000       1.869910        50.8828 
  64   0.0000       1.869910        50.8828 
  65   0.0000       1.907072        51.8941 
  66   0.0000       1.907209        51.8978 
  67   0.0000       1.966405        53.5086 
  68   0.0000       1.966405        53.5086 
  69   0.0000       1.977337        53.8061 
  70   0.0000       2.096332        57.0441 
  71   0.0000       2.096332        57.0441 
  72   0.0000       2.142442        58.2988 
  73   0.0000       2.142461        58.2993 
  74   0.0000       2.214855        60.2693 
  75   0.0000       2.335067        63.5404 
  76   0.0000       2.335067        63.5404 
  77   0.0000       2.353924        64.0535 
  78   0.0000       2.353924        64.0535 
  79   0.0000       2.434600        66.2488 
  80   0.0000       2.718975        73.9871 
  81   0.0000       3.124249        85.0151 
  82   0.0000       3.124296        85.0164 
  83   0.0000       3.215787        87.5060 
  84   0.0000       3.215787        87.5060 
  85   0.0000       3.460793        94.1730 
  86   0.0000       7.062968       192.1931 
  87   0.0000       8.118121       220.9053 
  88   0.0000       8.118280       220.9096 
  89   0.0000       8.175560       222.4683 
  90   0.0000       8.175560       222.4683 
  91   0.0000       8.269022       225.0115 
  92   0.0000       9.157011       249.1749 
  93   0.0000       9.157011       249.1749 
  94   0.0000       9.454707       257.2757 
  95   0.0000      10.772297       293.1291 
  96   0.0000      10.772297       293.1291 
  97   0.0000      11.142953       303.2152 
  98   0.0000      24.871819       676.7966 

                    ********************************
                    * MULLIKEN POPULATION ANALYSIS *
                    ********************************

-----------------------
MULLIKEN ATOMIC CHARGES
-----------------------
   0 Cl:   -0.251592
   1 Al:    0.251592
Sum of atomic charges:   -0.0000000

--------------------------------
MULLIKEN REDUCED ORBITAL CHARGES
--------------------------------
  0 Cls       :     5.924926  s :     5.924926
      pz      :     3.585346  p :    11.304121
      px      :     3.859387
      py      :     3.859387
      dz2     :     0.011015  d :     0.021642
      dxz     :     0.005313
      dyz     :     0.005313
      dx2y2   :     0.000000
      dxy     :     0.000000
      f0      :     0.000477  f :     0.000904
      f+1     :     0.000214
      f-1     :     0.000214
      f+2     :     0.000000
      f-2     :     0.000000
      f+3     :     0.000000
      f-3     :     0.000000
  1 Als       :     5.921362  s :     5.921362
      pz      :     2.490050  p :     6.665876
      px      :     2.087913
      py      :     2.087913
      dz2     :     0.057791  d :     0.132140
      dxz     :     0.037174
      dyz     :     0.037174
      dx2y2   :     0.000000
      dxy     :     0.000000
      f0      :     0.009032  f :     0.029030
      f+1     :     0.009999
      f-1     :     0.009999
      f+2     :    -0.000000
      f-2     :     0.000000
      f+3     :     0.000000
      f-3     :     0.000000


                     *******************************
                     * LOEWDIN POPULATION ANALYSIS *
                     *******************************

----------------------
LOEWDIN ATOMIC CHARGES
----------------------
   0 Cl:   -0.076396
   1 Al:    0.076396

-------------------------------
LOEWDIN REDUCED ORBITAL CHARGES
-------------------------------
  0 Cls       :     5.675457  s :     5.675457
      pz      :     3.785512  p :    11.258093
      px      :     3.736291
      py      :     3.736291
      dz2     :     0.134604  d :     0.141557
      dxz     :     0.003476
      dyz     :     0.003476
      dx2y2   :     0.000000
      dxy     :     0.000000
      f0      :     0.001197  f :     0.001289
      f+1     :     0.000046
      f-1     :     0.000046
      f+2     :     0.000000
      f-2     :     0.000000
      f+3     :     0.000000
      f-3     :     0.000000
  1 Als       :     5.477368  s :     5.477368
      pz      :     2.643793  p :     6.859061
      px      :     2.107634
      py      :     2.107634
      dz2     :     0.223193  d :     0.442216
      dxz     :     0.109512
      dyz     :     0.109512
      dx2y2   :     0.000000
      dxy     :     0.000000
      f0      :     0.058877  f :     0.144959
      f+1     :     0.043041
      f-1     :     0.043041
      f+2     :     0.000000
      f-2     :     0.000000
      f+3     :     0.000000
      f-3     :     0.000000


                      *****************************
                      * MAYER POPULATION ANALYSIS *
                      *****************************

  NA   - Mulliken gross atomic population
  ZA   - Total nuclear charge
  QA   - Mulliken gross atomic charge
  VA   - Mayer's total valence
  BVA  - Mayer's bonded valence
  FA   - Mayer's free valence

  ATOM       NA         ZA         QA         VA         BVA        FA
  0 Cl    17.2516    17.0000    -0.2516     1.1122     1.1122    -0.0000
  1 Al    12.7484    13.0000     0.2516     1.1122     1.1122    -0.0000

  Mayer bond orders larger than 0.100000
B(  0-Cl,  1-Al) :   1.1122 

-------
TIMINGS
-------

Total SCF time: 0 days 0 hours 0 min 14 sec 

Total time                  ....      14.496 sec
Sum of individual times     ....      14.001 sec  ( 96.6%)

Fock matrix formation       ....      13.485 sec  ( 93.0%)
  XC integration            ....      11.420 sec  ( 84.7% of F)
    Basis function eval.    ....       0.013 sec  (  0.1% of XC)
    Density eval.           ....       0.020 sec  (  0.2% of XC)
    XC-Functional eval.     ....       0.018 sec  (  0.2% of XC)
    XC-Potential eval.      ....       0.032 sec  (  0.3% of XC)
Diagonalization             ....       0.076 sec  (  0.5%)
Density matrix formation    ....       0.008 sec  (  0.1%)
Population analysis         ....       0.079 sec  (  0.5%)
Initial guess               ....       0.139 sec  (  1.0%)
Orbital Transformation      ....       0.000 sec  (  0.0%)
Orbital Orthonormalization  ....       0.000 sec  (  0.0%)
DIIS solution               ....       0.037 sec  (  0.3%)
SOSCF solution              ....       0.033 sec  (  0.2%)
Grid generation             ....       0.144 sec  (  1.0%)


-------------------------------------------------------------------------------
                          DFT DISPERSION CORRECTION                            
                                                                               
                              DFTD3 V3.1  Rev 1                                
                          USING Becke-Johnson damping                          
-------------------------------------------------------------------------------
The TPSSH functional is recognized
Active option DFTDOPT                   ...         4   

molecular C6(AA) [au] = 880.094212 


            DFT-D V3
 parameters
 s6 scaling factor         :     1.0000 
 a1 scaling factor         :     0.4529 
 s8 scaling factor         :     2.2382 
 a2 scaling factor         :     4.6550 
 ad hoc parameters k1-k3   :    16.0000     1.3333    -4.0000 

 Edisp/kcal,au: -1.077548228799  -0.001717182223 
 E6   /kcal   :  -0.347822267 
 E8   /kcal   :  -0.729725962 
 % E8         :  67.720955986 

-------------------------   ----------------
Dispersion correction           -0.001717182
-------------------------   ----------------


-------------------------   --------------------
FINAL SINGLE POINT ENERGY      -702.729144432017
-------------------------   --------------------


                            ***************************************
                            *     ORCA property calculations      *
                            ***************************************

                                    ---------------------
                                    Active property flags
                                    ---------------------
   (+) Dipole Moment


------------------------------------------------------------------------------
                       ORCA ELECTRIC PROPERTIES CALCULATION
------------------------------------------------------------------------------

Dipole Moment Calculation                       ... on
Quadrupole Moment Calculation                   ... off
Polarizability Calculation                      ... off
GBWName                                         ... alcl.gbw
Electron density file                           ... alcl.scfp
The origin for moment calculation is the CENTER OF MASS  = ( 0.000000,  0.000000 -0.274476)

-------------
DIPOLE MOMENT
-------------
                                X             Y             Z
Electronic contribution:      0.00000       0.00000       0.42226
Nuclear contribution   :      0.00000       0.00000       0.14224
                        -----------------------------------------
Total Dipole Moment    :      0.00000       0.00000       0.56451
                        -----------------------------------------
Magnitude (a.u.)       :      0.56451
Magnitude (Debye)      :      1.43486



--------------------
Rotational spectrum 
--------------------
 
Rotational constants in cm-1:     0.000000     0.240016     0.240016 
Rotational constants in MHz :     0.000000  7195.498973  7195.498973 

 Dipole components along the rotational axes: 
x,y,z [a.u.] :     0.564507     0.000000     0.000000 
x,y,z [Debye]:     1.434862     0.000000     0.000000 

 

Timings for individual modules:

Sum of individual times         ...       16.163 sec (=   0.269 min)
GTO integral calculation        ...        1.068 sec (=   0.018 min)   6.6 %
SCF iterations                  ...       15.095 sec (=   0.252 min)  93.4 %
                             ****ORCA TERMINATED NORMALLY****
TOTAL RUN TIME: 0 days 0 hours 0 minutes 16 seconds 969 msec
