
                                 *****************
                                 * O   R   C   A *
                                 *****************

           --- An Ab Initio, DFT and Semiempirical electronic structure package ---

                  #######################################################
                  #                        -***-                        #
                  #          Department of theory and spectroscopy      #
                  #               Directorship: Frank Neese             #
                  #        Max Planck Institute fuer Kohlenforschung    #
                  #                Kaiser Wilhelm Platz 1               #
                  #                 D-45470 Muelheim/Ruhr               #
                  #                      Germany                        #
                  #                                                     #
                  #                  All rights reserved                #
                  #                        -***-                        #
                  #######################################################


                         Program Version 4.2.0 -  RELEASE  -


 With contributions from (in alphabetic order):
   Daniel Aravena         : Magnetic Suceptibility
   Michael Atanasov       : Ab Initio Ligand Field Theory (pilot matlab implementation)
   Alexander A. Auer      : GIAO ZORA, VPT2
   Ute Becker             : Parallelization
   Giovanni Bistoni       : ED, misc. LED, open-shell LED, HFLED
   Martin Brehm           : Molecular dynamics
   Dmytro Bykov           : SCF Hessian
   Vijay G. Chilkuri      : MRCI spin determinant printing, contributions to CSF-ICE
   Dipayan Datta          : RHF DLPNO-CCSD density
   Achintya Kumar Dutta   : EOM-CC, STEOM-CC
   Dmitry Ganyushin       : Spin-Orbit,Spin-Spin,Magnetic field MRCI
   Miquel Garcia          : C-PCM Hessian, Gaussian charge scheme
   Yang Guo               : DLPNO-NEVPT2, CIM, IAO-localization
   Andreas Hansen         : Spin unrestricted coupled pair/coupled cluster methods
   Benjamin Helmich-Paris : CASSCF linear response (MC-RPA)
   Lee Huntington         : MR-EOM, pCC
   Robert Izsak           : Overlap fitted RIJCOSX, COSX-SCS-MP3, EOM
   Christian Kollmar      : KDIIS, OOCD, Brueckner-CCSD(T), CCSD density
   Simone Kossmann        : Meta GGA functionals, TD-DFT gradient, OOMP2, MP2 Hessian
   Martin Krupicka        : AUTO-CI
   Lucas Lang             : DCDCAS
   Dagmar Lenk            : GEPOL surface, SMD
   Dimitrios Liakos       : Extrapolation schemes; Compound Job, initial MDCI parallelization
   Dimitrios Manganas     : Further ROCIS development; embedding schemes
   Dimitrios Pantazis     : SARC Basis sets
   Taras Petrenko         : DFT Hessian,TD-DFT gradient, ASA, ECA, R-Raman, ABS, FL, XAS/XES, NRVS
   Peter Pinski           : DLPNO-MP2, DLPNO-MP2 Gradient
   Christoph Reimann      : Effective Core Potentials
   Marius Retegan         : Local ZFS, SOC
   Christoph Riplinger    : Optimizer, TS searches, QM/MM, DLPNO-CCSD(T), (RO)-DLPNO pert. Triples
   Tobias Risthaus        : Range-separated hybrids, TD-DFT gradient, RPA, STAB
   Michael Roemelt        : Original ROCIS implementation
   Masaaki Saitow         : Open-shell DLPNO-CCSD energy and density
   Barbara Sandhoefer     : DKH picture change effects
   Avijit Sen             : IP-ROCIS
   Kantharuban Sivalingam : CASSCF convergence, NEVPT2, FIC-MRCI
   Bernardo de Souza      : ESD, SOC TD-DFT
   Georgi Stoychev        : AutoAux, RI-MP2 NMR
   Willem Van den Heuvel  : Paramagnetic NMR
   Boris Wezisla          : Elementary symmetry handling
   Frank Wennmohs         : Technical directorship


 We gratefully acknowledge several colleagues who have allowed us to
 interface, adapt or use parts of their codes:
   Stefan Grimme, W. Hujo, H. Kruse,             : VdW corrections, initial TS optimization,
                  C. Bannwarth                     DFT functionals, gCP, sTDA/sTD-DF
   Ed Valeev, F. Pavosevic, A. Kumar             : LibInt (2-el integral package), F12 methods
   Garnet Chan, S. Sharma, J. Yang, R. Olivares  : DMRG
   Ulf Ekstrom                                   : XCFun DFT Library
   Mihaly Kallay                                 : mrcc  (arbitrary order and MRCC methods)
   Andreas Klamt, Michael Diedenhofen            : otool_cosmo (COSMO solvation model)
   Jiri Pittner, Ondrej Demel                    : Mk-CCSD
   Frank Weinhold                                : gennbo (NPA and NBO analysis)
   Christopher J. Cramer and Donald G. Truhlar   : smd solvation model
   Lars Goerigk                                  : TD-DFT with DH, B97 family of functionals
   V. Asgeirsson, H. Jonsson                     : NEB implementation
   FAccTs GmbH                                   : IRC, NEB, NEB-TS, Multilevel, MM, QM/MM, CI optimization
   S Lehtola, MJT Oliveira, MAL Marques          : LibXC Library


 Your calculation uses the libint2 library for the computation of 2-el integrals
 For citations please refer to: http://libint.valeyev.net

 Your ORCA version has been built with support for libXC version: 4.2.3
 For citations please refer to: https://tddft.org/programs/libxc/

 This ORCA versions uses:
   CBLAS   interface :  Fast vector & matrix operations
   LAPACKE interface :  Fast linear algebra routines
   SCALAPACK package :  Parallel linear algebra routines


Your calculation utilizes the atom-pairwise dispersion correction
with the Becke-Johnson damping scheme (D3BJ)
Cite in your paper:
S.Grimme, S.Ehrlich, L.Goerigk, J Comput Chem, (2011), 32, 1456–1465 
S.Grimme, J.Antony, S.Ehrlich and H.Krieg, J.Chem.Phys., 132, (2010), 154104 
   

----- Orbital basis set information -----
Your calculation utilizes the basis: def2-TZVPPD
   F. Weigend and R. Ahlrichs, Phys. Chem. Chem. Phys. 7, 3297 (2005).
   D. Rappoport and F. Furche, J. Chem. Phys. 133 134105 (2010).

----- AuxJK basis set information -----
Your calculation utilizes the auxiliary basis: def2/JK
   H-Ba, Hf-Rn: F. Weigend, J. Comput. Chem. 29, 167 (2008).

================================================================================
                                        WARNINGS
                       Please study these warnings very carefully!
================================================================================


WARNING: your system is open-shell and RHF/RKS was chosen
  ===> : WILL SWITCH to UHF/UKS


INFO   : the flag for use of LIBINT has been found!

================================================================================
                                       INPUT FILE
================================================================================
NAME = CH3.in
|  1> #
|  2> # CH3 TPSSh-D3BJ/Def2-TZVPPD
|  3> #
|  4> ! tpssh d3bj def2-tzvppd def2/jk grid4 nofinalgrid
|  5> 
|  6> *xyz 0 2
|  7> C          0.00000        0.00000        0.00000
|  8> H          0.00000        0.00000        1.07732
|  9> H          0.93298        0.00000       -0.53866
| 10> H         -0.93298        0.00000       -0.53866
| 11> *
| 12> 
| 13> %maxcore 5000
| 14> 
| 15> %pal
| 16> nprocs = 28
| 17> end
| 18> 
| 19> 
| 20>                          ****END OF INPUT****
================================================================================

                       ****************************
                       * Single Point Calculation *
                       ****************************

---------------------------------
CARTESIAN COORDINATES (ANGSTROEM)
---------------------------------
  C      0.000000    0.000000    0.000000
  H      0.000000    0.000000    1.077320
  H      0.932980    0.000000   -0.538660
  H     -0.932980    0.000000   -0.538660

----------------------------
CARTESIAN COORDINATES (A.U.)
----------------------------
  NO LB      ZA    FRAG     MASS         X           Y           Z
   0 C     6.0000    0    12.011    0.000000    0.000000    0.000000
   1 H     1.0000    0     1.008    0.000000    0.000000    2.035840
   2 H     1.0000    0     1.008    1.763077    0.000000   -1.017920
   3 H     1.0000    0     1.008   -1.763077    0.000000   -1.017920

--------------------------------
INTERNAL COORDINATES (ANGSTROEM)
--------------------------------
 C      0   0   0     0.000000000000     0.00000000     0.00000000
 H      1   0   0     1.077320000000     0.00000000     0.00000000
 H      1   2   0     1.077314381228   120.00017253     0.00000000
 H      1   2   3     1.077314381228   120.00017253   180.00000121

---------------------------
INTERNAL COORDINATES (A.U.)
---------------------------
 C      0   0   0     0.000000000000     0.00000000     0.00000000
 H      1   0   0     2.035839758596     0.00000000     0.00000000
 H      1   2   0     2.035829140655   120.00017253     0.00000000
 H      1   2   3     2.035829140655   120.00017253   180.00000121

---------------------
BASIS SET INFORMATION
---------------------
There are 2 groups of distinct atoms

 Group   1 Type C   : 12s6p3d1f contracted to 6s3p3d1f pattern {621111/411/111/1}
 Group   2 Type H   : 5s3p1d contracted to 3s3p1d pattern {311/111/1}

Atom   0C    basis set group =>   1
Atom   1H    basis set group =>   2
Atom   2H    basis set group =>   2
Atom   3H    basis set group =>   2
----------------------------------
AUXILIARY/JK BASIS SET INFORMATION
----------------------------------
There are 2 groups of distinct atoms

 Group   1 Type C   : 14s10p6d2f1g contracted to 10s8p5d1f1g pattern {5111111111/31111111/21111/2/1}
 Group   2 Type H   : 4s2p2d contracted to 2s2p2d pattern {31/11/11}

Atom   0C    basis set group =>   1
Atom   1H    basis set group =>   2
Atom   2H    basis set group =>   2
Atom   3H    basis set group =>   2


           ************************************************************
           *        Program running with 28 parallel MPI-processes    *
           *              working on a common directory               *
           ************************************************************
------------------------------------------------------------------------------
                           ORCA GTO INTEGRAL CALCULATION
------------------------------------------------------------------------------

                         BASIS SET STATISTICS AND STARTUP INFO

 # of primitive gaussian shells          ...   49
 # of primitive gaussian functions       ...  109
 # of contracted shells                  ...   34
 # of contracted basis functions         ...   88
 Highest angular momentum                ...    3
 Maximum contraction depth               ...    6
 Integral package used                   ... LIBINT
 Integral threshhold            Thresh   ...  1.000e-10
 Primitive cut-off              TCut     ...  1.000e-11


------------------------------ INTEGRAL EVALUATION ----------------------------


 * One electron integrals 
 Pre-screening matrix                    ... done
 Shell pair data                         ... done (   0.000 sec)



           ************************************************************
           *        Program running with 28 parallel MPI-processes    *
           *              working on a common directory               *
           ************************************************************
-------------------------------------------------------------------------------
                                 ORCA SCF
-------------------------------------------------------------------------------

------------
SCF SETTINGS
------------
Hamiltonian:
 Density Functional     Method          .... DFT(GTOs)
 Exchange Functional    Exchange        .... TPSS
 Correlation Functional Correlation     .... TPSS
 LDA part of GGA corr.  LDAOpt          .... PW91-LDA
 Gradients option       PostSCFGGA      .... off
 Hybrid DFT is turned on
   Fraction HF Exchange ScalHFX         ....  0.100000
   Scaling of DF-GGA-X  ScalDFX         ....  0.900000
   Scaling of DF-GGA-C  ScalDFC         ....  1.000000
   Scaling of DF-LDA-C  ScalLDAC        ....  1.000000
   Perturbative correction              ....  0.000000
   Density functional embedding theory  .... OFF
   NL short-range parameter             ....  5.200000


General Settings:
 Integral files         IntName         .... CH3
 Hartree-Fock type      HFTyp           .... UHF
 Total Charge           Charge          ....    0
 Multiplicity           Mult            ....    2
 Number of Electrons    NEL             ....    9
 Basis Dimension        Dim             ....   88
 Nuclear Repulsion      ENuc            ....      9.6923735442 Eh

Convergence Acceleration:
 DIIS                   CNVDIIS         .... on
   Start iteration      DIISMaxIt       ....    12
   Startup error        DIISStart       ....  0.200000
   # of expansion vecs  DIISMaxEq       ....     5
   Bias factor          DIISBfac        ....   1.050
   Max. coefficient     DIISMaxC        ....  10.000
 Newton-Raphson         CNVNR           .... off
 SOSCF                  CNVSOSCF        .... off
 Level Shifting         CNVShift        .... on
   Level shift para.    LevelShift      ....    0.2500
   Turn off err/grad.   ShiftErr        ....    0.0010
 Zerner damping         CNVZerner       .... off
 Static damping         CNVDamp         .... on
   Fraction old density DampFac         ....    0.7000
   Max. Damping (<1)    DampMax         ....    0.9800
   Min. Damping (>=0)   DampMin         ....    0.0000
   Turn off err/grad.   DampErr         ....    0.1000
 Fernandez-Rico         CNVRico         .... off

SCF Procedure:
 Maximum # iterations   MaxIter         ....   125
 SCF integral mode      SCFMode         .... Direct
   Integral package                     .... LIBINT
 Reset frequency        DirectResetFreq ....    20
 Integral Threshold     Thresh          ....  1.000e-10 Eh
 Primitive CutOff       TCut            ....  1.000e-11 Eh

Convergence Tolerance:
 Convergence Check Mode ConvCheckMode   .... Total+1el-Energy
 Convergence forced     ConvForced      .... 0
 Energy Change          TolE            ....  1.000e-06 Eh
 1-El. energy change                    ....  1.000e-03 Eh
 DIIS Error             TolErr          ....  1.000e-06


Diagonalization of the overlap matrix:
Smallest eigenvalue                        ... 6.935e-05
Time for diagonalization                   ...    0.002 sec
Threshold for overlap eigenvalues          ... 1.000e-08
Number of eigenvalues below threshold      ... 0
Time for construction of square roots      ...    0.015 sec
Total time needed                          ...    0.017 sec

-------------------
DFT GRID GENERATION
-------------------

General Integration Accuracy     IntAcc      ...  4.670
Radial Grid Type                 RadialGrid  ... Gauss-Chebyshev
Angular Grid (max. acc.)         AngularGrid ... Lebedev-302
Angular grid pruning method      GridPruning ... 3 (G Style)
Weight generation scheme         WeightScheme... Becke
Basis function cutoff            BFCut       ...    1.0000e-10
Integration weight cutoff        WCut        ...    1.0000e-14
Grids for H and He will be reduced by one unit

# of grid points (after initial pruning)     ...  16394 (   0.0 sec)
# of grid points (after weights+screening)   ...  16149 (   0.0 sec)
nearest neighbour list constructed           ...    0.0 sec
Grid point re-assignment to atoms done       ...    0.0 sec
Grid point division into batches done        ...    0.1 sec
Reduced shell lists constructed in    0.1 sec

Total number of grid points                  ...    16149
Total number of batches                      ...      253
Average number of points per batch           ...       63
Average number of grid points per atom       ...     4037
Average number of shells per batch           ...    30.00 (88.24%)
Average number of basis functions per batch  ...    79.09 (89.88%)
Average number of large shells per batch     ...    28.18 (93.94%)
Average number of large basis fcns per batch ...    74.73 (94.48%)
Maximum spatial batch extension              ...   2.57, 19.60,  2.88 au
Average spatial batch extension              ...   0.08,  0.20,  0.07 au

Time for grid setup =    0.079 sec

------------------------------
INITIAL GUESS: MODEL POTENTIAL
------------------------------
Loading Hartree-Fock densities                     ... done
Calculating cut-offs                               ... done
Setting up the integral package                    ... done
Initializing the effective Hamiltonian             ... done
Starting the Coulomb interaction                   ... done (   0.0 sec)
Reading the grid                                   ... done
Mapping shells                                     ... done
Starting the XC term evaluation                    ... done (   0.0 sec)
  promolecular density results
     # of electrons  =      8.998546177
     EX              =     -5.933475092
     EC              =     -0.258962079
     EX+EC           =     -6.192437171
Transforming the Hamiltonian                       ... done (   0.0 sec)
Diagonalizing the Hamiltonian                      ... done (   0.0 sec)
Back transforming the eigenvectors                 ... done (   0.0 sec)
Now organizing SCF variables                       ... done
                      ------------------
                      INITIAL GUESS DONE (   0.2 sec)
                      ------------------
--------------
SCF ITERATIONS
--------------
ITER       Energy         Delta-E        Max-DP      RMS-DP      [F,P]     Damp
               ***  Starting incremental Fock matrix formation  ***
  0    -39.8226559729   0.000000000000 0.01736918  0.00045640  0.1580551 0.7000
  1    -39.8398140124  -0.017158039511 0.01151976  0.00035736  0.0870434 0.7000
                               ***Turning on DIIS***
  2    -39.8475012141  -0.007687201690 0.02392291  0.00084627  0.0366228 0.0000
  3    -39.8582267997  -0.010725585545 0.01091635  0.00028655  0.0445490 0.0000
  4    -39.8613977384  -0.003170938701 0.00310240  0.00007681  0.0070880 0.0000
  5    -39.8615629742  -0.000165235817 0.00134537  0.00004595  0.0021215 0.0000
  6    -39.8615869972  -0.000024023021 0.00085903  0.00003896  0.0007618 0.0000
  7    -39.8615934026  -0.000006405432 0.00020655  0.00000721  0.0001475 0.0000
                 **** Energy Check signals convergence ****

               *****************************************************
               *                     SUCCESS                       *
               *           SCF CONVERGED AFTER   8 CYCLES          *
               *****************************************************


----------------
TOTAL SCF ENERGY
----------------

Total Energy       :          -39.86159367 Eh           -1084.68911 eV

Components:
Nuclear Repulsion  :            9.69237354 Eh             263.74289 eV
Electronic Energy  :          -49.55396722 Eh           -1348.43200 eV
One Electron Energy:          -71.69863002 Eh           -1951.01891 eV
Two Electron Energy:           22.14466281 Eh             602.58691 eV

Virial components:
Potential Energy   :          -79.51530145 Eh           -2163.72135 eV
Kinetic Energy     :           39.65370777 Eh            1079.03225 eV
Virial Ratio       :            2.00524253


DFT components:
N(Alpha)           :        4.999997834312 electrons
N(Beta)            :        3.999998598977 electrons
N(Total)           :        8.999996433288 electrons
E(X)               :       -5.631477399160 Eh       
E(C)               :       -0.259527501752 Eh       
E(XC)              :       -5.891004900912 Eh       
DFET-embed. en.    :        0.000000000000 Eh       

---------------
SCF CONVERGENCE
---------------

  Last Energy change         ...   -2.6975e-07  Tolerance :   1.0000e-06
  Last MAX-Density change    ...    4.1093e-05  Tolerance :   1.0000e-05
  Last RMS-Density change    ...    1.4851e-06  Tolerance :   1.0000e-06
  Last DIIS Error            ...    1.4368e-05  Tolerance :   1.0000e-06

             **** THE GBW FILE WAS UPDATED (CH3.gbw) ****
             **** DENSITY FILE WAS UPDATED (CH3.scfp) ****
             **** ENERGY FILE WAS UPDATED (CH3.en.tmp) ****
----------------------
UHF SPIN CONTAMINATION
----------------------

Warning: in a DFT calculation there is little theoretical justification to 
         calculate <S**2> as in Hartree-Fock theory. We will do it anyways
         but you should keep in mind that the values have only limited relevance

Expectation value of <S**2>     :     0.755290
Ideal value S*(S+1) for S=0.5   :     0.750000
Deviation                       :     0.005290

             **** THE GBW FILE WAS UPDATED (CH3.gbw) ****
             **** DENSITY FILE WAS UPDATED (CH3.scfp) ****
----------------
ORBITAL ENERGIES
----------------
                 SPIN UP ORBITALS
  NO   OCC          E(Eh)            E(eV) 
   0   1.0000     -10.123961      -275.4870 
   1   1.0000      -0.671340       -18.2681 
   2   1.0000      -0.405242       -11.0272 
   3   1.0000      -0.405242       -11.0272 
   4   1.0000      -0.223037        -6.0691 
   5   0.0000       0.012479         0.3396 
   6   0.0000       0.091700         2.4953 
   7   0.0000       0.091708         2.4955 
   8   0.0000       0.125743         3.4216 
   9   0.0000       0.130139         3.5412 
  10   0.0000       0.130140         3.5413 
  11   0.0000       0.155732         4.2377 
  12   0.0000       0.178637         4.8610 
  13   0.0000       0.178680         4.8621 
  14   0.0000       0.236208         6.4275 
  15   0.0000       0.291244         7.9252 
  16   0.0000       0.295724         8.0471 
  17   0.0000       0.295741         8.0475 
  18   0.0000       0.296489         8.0679 
  19   0.0000       0.320092         8.7101 
  20   0.0000       0.320149         8.7117 
  21   0.0000       0.407265        11.0822 
  22   0.0000       0.413590        11.2543 
  23   0.0000       0.413625        11.2553 
  24   0.0000       0.420920        11.4538 
  25   0.0000       0.439080        11.9480 
  26   0.0000       0.439207        11.9514 
  27   0.0000       0.681899        18.5554 
  28   0.0000       0.705873        19.2078 
  29   0.0000       0.705943        19.2097 
  30   0.0000       0.728562        19.8252 
  31   0.0000       0.728599        19.8262 
  32   0.0000       0.880845        23.9690 
  33   0.0000       0.880845        23.9690 
  34   0.0000       0.970193        26.4003 
  35   0.0000       0.982365        26.7315 
  36   0.0000       0.992498        27.0073 
  37   0.0000       1.207489        32.8574 
  38   0.0000       1.207525        32.8584 
  39   0.0000       1.403592        38.1937 
  40   0.0000       1.419055        38.6145 
  41   0.0000       1.419161        38.6173 
  42   0.0000       1.450976        39.4831 
  43   0.0000       1.450992        39.4835 
  44   0.0000       1.601408        43.5765 
  45   0.0000       1.714911        46.6651 
  46   0.0000       1.768919        48.1347 
  47   0.0000       1.768942        48.1354 
  48   0.0000       2.643963        71.9459 
  49   0.0000       2.644020        71.9474 
  50   0.0000       2.707067        73.6630 
  51   0.0000       2.707103        73.6640 
  52   0.0000       2.730752        74.3075 
  53   0.0000       2.923204        79.5444 
  54   0.0000       2.942404        80.0669 
  55   0.0000       2.942440        80.0679 
  56   0.0000       2.989887        81.3590 
  57   0.0000       3.009360        81.8888 
  58   0.0000       3.043537        82.8189 
  59   0.0000       3.043590        82.8203 
  60   0.0000       3.238939        88.1360 
  61   0.0000       3.523999        95.8929 
  62   0.0000       3.524174        95.8976 
  63   0.0000       3.604981        98.0965 
  64   0.0000       3.730418       101.5098 
  65   0.0000       3.730424       101.5100 
  66   0.0000       3.754794       102.1731 
  67   0.0000       3.754862       102.1750 
  68   0.0000       3.971756       108.0770 
  69   0.0000       3.986603       108.4810 
  70   0.0000       3.993944       108.6807 
  71   0.0000       4.051095       110.2359 
  72   0.0000       4.051146       110.2373 
  73   0.0000       4.195508       114.1656 
  74   0.0000       4.195517       114.1658 
  75   0.0000       4.636338       126.1612 
  76   0.0000       4.721852       128.4881 
  77   0.0000       4.721921       128.4900 
  78   0.0000       4.974831       135.3720 
  79   0.0000       4.974856       135.3727 
  80   0.0000       5.048890       137.3873 
  81   0.0000       5.048924       137.3882 
  82   0.0000       5.508867       149.9039 
  83   0.0000       5.523615       150.3052 
  84   0.0000       5.523650       150.3062 
  85   0.0000       5.713652       155.4764 
  86   0.0000       6.333631       172.3469 
  87   0.0000      23.543614       640.6543 

                 SPIN DOWN ORBITALS
  NO   OCC          E(Eh)            E(eV) 
   0   1.0000     -10.108035      -275.0536 
   1   1.0000      -0.630961       -17.1693 
   2   1.0000      -0.397242       -10.8095 
   3   1.0000      -0.397236       -10.8093 
   4   0.0000      -0.074599        -2.0300 
   5   0.0000       0.022098         0.6013 
   6   0.0000       0.095574         2.6007 
   7   0.0000       0.095580         2.6009 
   8   0.0000       0.131572         3.5802 
   9   0.0000       0.131578         3.5804 
  10   0.0000       0.147303         4.0083 
  11   0.0000       0.189660         5.1609 
  12   0.0000       0.190203         5.1757 
  13   0.0000       0.190222         5.1762 
  14   0.0000       0.250438         6.8148 
  15   0.0000       0.291397         7.9293 
  16   0.0000       0.307117         8.3571 
  17   0.0000       0.307132         8.3575 
  18   0.0000       0.308660         8.3991 
  19   0.0000       0.328027         8.9261 
  20   0.0000       0.328051         8.9267 
  21   0.0000       0.416557        11.3351 
  22   0.0000       0.416569        11.3354 
  23   0.0000       0.440906        11.9977 
  24   0.0000       0.443956        12.0807 
  25   0.0000       0.449661        12.2359 
  26   0.0000       0.449711        12.2373 
  27   0.0000       0.706312        19.2197 
  28   0.0000       0.720182        19.5971 
  29   0.0000       0.720260        19.5993 
  30   0.0000       0.763248        20.7690 
  31   0.0000       0.763282        20.7699 
  32   0.0000       0.888843        24.1866 
  33   0.0000       0.888868        24.1873 
  34   0.0000       0.982573        26.7372 
  35   0.0000       0.993475        27.0338 
  36   0.0000       1.037851        28.2414 
  37   0.0000       1.232340        33.5337 
  38   0.0000       1.232370        33.5345 
  39   0.0000       1.413772        38.4707 
  40   0.0000       1.435519        39.0624 
  41   0.0000       1.435631        39.0655 
  42   0.0000       1.455760        39.6133 
  43   0.0000       1.455781        39.6138 
  44   0.0000       1.683967        45.8231 
  45   0.0000       1.752999        47.7015 
  46   0.0000       1.804437        49.1012 
  47   0.0000       1.804460        49.1018 
  48   0.0000       2.695518        73.3488 
  49   0.0000       2.695636        73.3520 
  50   0.0000       2.766553        75.2817 
  51   0.0000       2.790004        75.9199 
  52   0.0000       2.790143        75.9236 
  53   0.0000       3.003657        81.7337 
  54   0.0000       3.003737        81.7358 
  55   0.0000       3.011456        81.9459 
  56   0.0000       3.073983        83.6473 
  57   0.0000       3.113928        84.7343 
  58   0.0000       3.114723        84.7559 
  59   0.0000       3.114774        84.7573 
  60   0.0000       3.248988        88.4095 
  61   0.0000       3.559339        96.8545 
  62   0.0000       3.559465        96.8580 
  63   0.0000       3.640612        99.0661 
  64   0.0000       3.762221       102.3752 
  65   0.0000       3.762231       102.3755 
  66   0.0000       3.797959       103.3477 
  67   0.0000       3.798049       103.3502 
  68   0.0000       3.975147       108.1692 
  69   0.0000       4.004501       108.9680 
  70   0.0000       4.024692       109.5174 
  71   0.0000       4.099240       111.5460 
  72   0.0000       4.099266       111.5467 
  73   0.0000       4.210248       114.5667 
  74   0.0000       4.210256       114.5669 
  75   0.0000       4.710160       128.1700 
  76   0.0000       4.785379       130.2168 
  77   0.0000       4.785448       130.2187 
  78   0.0000       5.058485       137.6484 
  79   0.0000       5.058597       137.6514 
  80   0.0000       5.141050       139.8951 
  81   0.0000       5.141119       139.8970 
  82   0.0000       5.616394       152.8299 
  83   0.0000       5.627194       153.1237 
  84   0.0000       5.627225       153.1246 
  85   0.0000       5.860270       159.4661 
  86   0.0000       6.437232       175.1660 
  87   0.0000      23.579017       641.6177 

                    ********************************
                    * MULLIKEN POPULATION ANALYSIS *
                    ********************************

--------------------------------------------
MULLIKEN ATOMIC CHARGES AND SPIN POPULATIONS
--------------------------------------------
   0 C :   -0.374806    1.175691
   1 H :    0.124891   -0.058585
   2 H :    0.124958   -0.058553
   3 H :    0.124957   -0.058553
Sum of atomic charges         :   -0.0000000
Sum of atomic spin populations:    1.0000000

-----------------------------------------------------
MULLIKEN REDUCED ORBITAL CHARGES AND SPIN POPULATIONS
-----------------------------------------------------
CHARGE
  0 C s       :     3.299912  s :     3.299912
      pz      :     1.058711  p :     3.045889
      px      :     1.058814
      py      :     0.928363
      dz2     :     0.009770  d :     0.027037
      dxz     :     0.012060
      dyz     :    -0.000000
      dx2y2   :     0.005207
      dxy     :     0.000000
      f0      :     0.000656  f :     0.001969
      f+1     :     0.000043
      f-1     :    -0.000016
      f+2     :     0.000669
      f-2     :    -0.000000
      f+3     :     0.000644
      f-3     :    -0.000027
  1 H s       :     0.822279  s :     0.822279
      pz      :     0.019230  p :     0.051605
      px      :     0.009000
      py      :     0.023375
      dz2     :     0.000201  d :     0.001225
      dxz     :     0.000469
      dyz     :     0.000549
      dx2y2   :     0.000005
      dxy     :     0.000000
  2 H s       :     0.822223  s :     0.822223
      pz      :     0.011592  p :     0.051594
      px      :     0.016674
      py      :     0.023327
      dz2     :     0.000270  d :     0.001225
      dxz     :     0.000232
      dyz     :     0.000138
      dx2y2   :     0.000173
      dxy     :     0.000412
  3 H s       :     0.822223  s :     0.822223
      pz      :     0.011592  p :     0.051594
      px      :     0.016674
      py      :     0.023327
      dz2     :     0.000270  d :     0.001225
      dxz     :     0.000232
      dyz     :     0.000138
      dx2y2   :     0.000173
      dxy     :     0.000412

SPIN
  0 C s       :     0.028127  s :     0.028127
      pz      :     0.104859  p :     1.137993
      px      :     0.104771
      py      :     0.928363
      dz2     :     0.004922  d :     0.011190
      dxz     :     0.008471
      dyz     :    -0.000000
      dx2y2   :    -0.002203
      dxy     :     0.000000
      f0      :    -0.000374  f :    -0.001619
      f+1     :    -0.000044
      f-1     :    -0.000016
      f+2     :    -0.000504
      f-2     :    -0.000000
      f+3     :    -0.000655
      f-3     :    -0.000027
  1 H s       :    -0.088945  s :    -0.088945
      pz      :     0.001727  p :     0.029602
      px      :     0.004500
      py      :     0.023375
      dz2     :     0.000045  d :     0.000759
      dxz     :     0.000165
      dyz     :     0.000549
      dx2y2   :    -0.000001
      dxy     :    -0.000000
  2 H s       :    -0.088860  s :    -0.088860
      pz      :     0.003813  p :     0.029548
      px      :     0.002408
      py      :     0.023327
      dz2     :     0.000094  d :     0.000759
      dxz     :     0.000073
      dyz     :     0.000138
      dx2y2   :     0.000041
      dxy     :     0.000412
  3 H s       :    -0.088860  s :    -0.088860
      pz      :     0.003813  p :     0.029548
      px      :     0.002408
      py      :     0.023327
      dz2     :     0.000094  d :     0.000759
      dxz     :     0.000073
      dyz     :     0.000138
      dx2y2   :     0.000041
      dxy     :     0.000412


                     *******************************
                     * LOEWDIN POPULATION ANALYSIS *
                     *******************************

-------------------------------------------
LOEWDIN ATOMIC CHARGES AND SPIN POPULATIONS
-------------------------------------------
   0 C :    0.362980    0.738284
   1 H :   -0.120995    0.087243
   2 H :   -0.120993    0.087236
   3 H :   -0.120993    0.087236

----------------------------------------------------
LOEWDIN REDUCED ORBITAL CHARGES AND SPIN POPULATIONS
----------------------------------------------------
CHARGE
  0 C s       :     2.782673  s :     2.782673
      pz      :     0.995607  p :     2.695613
      px      :     0.995610
      py      :     0.704396
      dz2     :     0.053633  d :     0.148078
      dxz     :     0.066452
      dyz     :     0.000000
      dx2y2   :     0.027994
      dxy     :     0.000000
      f0      :     0.003968  f :     0.010657
      f+1     :     0.000134
      f-1     :     0.000486
      f+2     :     0.003241
      f-2     :     0.000000
      f+3     :     0.002017
      f-3     :     0.000810
  1 H s       :     0.766431  s :     0.766431
      pz      :     0.151108  p :     0.324529
      px      :     0.085317
      py      :     0.088104
      dz2     :     0.010967  d :     0.030035
      dxz     :     0.009059
      dyz     :     0.010002
      dx2y2   :     0.000007
      dxy     :     0.000000
  2 H s       :     0.766430  s :     0.766430
      pz      :     0.101766  p :     0.324527
      px      :     0.134662
      py      :     0.088098
      dz2     :     0.005281  d :     0.030036
      dxz     :     0.008478
      dyz     :     0.002501
      dx2y2   :     0.006275
      dxy     :     0.007502
  3 H s       :     0.766430  s :     0.766430
      pz      :     0.101766  p :     0.324527
      px      :     0.134662
      py      :     0.088098
      dz2     :     0.005281  d :     0.030036
      dxz     :     0.008478
      dyz     :     0.002501
      dx2y2   :     0.006275
      dxy     :     0.007502

SPIN
  0 C s       :     0.016627  s :     0.016627
      pz      :     0.015535  p :     0.735472
      px      :     0.015541
      py      :     0.704396
      dz2     :    -0.004023  d :    -0.012937
      dxz     :    -0.003162
      dyz     :     0.000000
      dx2y2   :    -0.005751
      dxy     :     0.000000
      f0      :    -0.000695  f :    -0.000878
      f+1     :    -0.000047
      f-1     :     0.000486
      f+2     :    -0.000720
      f-2     :     0.000000
      f+3     :    -0.000711
      f-3     :     0.000810
  1 H s       :    -0.018655  s :    -0.018655
      pz      :     0.005707  p :     0.094748
      px      :     0.000938
      py      :     0.088104
      dz2     :     0.000690  d :     0.011149
      dxz     :     0.000454
      dyz     :     0.010002
      dx2y2   :     0.000003
      dxy     :     0.000000
  2 H s       :    -0.018655  s :    -0.018655
      pz      :     0.002130  p :     0.094742
      px      :     0.004513
      py      :     0.088098
      dz2     :     0.000303  d :     0.011149
      dxz     :     0.000643
      dyz     :     0.002501
      dx2y2   :     0.000201
      dxy     :     0.007502
  3 H s       :    -0.018655  s :    -0.018655
      pz      :     0.002130  p :     0.094742
      px      :     0.004513
      py      :     0.088098
      dz2     :     0.000303  d :     0.011149
      dxz     :     0.000643
      dyz     :     0.002501
      dx2y2   :     0.000201
      dxy     :     0.007502


                      *****************************
                      * MAYER POPULATION ANALYSIS *
                      *****************************

  NA   - Mulliken gross atomic population
  ZA   - Total nuclear charge
  QA   - Mulliken gross atomic charge
  VA   - Mayer's total valence
  BVA  - Mayer's bonded valence
  FA   - Mayer's free valence

  ATOM       NA         ZA         QA         VA         BVA        FA
  0 C      6.3748     6.0000    -0.3748     3.8859     2.9973     0.8886
  1 H      0.8751     1.0000     0.1249     1.0234     1.0138     0.0096
  2 H      0.8750     1.0000     0.1250     1.0234     1.0138     0.0096
  3 H      0.8750     1.0000     0.1250     1.0234     1.0138     0.0096

  Mayer bond orders larger than 0.100000
B(  0-C ,  1-H ) :   0.9991 B(  0-C ,  2-H ) :   0.9991 B(  0-C ,  3-H ) :   0.9991 


-------
TIMINGS
-------

Total SCF time: 0 days 0 hours 0 min 4 sec 

Total time                  ....       4.149 sec
Sum of individual times     ....       3.641 sec  ( 87.8%)

Fock matrix formation       ....       2.973 sec  ( 71.6%)
  XC integration            ....       1.260 sec  ( 42.4% of F)
    Basis function eval.    ....       0.016 sec  (  1.2% of XC)
    Density eval.           ....       0.037 sec  (  2.9% of XC)
    XC-Functional eval.     ....       0.018 sec  (  1.4% of XC)
    XC-Potential eval.      ....       0.072 sec  (  5.7% of XC)
Diagonalization             ....       0.105 sec  (  2.5%)
Density matrix formation    ....       0.004 sec  (  0.1%)
Population analysis         ....       0.288 sec  (  7.0%)
Initial guess               ....       0.134 sec  (  3.2%)
Orbital Transformation      ....       0.000 sec  (  0.0%)
Orbital Orthonormalization  ....       0.000 sec  (  0.0%)
DIIS solution               ....       0.058 sec  (  1.4%)
Grid generation             ....       0.079 sec  (  1.9%)


-------------------------------------------------------------------------------
                          DFT DISPERSION CORRECTION                            
                                                                               
                              DFTD3 V3.1  Rev 1                                
                          USING Becke-Johnson damping                          
-------------------------------------------------------------------------------
The TPSSH functional is recognized
Active option DFTDOPT                   ...         4   

molecular C6(AA) [au] = 106.956735 


            DFT-D V3
 parameters
 s6 scaling factor         :     1.0000 
 a1 scaling factor         :     0.4529 
 s8 scaling factor         :     2.2382 
 a2 scaling factor         :     4.6550 
 ad hoc parameters k1-k3   :    16.0000     1.3333    -4.0000 

 Edisp/kcal,au: -0.556993804738  -0.000887626033 
 E6   /kcal   :  -0.296600921 
 E8   /kcal   :  -0.260392884 
 % E8         :  46.749691162 

-------------------------   ----------------
Dispersion correction           -0.000887626
-------------------------   ----------------


-------------------------   --------------------
FINAL SINGLE POINT ENERGY       -39.862481298413
-------------------------   --------------------


                            ***************************************
                            *     ORCA property calculations      *
                            ***************************************

                                    ---------------------
                                    Active property flags
                                    ---------------------
   (+) Dipole Moment


------------------------------------------------------------------------------
                       ORCA ELECTRIC PROPERTIES CALCULATION
------------------------------------------------------------------------------

Dipole Moment Calculation                       ... on
Quadrupole Moment Calculation                   ... off
Polarizability Calculation                      ... off
GBWName                                         ... CH3.gbw
Electron density file                           ... CH3.scfp
The origin for moment calculation is the CENTER OF MASS  = ( 0.000000,  0.000000  0.000000)

-------------
DIPOLE MOMENT
-------------
                                X             Y             Z
Electronic contribution:      0.00000      -0.00000       0.00001
Nuclear contribution   :      0.00000       0.00000       0.00000
                        -----------------------------------------
Total Dipole Moment    :      0.00000      -0.00000       0.00001
                        -----------------------------------------
Magnitude (a.u.)       :      0.00001
Magnitude (Debye)      :      0.00002



--------------------
Rotational spectrum 
--------------------
 
Rotational constants in cm-1:     9.606423     9.606289     4.803178 
Rotational constants in MHz : 287993.315842 287989.310434 143995.656562 

 Dipole components along the rotational axes: 
x,y,z [a.u.] :     0.000006     0.000000    -0.000000 
x,y,z [Debye]:     0.000016     0.000000    -0.000000 

 

Timings for individual modules:

Sum of individual times         ...        5.583 sec (=   0.093 min)
GTO integral calculation        ...        0.848 sec (=   0.014 min)  15.2 %
SCF iterations                  ...        4.735 sec (=   0.079 min)  84.8 %
                             ****ORCA TERMINATED NORMALLY****
TOTAL RUN TIME: 0 days 0 hours 0 minutes 8 seconds 545 msec
