
                                 *****************
                                 * O   R   C   A *
                                 *****************

           --- An Ab Initio, DFT and Semiempirical electronic structure package ---

                  #######################################################
                  #                        -***-                        #
                  #          Department of theory and spectroscopy      #
                  #               Directorship: Frank Neese             #
                  #        Max Planck Institute fuer Kohlenforschung    #
                  #                Kaiser Wilhelm Platz 1               #
                  #                 D-45470 Muelheim/Ruhr               #
                  #                      Germany                        #
                  #                                                     #
                  #                  All rights reserved                #
                  #                        -***-                        #
                  #######################################################


                         Program Version 4.2.0 -  RELEASE  -


 With contributions from (in alphabetic order):
   Daniel Aravena         : Magnetic Suceptibility
   Michael Atanasov       : Ab Initio Ligand Field Theory (pilot matlab implementation)
   Alexander A. Auer      : GIAO ZORA, VPT2
   Ute Becker             : Parallelization
   Giovanni Bistoni       : ED, misc. LED, open-shell LED, HFLED
   Martin Brehm           : Molecular dynamics
   Dmytro Bykov           : SCF Hessian
   Vijay G. Chilkuri      : MRCI spin determinant printing, contributions to CSF-ICE
   Dipayan Datta          : RHF DLPNO-CCSD density
   Achintya Kumar Dutta   : EOM-CC, STEOM-CC
   Dmitry Ganyushin       : Spin-Orbit,Spin-Spin,Magnetic field MRCI
   Miquel Garcia          : C-PCM Hessian, Gaussian charge scheme
   Yang Guo               : DLPNO-NEVPT2, CIM, IAO-localization
   Andreas Hansen         : Spin unrestricted coupled pair/coupled cluster methods
   Benjamin Helmich-Paris : CASSCF linear response (MC-RPA)
   Lee Huntington         : MR-EOM, pCC
   Robert Izsak           : Overlap fitted RIJCOSX, COSX-SCS-MP3, EOM
   Christian Kollmar      : KDIIS, OOCD, Brueckner-CCSD(T), CCSD density
   Simone Kossmann        : Meta GGA functionals, TD-DFT gradient, OOMP2, MP2 Hessian
   Martin Krupicka        : AUTO-CI
   Lucas Lang             : DCDCAS
   Dagmar Lenk            : GEPOL surface, SMD
   Dimitrios Liakos       : Extrapolation schemes; Compound Job, initial MDCI parallelization
   Dimitrios Manganas     : Further ROCIS development; embedding schemes
   Dimitrios Pantazis     : SARC Basis sets
   Taras Petrenko         : DFT Hessian,TD-DFT gradient, ASA, ECA, R-Raman, ABS, FL, XAS/XES, NRVS
   Peter Pinski           : DLPNO-MP2, DLPNO-MP2 Gradient
   Christoph Reimann      : Effective Core Potentials
   Marius Retegan         : Local ZFS, SOC
   Christoph Riplinger    : Optimizer, TS searches, QM/MM, DLPNO-CCSD(T), (RO)-DLPNO pert. Triples
   Tobias Risthaus        : Range-separated hybrids, TD-DFT gradient, RPA, STAB
   Michael Roemelt        : Original ROCIS implementation
   Masaaki Saitow         : Open-shell DLPNO-CCSD energy and density
   Barbara Sandhoefer     : DKH picture change effects
   Avijit Sen             : IP-ROCIS
   Kantharuban Sivalingam : CASSCF convergence, NEVPT2, FIC-MRCI
   Bernardo de Souza      : ESD, SOC TD-DFT
   Georgi Stoychev        : AutoAux, RI-MP2 NMR
   Willem Van den Heuvel  : Paramagnetic NMR
   Boris Wezisla          : Elementary symmetry handling
   Frank Wennmohs         : Technical directorship


 We gratefully acknowledge several colleagues who have allowed us to
 interface, adapt or use parts of their codes:
   Stefan Grimme, W. Hujo, H. Kruse,             : VdW corrections, initial TS optimization,
                  C. Bannwarth                     DFT functionals, gCP, sTDA/sTD-DF
   Ed Valeev, F. Pavosevic, A. Kumar             : LibInt (2-el integral package), F12 methods
   Garnet Chan, S. Sharma, J. Yang, R. Olivares  : DMRG
   Ulf Ekstrom                                   : XCFun DFT Library
   Mihaly Kallay                                 : mrcc  (arbitrary order and MRCC methods)
   Andreas Klamt, Michael Diedenhofen            : otool_cosmo (COSMO solvation model)
   Jiri Pittner, Ondrej Demel                    : Mk-CCSD
   Frank Weinhold                                : gennbo (NPA and NBO analysis)
   Christopher J. Cramer and Donald G. Truhlar   : smd solvation model
   Lars Goerigk                                  : TD-DFT with DH, B97 family of functionals
   V. Asgeirsson, H. Jonsson                     : NEB implementation
   FAccTs GmbH                                   : IRC, NEB, NEB-TS, Multilevel, MM, QM/MM, CI optimization
   S Lehtola, MJT Oliveira, MAL Marques          : LibXC Library


 Your calculation uses the libint2 library for the computation of 2-el integrals
 For citations please refer to: http://libint.valeyev.net

 Your ORCA version has been built with support for libXC version: 4.2.3
 For citations please refer to: https://tddft.org/programs/libxc/

 This ORCA versions uses:
   CBLAS   interface :  Fast vector & matrix operations
   LAPACKE interface :  Fast linear algebra routines
   SCALAPACK package :  Parallel linear algebra routines


Your calculation utilizes the atom-pairwise dispersion correction
with the Becke-Johnson damping scheme (D3BJ)
Cite in your paper:
S.Grimme, S.Ehrlich, L.Goerigk, J Comput Chem, (2011), 32, 1456–1465 
S.Grimme, J.Antony, S.Ehrlich and H.Krieg, J.Chem.Phys., 132, (2010), 154104 
   

----- Orbital basis set information -----
Your calculation utilizes the basis: def2-TZVPPD
   F. Weigend and R. Ahlrichs, Phys. Chem. Chem. Phys. 7, 3297 (2005).
   D. Rappoport and F. Furche, J. Chem. Phys. 133 134105 (2010).

----- AuxJK basis set information -----
Your calculation utilizes the auxiliary basis: def2/JK
   H-Ba, Hf-Rn: F. Weigend, J. Comput. Chem. 29, 167 (2008).

================================================================================
                                        WARNINGS
                       Please study these warnings very carefully!
================================================================================


WARNING: your system is open-shell and RHF/RKS was chosen
  ===> : WILL SWITCH to UHF/UKS


INFO   : the flag for use of LIBINT has been found!

================================================================================
                                       INPUT FILE
================================================================================
NAME = Cr+.in
|  1> #
|  2> # Cr+ TPSSh-D3BJ/Def2-TZVPPD
|  3> #
|  4> ! tpssh d3bj def2-tzvppd def2/jk grid4 nofinalgrid
|  5> 
|  6> *xyz 1 6
|  7> Cr         0.00000        0.00000        0.00000
|  8> *
|  9> 
| 10> %maxcore 5000
| 11> 
| 12> %pal
| 13> nprocs = 28
| 14> end
| 15> 
| 16> 
| 17>                          ****END OF INPUT****
================================================================================

                       ****************************
                       * Single Point Calculation *
                       ****************************

---------------------------------
CARTESIAN COORDINATES (ANGSTROEM)
---------------------------------
  Cr     0.000000    0.000000    0.000000

----------------------------
CARTESIAN COORDINATES (A.U.)
----------------------------
  NO LB      ZA    FRAG     MASS         X           Y           Z
   0 Cr   24.0000    0    52.000    0.000000    0.000000    0.000000

--------------------------------
INTERNAL COORDINATES (ANGSTROEM)
--------------------------------
 Cr     0   0   0     0.000000000000     0.00000000     0.00000000

---------------------------
INTERNAL COORDINATES (A.U.)
---------------------------
 Cr     0   0   0     0.000000000000     0.00000000     0.00000000

---------------------
BASIS SET INFORMATION
---------------------
There are 1 groups of distinct atoms

 Group   1 Type Cr  : 17s13p7d2f1g contracted to 6s6p4d2f1g pattern {842111/631111/4111/11/1}

Atom   0Cr   basis set group =>   1
----------------------------------
AUXILIARY/JK BASIS SET INFORMATION
----------------------------------
There are 1 groups of distinct atoms

 Group   1 Type Cr  : 19s14p12d10f7g3h1i contracted to 16s13p11d9f5g3h1i pattern {4111111111111111/2111111111111/21111111111/211111111/31111/111/1}

Atom   0Cr   basis set group =>   1


           ************************************************************
           *        Program running with 28 parallel MPI-processes    *
           *              working on a common directory               *
           ************************************************************
------------------------------------------------------------------------------
                           ORCA GTO INTEGRAL CALCULATION
------------------------------------------------------------------------------

                         BASIS SET STATISTICS AND STARTUP INFO

 # of primitive gaussian shells          ...   40
 # of primitive gaussian functions       ...  114
 # of contracted shells                  ...   19
 # of contracted basis functions         ...   67
 Highest angular momentum                ...    4
 Maximum contraction depth               ...    8
 Integral package used                   ... LIBINT
 Integral threshhold            Thresh   ...  1.000e-10
 Primitive cut-off              TCut     ...  1.000e-11


------------------------------ INTEGRAL EVALUATION ----------------------------


 * One electron integrals 
 Pre-screening matrix                    ... done
 Shell pair data                         ... done (   0.000 sec)



           ************************************************************
           *        Program running with 28 parallel MPI-processes    *
           *              working on a common directory               *
           ************************************************************
-------------------------------------------------------------------------------
                                 ORCA SCF
-------------------------------------------------------------------------------

------------
SCF SETTINGS
------------
Hamiltonian:
 Density Functional     Method          .... DFT(GTOs)
 Exchange Functional    Exchange        .... TPSS
 Correlation Functional Correlation     .... TPSS
 LDA part of GGA corr.  LDAOpt          .... PW91-LDA
 Gradients option       PostSCFGGA      .... off
 Hybrid DFT is turned on
   Fraction HF Exchange ScalHFX         ....  0.100000
   Scaling of DF-GGA-X  ScalDFX         ....  0.900000
   Scaling of DF-GGA-C  ScalDFC         ....  1.000000
   Scaling of DF-LDA-C  ScalLDAC        ....  1.000000
   Perturbative correction              ....  0.000000
   Density functional embedding theory  .... OFF
   NL short-range parameter             ....  5.200000


General Settings:
 Integral files         IntName         .... Cr+
 Hartree-Fock type      HFTyp           .... UHF
 Total Charge           Charge          ....    1
 Multiplicity           Mult            ....    6
 Number of Electrons    NEL             ....   23
 Basis Dimension        Dim             ....   67
 Nuclear Repulsion      ENuc            ....      0.0000000000 Eh

Convergence Acceleration:
 DIIS                   CNVDIIS         .... on
   Start iteration      DIISMaxIt       ....    12
   Startup error        DIISStart       ....  0.200000
   # of expansion vecs  DIISMaxEq       ....     5
   Bias factor          DIISBfac        ....   1.050
   Max. coefficient     DIISMaxC        ....  10.000
 Newton-Raphson         CNVNR           .... off
 SOSCF                  CNVSOSCF        .... off
 Level Shifting         CNVShift        .... on
   Level shift para.    LevelShift      ....    0.2500
   Turn off err/grad.   ShiftErr        ....    0.0010
 Zerner damping         CNVZerner       .... off
 Static damping         CNVDamp         .... on
   Fraction old density DampFac         ....    0.7000
   Max. Damping (<1)    DampMax         ....    0.9800
   Min. Damping (>=0)   DampMin         ....    0.0000
   Turn off err/grad.   DampErr         ....    0.1000
 Fernandez-Rico         CNVRico         .... off

SCF Procedure:
 Maximum # iterations   MaxIter         ....   125
 SCF integral mode      SCFMode         .... Direct
   Integral package                     .... LIBINT
 Reset frequency        DirectResetFreq ....    20
 Integral Threshold     Thresh          ....  1.000e-10 Eh
 Primitive CutOff       TCut            ....  1.000e-11 Eh

Convergence Tolerance:
 Convergence Check Mode ConvCheckMode   .... Total+1el-Energy
 Convergence forced     ConvForced      .... 0
 Energy Change          TolE            ....  1.000e-06 Eh
 1-El. energy change                    ....  1.000e-03 Eh
 DIIS Error             TolErr          ....  1.000e-06


Diagonalization of the overlap matrix:
Smallest eigenvalue                        ... 4.166e-02
Time for diagonalization                   ...    0.047 sec
Threshold for overlap eigenvalues          ... 1.000e-08
Number of eigenvalues below threshold      ... 0
Time for construction of square roots      ...    0.016 sec
Total time needed                          ...    0.063 sec

-------------------
DFT GRID GENERATION
-------------------

General Integration Accuracy     IntAcc      ...  4.670
Radial Grid Type                 RadialGrid  ... Gauss-Chebyshev
Angular Grid (max. acc.)         AngularGrid ... Lebedev-302
Angular grid pruning method      GridPruning ... 3 (G Style)
Weight generation scheme         WeightScheme... Becke
Basis function cutoff            BFCut       ...    1.0000e-10
Integration weight cutoff        WCut        ...    1.0000e-14
Grids for H and He will be reduced by one unit

# of grid points (after initial pruning)     ...   9664 (   0.0 sec)
# of grid points (after weights+screening)   ...   9664 (   0.0 sec)
Grid point division into batches done        ...    0.1 sec
Reduced shell lists constructed in    0.1 sec

Total number of grid points                  ...     9664
Total number of batches                      ...      152
Average number of points per batch           ...       63
Average number of grid points per atom       ...     9664
Average number of shells per batch           ...     3.43 (18.05%)
Average number of basis functions per batch  ...    10.29 (15.35%)
Average number of large shells per batch     ...     3.43 (100.00%)
Average number of large basis fcns per batch ...    10.29 (100.00%)
Maximum spatial batch extension              ...  22.27, 22.27, 22.27 au
Average spatial batch extension              ...   0.77,  0.76,  0.74 au

Time for grid setup =    0.188 sec

------------------------------
INITIAL GUESS: MODEL POTENTIAL
------------------------------
Loading Hartree-Fock densities                     ... done
Calculating cut-offs                               ... done
Setting up the integral package                    ... done
Initializing the effective Hamiltonian             ... done
Starting the Coulomb interaction                   ... done (   0.0 sec)
Reading the grid                                   ... done
Mapping shells                                     ... done
Starting the XC term evaluation                    ... done (   0.0 sec)
  promolecular density results
     # of electrons  =     24.000004859
     EX              =    -47.171868566
     EC              =     -1.006455159
     EX+EC           =    -48.178323726
Transforming the Hamiltonian                       ... done (   0.0 sec)
Diagonalizing the Hamiltonian                      ... done (   0.0 sec)
Back transforming the eigenvectors                 ... done (   0.0 sec)
Now organizing SCF variables                       ... done
                      ------------------
                      INITIAL GUESS DONE (   0.3 sec)
                      ------------------
--------------
SCF ITERATIONS
--------------
ITER       Energy         Delta-E        Max-DP      RMS-DP      [F,P]     Damp
               ***  Starting incremental Fock matrix formation  ***
  0  -1044.1786213534   0.000000000000 0.01402998  0.00055229  0.0862218 0.7000
  1  -1044.1834015378  -0.004780184348 0.00730659  0.00027726  0.0418105 0.7000
                               ***Turning on DIIS***
  2  -1044.1853942604  -0.001992722652 0.01080247  0.00042239  0.0192686 0.0000
  3  -1044.1899034307  -0.004509170255 0.00548608  0.00020510  0.0078888 0.0000
  4  -1044.1900758504  -0.000172419707 0.00193263  0.00007932  0.0070782 0.0000
  5  -1044.1901679631  -0.000092112709 0.00028535  0.00001417  0.0010232 0.0000
  6  -1044.1901708280  -0.000002864869 0.00010241  0.00000484  0.0001391 0.0000
                 **** Energy Check signals convergence ****

               *****************************************************
               *                     SUCCESS                       *
               *           SCF CONVERGED AFTER   7 CYCLES          *
               *****************************************************


----------------
TOTAL SCF ENERGY
----------------

Total Energy       :        -1044.19017094 Eh          -28413.85908 eV

Components:
Nuclear Repulsion  :            0.00000000 Eh               0.00000 eV
Electronic Energy  :        -1044.19017094 Eh          -28413.85908 eV
One Electron Energy:        -1432.42927422 Eh          -38978.38217 eV
Two Electron Energy:          388.23910328 Eh           10564.52309 eV

Virial components:
Potential Energy   :        -2086.70005836 Eh          -56781.99533 eV
Kinetic Energy     :         1042.50988742 Eh           28368.13624 eV
Virial Ratio       :            2.00161177


DFT components:
N(Alpha)           :       13.999999929684 electrons
N(Beta)            :        8.999999974677 electrons
N(Total)           :       22.999999904360 electrons
E(X)               :      -42.924530653482 Eh       
E(C)               :       -0.982411464748 Eh       
E(XC)              :      -43.906942118230 Eh       
DFET-embed. en.    :        0.000000000000 Eh       

---------------
SCF CONVERGENCE
---------------

  Last Energy change         ...   -1.1116e-07  Tolerance :   1.0000e-06
  Last MAX-Density change    ...    7.3950e-06  Tolerance :   1.0000e-05
  Last RMS-Density change    ...    2.9589e-07  Tolerance :   1.0000e-06
  Last DIIS Error            ...    1.8418e-05  Tolerance :   1.0000e-06

             **** THE GBW FILE WAS UPDATED (Cr+.gbw) ****
             **** DENSITY FILE WAS UPDATED (Cr+.scfp) ****
             **** ENERGY FILE WAS UPDATED (Cr+.en.tmp) ****
----------------------
UHF SPIN CONTAMINATION
----------------------

Warning: in a DFT calculation there is little theoretical justification to 
         calculate <S**2> as in Hartree-Fock theory. We will do it anyways
         but you should keep in mind that the values have only limited relevance

Expectation value of <S**2>     :     8.750134
Ideal value S*(S+1) for S=2.5   :     8.750000
Deviation                       :     0.000134

             **** THE GBW FILE WAS UPDATED (Cr+.gbw) ****
             **** DENSITY FILE WAS UPDATED (Cr+.scfp) ****
----------------
ORBITAL ENERGIES
----------------
                 SPIN UP ORBITALS
  NO   OCC          E(Eh)            E(eV) 
   0   1.0000    -215.677163     -5868.8740 
   1   1.0000     -24.718668      -672.6291 
   2   1.0000     -20.986023      -571.0587 
   3   1.0000     -20.986023      -571.0587 
   4   1.0000     -20.986023      -571.0587 
   5   1.0000      -3.068823       -83.5069 
   6   1.0000      -2.029334       -55.2210 
   7   1.0000      -2.029334       -55.2210 
   8   1.0000      -2.029334       -55.2210 
   9   1.0000      -0.423270       -11.5178 
  10   1.0000      -0.423270       -11.5178 
  11   1.0000      -0.423270       -11.5178 
  12   1.0000      -0.423270       -11.5178 
  13   1.0000      -0.423270       -11.5178 
  14   0.0000      -0.346962        -9.4413 
  15   0.0000      -0.206506        -5.6193 
  16   0.0000      -0.206506        -5.6193 
  17   0.0000      -0.206506        -5.6193 
  18   0.0000      -0.079992        -2.1767 
  19   0.0000      -0.056435        -1.5357 
  20   0.0000      -0.056435        -1.5357 
  21   0.0000      -0.056435        -1.5357 
  22   0.0000      -0.056435        -1.5357 
  23   0.0000      -0.056435        -1.5357 
  24   0.0000      -0.052776        -1.4361 
  25   0.0000      -0.052776        -1.4361 
  26   0.0000      -0.052776        -1.4361 
  27   0.0000       0.196240         5.3400 
  28   0.0000       0.196240         5.3400 
  29   0.0000       0.196240         5.3400 
  30   0.0000       0.287688         7.8284 
  31   0.0000       0.287688         7.8284 
  32   0.0000       0.287688         7.8284 
  33   0.0000       0.287688         7.8284 
  34   0.0000       0.287688         7.8284 
  35   0.0000       1.245874        33.9019 
  36   0.0000       1.245874        33.9019 
  37   0.0000       1.245874        33.9019 
  38   0.0000       1.245874        33.9019 
  39   0.0000       1.245874        33.9019 
  40   0.0000       1.245874        33.9019 
  41   0.0000       1.245874        33.9019 
  42   0.0000       1.524176        41.4749 
  43   0.0000       1.524176        41.4749 
  44   0.0000       1.524176        41.4749 
  45   0.0000       1.659726        45.1635 
  46   0.0000       1.806952        49.1697 
  47   0.0000       1.806952        49.1697 
  48   0.0000       1.806952        49.1697 
  49   0.0000       1.806952        49.1697 
  50   0.0000       1.806952        49.1697 
  51   0.0000       5.335838       145.1955 
  52   0.0000       5.335838       145.1955 
  53   0.0000       5.335838       145.1955 
  54   0.0000       5.335838       145.1955 
  55   0.0000       5.335838       145.1955 
  56   0.0000       5.335838       145.1955 
  57   0.0000       5.335838       145.1955 
  58   0.0000       5.335838       145.1955 
  59   0.0000       5.335838       145.1955 
  60   0.0000       5.938276       161.5887 
  61   0.0000       5.938276       161.5887 
  62   0.0000       5.938276       161.5887 
  63   0.0000       5.938276       161.5887 
  64   0.0000       5.938276       161.5887 
  65   0.0000       5.938276       161.5887 
  66   0.0000       5.938276       161.5887 

                 SPIN DOWN ORBITALS
  NO   OCC          E(Eh)            E(eV) 
   0   1.0000    -215.676955     -5868.8683 
   1   1.0000     -24.658596      -670.9945 
   2   1.0000     -20.935642      -569.6878 
   3   1.0000     -20.935642      -569.6878 
   4   1.0000     -20.935642      -569.6878 
   5   1.0000      -2.881135       -78.3997 
   6   1.0000      -1.832092       -49.8538 
   7   1.0000      -1.832092       -49.8538 
   8   1.0000      -1.832092       -49.8538 
   9   0.0000      -0.275138        -7.4869 
  10   0.0000      -0.207242        -5.6393 
  11   0.0000      -0.207242        -5.6393 
  12   0.0000      -0.207242        -5.6393 
  13   0.0000      -0.207242        -5.6393 
  14   0.0000      -0.207242        -5.6393 
  15   0.0000      -0.148398        -4.0381 
  16   0.0000      -0.148398        -4.0381 
  17   0.0000      -0.148398        -4.0381 
  18   0.0000      -0.039661        -1.0792 
  19   0.0000      -0.032186        -0.8758 
  20   0.0000      -0.032186        -0.8758 
  21   0.0000      -0.032186        -0.8758 
  22   0.0000      -0.008167        -0.2222 
  23   0.0000      -0.008167        -0.2222 
  24   0.0000      -0.008167        -0.2222 
  25   0.0000      -0.008167        -0.2222 
  26   0.0000      -0.008167        -0.2222 
  27   0.0000       0.253494         6.8979 
  28   0.0000       0.253494         6.8979 
  29   0.0000       0.253494         6.8979 
  30   0.0000       0.363318         9.8864 
  31   0.0000       0.363319         9.8864 
  32   0.0000       0.363319         9.8864 
  33   0.0000       0.363319         9.8864 
  34   0.0000       0.363319         9.8864 
  35   0.0000       1.352868        36.8134 
  36   0.0000       1.352868        36.8134 
  37   0.0000       1.352868        36.8134 
  38   0.0000       1.352868        36.8134 
  39   0.0000       1.352868        36.8134 
  40   0.0000       1.352868        36.8134 
  41   0.0000       1.352868        36.8134 
  42   0.0000       1.645536        44.7773 
  43   0.0000       1.645536        44.7773 
  44   0.0000       1.645536        44.7773 
  45   0.0000       1.801783        49.0290 
  46   0.0000       1.943308        52.8801 
  47   0.0000       1.943308        52.8801 
  48   0.0000       1.943308        52.8801 
  49   0.0000       1.943308        52.8801 
  50   0.0000       1.943308        52.8801 
  51   0.0000       5.474136       148.9588 
  52   0.0000       5.474136       148.9588 
  53   0.0000       5.474136       148.9588 
  54   0.0000       5.474136       148.9588 
  55   0.0000       5.474136       148.9588 
  56   0.0000       5.474136       148.9588 
  57   0.0000       5.474136       148.9588 
  58   0.0000       5.474136       148.9588 
  59   0.0000       5.474136       148.9588 
  60   0.0000       6.145216       167.2198 
  61   0.0000       6.145216       167.2198 
  62   0.0000       6.145216       167.2198 
  63   0.0000       6.145216       167.2198 
  64   0.0000       6.145216       167.2198 
  65   0.0000       6.145216       167.2198 
  66   0.0000       6.145216       167.2198 

                    ********************************
                    * MULLIKEN POPULATION ANALYSIS *
                    ********************************

--------------------------------------------
MULLIKEN ATOMIC CHARGES AND SPIN POPULATIONS
--------------------------------------------
   0 Cr:    1.000000    5.000000
Sum of atomic charges         :    1.0000000
Sum of atomic spin populations:    5.0000000

-----------------------------------------------------
MULLIKEN REDUCED ORBITAL CHARGES AND SPIN POPULATIONS
-----------------------------------------------------
CHARGE
  0 Crs       :     6.000000  s :     6.000000
      pz      :     4.000000  p :    12.000000
      px      :     4.000000
      py      :     4.000000
      dz2     :     1.000000  d :     5.000000
      dxz     :     1.000000
      dyz     :     1.000000
      dx2y2   :     1.000000
      dxy     :     1.000000
      f0      :     0.000000  f :     0.000000
      f+1     :     0.000000
      f-1     :     0.000000
      f+2     :     0.000000
      f-2     :     0.000000
      f+3     :     0.000000
      f-3     :     0.000000
      g0      :     0.000000  g :     0.000000
      g+1     :     0.000000
      g-1     :     0.000000
      g+2     :     0.000000
      g-2     :     0.000000
      g+3     :     0.000000
      g-3     :     0.000000
      g+4     :     0.000000
      g-4     :     0.000000

SPIN
  0 Crs       :     0.000000  s :     0.000000
      pz      :    -0.000000  p :    -0.000000
      px      :    -0.000000
      py      :    -0.000000
      dz2     :     1.000000  d :     5.000000
      dxz     :     1.000000
      dyz     :     1.000000
      dx2y2   :     1.000000
      dxy     :     1.000000
      f0      :     0.000000  f :     0.000000
      f+1     :     0.000000
      f-1     :     0.000000
      f+2     :     0.000000
      f-2     :     0.000000
      f+3     :     0.000000
      f-3     :     0.000000
      g0      :    -0.000000  g :    -0.000000
      g+1     :    -0.000000
      g-1     :    -0.000000
      g+2     :    -0.000000
      g-2     :    -0.000000
      g+3     :     0.000000
      g-3     :    -0.000000
      g+4     :    -0.000000
      g-4     :     0.000000


                     *******************************
                     * LOEWDIN POPULATION ANALYSIS *
                     *******************************

-------------------------------------------
LOEWDIN ATOMIC CHARGES AND SPIN POPULATIONS
-------------------------------------------
   0 Cr:    1.000000    5.000000

----------------------------------------------------
LOEWDIN REDUCED ORBITAL CHARGES AND SPIN POPULATIONS
----------------------------------------------------
CHARGE
  0 Crs       :     6.000000  s :     6.000000
      pz      :     4.000000  p :    12.000000
      px      :     4.000000
      py      :     4.000000
      dz2     :     1.000000  d :     5.000000
      dxz     :     1.000000
      dyz     :     1.000000
      dx2y2   :     1.000000
      dxy     :     1.000000
      f0      :     0.000000  f :     0.000000
      f+1     :     0.000000
      f-1     :     0.000000
      f+2     :     0.000000
      f-2     :     0.000000
      f+3     :     0.000000
      f-3     :     0.000000
      g0      :     0.000000  g :     0.000000
      g+1     :     0.000000
      g-1     :     0.000000
      g+2     :     0.000000
      g-2     :     0.000000
      g+3     :     0.000000
      g-3     :     0.000000
      g+4     :     0.000000
      g-4     :     0.000000

SPIN
  0 Crs       :     0.000000  s :     0.000000
      pz      :    -0.000000  p :    -0.000000
      px      :    -0.000000
      py      :    -0.000000
      dz2     :     1.000000  d :     5.000000
      dxz     :     1.000000
      dyz     :     1.000000
      dx2y2   :     1.000000
      dxy     :     1.000000
      f0      :     0.000000  f :     0.000000
      f+1     :     0.000000
      f-1     :     0.000000
      f+2     :     0.000000
      f-2     :     0.000000
      f+3     :     0.000000
      f-3     :     0.000000
      g0      :    -0.000000  g :    -0.000000
      g+1     :    -0.000000
      g-1     :    -0.000000
      g+2     :    -0.000000
      g-2     :    -0.000000
      g+3     :     0.000000
      g-3     :    -0.000000
      g+4     :    -0.000000
      g-4     :     0.000000


                      *****************************
                      * MAYER POPULATION ANALYSIS *
                      *****************************

  NA   - Mulliken gross atomic population
  ZA   - Total nuclear charge
  QA   - Mulliken gross atomic charge
  VA   - Mayer's total valence
  BVA  - Mayer's bonded valence
  FA   - Mayer's free valence

  ATOM       NA         ZA         QA         VA         BVA        FA
  0 Cr    23.0000    24.0000     1.0000     5.0003     0.0000     5.0003

  Mayer bond orders larger than 0.100000


-------
TIMINGS
-------

Total SCF time: 0 days 0 hours 0 min 3 sec 

Total time                  ....       3.586 sec
Sum of individual times     ....       3.114 sec  ( 86.8%)

Fock matrix formation       ....       2.642 sec  ( 73.7%)
  XC integration            ....       1.077 sec  ( 40.8% of F)
    Basis function eval.    ....       0.006 sec  (  0.5% of XC)
    Density eval.           ....       0.014 sec  (  1.3% of XC)
    XC-Functional eval.     ....       0.011 sec  (  1.0% of XC)
    XC-Potential eval.      ....       0.023 sec  (  2.1% of XC)
Diagonalization             ....       0.023 sec  (  0.6%)
Density matrix formation    ....       0.005 sec  (  0.1%)
Population analysis         ....       0.081 sec  (  2.3%)
Initial guess               ....       0.119 sec  (  3.3%)
Orbital Transformation      ....       0.000 sec  (  0.0%)
Orbital Orthonormalization  ....       0.000 sec  (  0.0%)
DIIS solution               ....       0.057 sec  (  1.6%)
Grid generation             ....       0.188 sec  (  5.2%)


-------------------------------------------------------------------------------
                          DFT DISPERSION CORRECTION                            
                                                                               
                              DFTD3 V3.1  Rev 1                                
                          USING Becke-Johnson damping                          
-------------------------------------------------------------------------------
The TPSSH functional is recognized
Active option DFTDOPT                   ...         4   

molecular C6(AA) [au] = 690.741670 


            DFT-D V3
 parameters
 s6 scaling factor         :     1.0000 
 a1 scaling factor         :     0.4529 
 s8 scaling factor         :     2.2382 
 a2 scaling factor         :     4.6550 
 ad hoc parameters k1-k3   :    16.0000     1.3333    -4.0000 

 Edisp/kcal,au: -0.000000000000  -0.000000000000 
 E6   /kcal   :  -0.000000000 
 E8   /kcal   :  -0.000000000 
 % E8         :          -nan 

-------------------------   ----------------
Dispersion correction            0.000000000
-------------------------   ----------------


-------------------------   --------------------
FINAL SINGLE POINT ENERGY     -1044.190170939113
-------------------------   --------------------


                            ***************************************
                            *     ORCA property calculations      *
                            ***************************************

                                    ---------------------
                                    Active property flags
                                    ---------------------
   (+) Dipole Moment


------------------------------------------------------------------------------
                       ORCA ELECTRIC PROPERTIES CALCULATION
------------------------------------------------------------------------------

Dipole Moment Calculation                       ... on
Quadrupole Moment Calculation                   ... off
Polarizability Calculation                      ... off
GBWName                                         ... Cr+.gbw
Electron density file                           ... Cr+.scfp
The origin for moment calculation is the CENTER OF MASS  = ( 0.000000,  0.000000  0.000000)

-------------
DIPOLE MOMENT
-------------
                                X             Y             Z
Electronic contribution:      0.00000       0.00000      -0.00000
Nuclear contribution   :      0.00000       0.00000       0.00000
                        -----------------------------------------
Total Dipole Moment    :      0.00000       0.00000      -0.00000
                        -----------------------------------------
Magnitude (a.u.)       :      0.00000
Magnitude (Debye)      :      0.00000



--------------------
Rotational spectrum 
--------------------
 
Rotational constants in cm-1:     0.000000     0.000000     0.000000 
Rotational constants in MHz :     0.000000     0.000000     0.000000 

 Dipole components along the rotational axes: 
x,y,z [a.u.] :     0.000000     0.000000    -0.000000 
x,y,z [Debye]:     0.000000     0.000000    -0.000000 

 

Timings for individual modules:

Sum of individual times         ...        9.732 sec (=   0.162 min)
GTO integral calculation        ...        2.681 sec (=   0.045 min)  27.5 %
SCF iterations                  ...        7.051 sec (=   0.118 min)  72.5 %
                             ****ORCA TERMINATED NORMALLY****
TOTAL RUN TIME: 0 days 0 hours 0 minutes 10 seconds 509 msec
