
                                 *****************
                                 * O   R   C   A *
                                 *****************

           --- An Ab Initio, DFT and Semiempirical electronic structure package ---

                  #######################################################
                  #                        -***-                        #
                  #          Department of theory and spectroscopy      #
                  #               Directorship: Frank Neese             #
                  #        Max Planck Institute fuer Kohlenforschung    #
                  #                Kaiser Wilhelm Platz 1               #
                  #                 D-45470 Muelheim/Ruhr               #
                  #                      Germany                        #
                  #                                                     #
                  #                  All rights reserved                #
                  #                        -***-                        #
                  #######################################################


                         Program Version 4.2.0 -  RELEASE  -


 With contributions from (in alphabetic order):
   Daniel Aravena         : Magnetic Suceptibility
   Michael Atanasov       : Ab Initio Ligand Field Theory (pilot matlab implementation)
   Alexander A. Auer      : GIAO ZORA, VPT2
   Ute Becker             : Parallelization
   Giovanni Bistoni       : ED, misc. LED, open-shell LED, HFLED
   Martin Brehm           : Molecular dynamics
   Dmytro Bykov           : SCF Hessian
   Vijay G. Chilkuri      : MRCI spin determinant printing, contributions to CSF-ICE
   Dipayan Datta          : RHF DLPNO-CCSD density
   Achintya Kumar Dutta   : EOM-CC, STEOM-CC
   Dmitry Ganyushin       : Spin-Orbit,Spin-Spin,Magnetic field MRCI
   Miquel Garcia          : C-PCM Hessian, Gaussian charge scheme
   Yang Guo               : DLPNO-NEVPT2, CIM, IAO-localization
   Andreas Hansen         : Spin unrestricted coupled pair/coupled cluster methods
   Benjamin Helmich-Paris : CASSCF linear response (MC-RPA)
   Lee Huntington         : MR-EOM, pCC
   Robert Izsak           : Overlap fitted RIJCOSX, COSX-SCS-MP3, EOM
   Christian Kollmar      : KDIIS, OOCD, Brueckner-CCSD(T), CCSD density
   Simone Kossmann        : Meta GGA functionals, TD-DFT gradient, OOMP2, MP2 Hessian
   Martin Krupicka        : AUTO-CI
   Lucas Lang             : DCDCAS
   Dagmar Lenk            : GEPOL surface, SMD
   Dimitrios Liakos       : Extrapolation schemes; Compound Job, initial MDCI parallelization
   Dimitrios Manganas     : Further ROCIS development; embedding schemes
   Dimitrios Pantazis     : SARC Basis sets
   Taras Petrenko         : DFT Hessian,TD-DFT gradient, ASA, ECA, R-Raman, ABS, FL, XAS/XES, NRVS
   Peter Pinski           : DLPNO-MP2, DLPNO-MP2 Gradient
   Christoph Reimann      : Effective Core Potentials
   Marius Retegan         : Local ZFS, SOC
   Christoph Riplinger    : Optimizer, TS searches, QM/MM, DLPNO-CCSD(T), (RO)-DLPNO pert. Triples
   Tobias Risthaus        : Range-separated hybrids, TD-DFT gradient, RPA, STAB
   Michael Roemelt        : Original ROCIS implementation
   Masaaki Saitow         : Open-shell DLPNO-CCSD energy and density
   Barbara Sandhoefer     : DKH picture change effects
   Avijit Sen             : IP-ROCIS
   Kantharuban Sivalingam : CASSCF convergence, NEVPT2, FIC-MRCI
   Bernardo de Souza      : ESD, SOC TD-DFT
   Georgi Stoychev        : AutoAux, RI-MP2 NMR
   Willem Van den Heuvel  : Paramagnetic NMR
   Boris Wezisla          : Elementary symmetry handling
   Frank Wennmohs         : Technical directorship


 We gratefully acknowledge several colleagues who have allowed us to
 interface, adapt or use parts of their codes:
   Stefan Grimme, W. Hujo, H. Kruse,             : VdW corrections, initial TS optimization,
                  C. Bannwarth                     DFT functionals, gCP, sTDA/sTD-DF
   Ed Valeev, F. Pavosevic, A. Kumar             : LibInt (2-el integral package), F12 methods
   Garnet Chan, S. Sharma, J. Yang, R. Olivares  : DMRG
   Ulf Ekstrom                                   : XCFun DFT Library
   Mihaly Kallay                                 : mrcc  (arbitrary order and MRCC methods)
   Andreas Klamt, Michael Diedenhofen            : otool_cosmo (COSMO solvation model)
   Jiri Pittner, Ondrej Demel                    : Mk-CCSD
   Frank Weinhold                                : gennbo (NPA and NBO analysis)
   Christopher J. Cramer and Donald G. Truhlar   : smd solvation model
   Lars Goerigk                                  : TD-DFT with DH, B97 family of functionals
   V. Asgeirsson, H. Jonsson                     : NEB implementation
   FAccTs GmbH                                   : IRC, NEB, NEB-TS, Multilevel, MM, QM/MM, CI optimization
   S Lehtola, MJT Oliveira, MAL Marques          : LibXC Library


 Your calculation uses the libint2 library for the computation of 2-el integrals
 For citations please refer to: http://libint.valeyev.net

 Your ORCA version has been built with support for libXC version: 4.2.3
 For citations please refer to: https://tddft.org/programs/libxc/

 This ORCA versions uses:
   CBLAS   interface :  Fast vector & matrix operations
   LAPACKE interface :  Fast linear algebra routines
   SCALAPACK package :  Parallel linear algebra routines


Your calculation utilizes the atom-pairwise dispersion correction
with the Becke-Johnson damping scheme (D3BJ)
Cite in your paper:
S.Grimme, S.Ehrlich, L.Goerigk, J Comput Chem, (2011), 32, 1456–1465 
S.Grimme, J.Antony, S.Ehrlich and H.Krieg, J.Chem.Phys., 132, (2010), 154104 
   

----- Orbital basis set information -----
Your calculation utilizes the basis: def2-TZVPPD
   F. Weigend and R. Ahlrichs, Phys. Chem. Chem. Phys. 7, 3297 (2005).
   D. Rappoport and F. Furche, J. Chem. Phys. 133 134105 (2010).

----- AuxJK basis set information -----
Your calculation utilizes the auxiliary basis: def2/JK
   H-Ba, Hf-Rn: F. Weigend, J. Comput. Chem. 29, 167 (2008).

cite the ECPs for Ag [Def2-ECP] as follows:
Ce-Yb(ecp-28): M. Dolg, H. Stoll, H.Preuss, J. Chem. Phys., 1989, 90, 1730-1734.
Y-Cd(ecp-28), Hf-Hg(ecp-46): D. Andrae,U. Haeussermann, M. Dolg, H. Stoll, H. Preuss, Theor. Chim. Acta, 1990, 77, 123-141.
In-Sb(ecp-28), Tl-Bi(ecp-46): B. Metz, H. Stoll, M. Dolg, J. Chem. Phys., 2000, 113, 2563-2569.
Te-Xe(ecp-28), Po-Rn(ecp-46): K. A. Peterson, D. Figgen, E. Goll, H. Stoll, M. Dolg, J. Chem. Phys., 2003, 119, 11113-11123.
Rb(ecp-28), Cs(ecp-46): T. Leininger, A. Nicklass, W. Kuechle, H. Stoll, M. Dolg, A. Bergner, Chem. Phys. Lett., 1996, 255, 274-280.
Sr(ecp-28), Ba(ecp-46): M. Kaupp, P. V. Schleyer, H. Stoll and H. Preuss, J. Chem. Phys., 1991, 94, 1360-1366.
La(ecp-46): M. Dolg, H. Stoll, A. Savin, H. Preuss, Theor. Chim. Acta, 1989, 75, 173-194.
Lu(ecp-28): X. Cao, M. Dolg, J. Chem. Phys., 2001, 115, 7348-7355.

ECP parameters for Ag [Def2-ECP] have been obtained from:
TURBOMOLE (7.0.2)

================================================================================
                                        WARNINGS
                       Please study these warnings very carefully!
================================================================================


INFO   : the flag for use of LIBINT has been found!

================================================================================
                                       INPUT FILE
================================================================================
NAME = CuAg.in
|  1> #
|  2> # CuAg TPSSh-D3BJ/Def2-TZVPPD
|  3> #
|  4> ! tpssh d3bj def2-tzvppd def2/jk grid4 nofinalgrid
|  5> 
|  6> *xyz 0 1
|  7> Cu         0.00000        0.00000        0.00000
|  8> Ag         0.00000        0.00000        2.25929
|  9> *
| 10> 
| 11> %maxcore 5000
| 12> 
| 13> %pal
| 14> nprocs = 28
| 15> end
| 16> 
| 17> 
| 18>                          ****END OF INPUT****
================================================================================

                       ****************************
                       * Single Point Calculation *
                       ****************************

---------------------------------
CARTESIAN COORDINATES (ANGSTROEM)
---------------------------------
  Cu     0.000000    0.000000    0.000000
  Ag     0.000000    0.000000    2.259290

----------------------------
CARTESIAN COORDINATES (A.U.)
----------------------------
  NO LB      ZA    FRAG     MASS         X           Y           Z
   0 Cu   29.0000    0    63.550    0.000000    0.000000    0.000000
   1 Ag   19.0000*   0   107.870    0.000000    0.000000    4.269439
* core charge reduced due to ECP

--------------------------------
INTERNAL COORDINATES (ANGSTROEM)
--------------------------------
 Cu     0   0   0     0.000000000000     0.00000000     0.00000000
 Ag     1   0   0     2.259290000000     0.00000000     0.00000000

---------------------------
INTERNAL COORDINATES (A.U.)
---------------------------
 Cu     0   0   0     0.000000000000     0.00000000     0.00000000
 Ag     1   0   0     4.269439357107     0.00000000     0.00000000

---------------------
BASIS SET INFORMATION
---------------------
There are 2 groups of distinct atoms

 Group   1 Type Cu  : 17s13p7d2f1g contracted to 6s6p4d2f1g pattern {842111/631111/4111/11/1}
 Group   2 Type Ag  : 7s7p6d2f1g contracted to 6s4p3d2f1g pattern {211111/4111/411/11/1}

Atom   0Cu   basis set group =>   1
Atom   1Ag   basis set group =>   2
----------------------------------
AUXILIARY/JK BASIS SET INFORMATION
----------------------------------
There are 2 groups of distinct atoms

 Group   1 Type Cu  : 19s14p12d10f7g3h1i contracted to 16s13p11d9f5g3h1i pattern {4111111111111111/2111111111111/21111111111/211111111/31111/111/1}
 Group   2 Type Ag  : 13s12p10d9f6g3h2i contracted to 11s10p9d8f6g3h2i pattern {31111111111/3111111111/211111111/21111111/111111/111/11}

Atom   0Cu   basis set group =>   1
Atom   1Ag   basis set group =>   2
-------------------------
ECP PARAMETER INFORMATION
-------------------------

 Group 1, Type Ag ECP Def2-ECP (replacing 28 core electrons, lmax=3)

Atom   1Ag   ECP group =>   1



           ************************************************************
           *        Program running with 28 parallel MPI-processes    *
           *              working on a common directory               *
           ************************************************************
------------------------------------------------------------------------------
                           ORCA GTO INTEGRAL CALCULATION
------------------------------------------------------------------------------

                         BASIS SET STATISTICS AND STARTUP INFO

 # of primitive gaussian shells          ...   63
 # of primitive gaussian functions       ...  195
 # of contracted shells                  ...   35
 # of contracted basis functions         ...  123
 Highest angular momentum                ...    4
 Maximum contraction depth               ...    8
 Integral package used                   ... LIBINT
 Integral threshhold            Thresh   ...  1.000e-10
 Primitive cut-off              TCut     ...  1.000e-11


------------------------------ INTEGRAL EVALUATION ----------------------------


 * One electron integrals 

   ECP integrals                         ... done
 Pre-screening matrix                    ... done
 Shell pair data                         ... done (   0.000 sec)



           ************************************************************
           *        Program running with 28 parallel MPI-processes    *
           *              working on a common directory               *
           ************************************************************
-------------------------------------------------------------------------------
                                 ORCA SCF
-------------------------------------------------------------------------------

------------
SCF SETTINGS
------------
Hamiltonian:
 Density Functional     Method          .... DFT(GTOs)
 Exchange Functional    Exchange        .... TPSS
 Correlation Functional Correlation     .... TPSS
 LDA part of GGA corr.  LDAOpt          .... PW91-LDA
 Gradients option       PostSCFGGA      .... off
 Hybrid DFT is turned on
   Fraction HF Exchange ScalHFX         ....  0.100000
   Scaling of DF-GGA-X  ScalDFX         ....  0.900000
   Scaling of DF-GGA-C  ScalDFC         ....  1.000000
   Scaling of DF-LDA-C  ScalLDAC        ....  1.000000
   Perturbative correction              ....  0.000000
   Density functional embedding theory  .... OFF
   NL short-range parameter             ....  5.200000


General Settings:
 Integral files         IntName         .... CuAg
 Hartree-Fock type      HFTyp           .... RHF
 Total Charge           Charge          ....    0
 Multiplicity           Mult            ....    1
 Number of Electrons    NEL             ....   48
 Basis Dimension        Dim             ....  123
 Nuclear Repulsion      ENuc            ....    129.0567575536 Eh

Convergence Acceleration:
 DIIS                   CNVDIIS         .... on
   Start iteration      DIISMaxIt       ....    12
   Startup error        DIISStart       ....  0.200000
   # of expansion vecs  DIISMaxEq       ....     5
   Bias factor          DIISBfac        ....   1.050
   Max. coefficient     DIISMaxC        ....  10.000
 Newton-Raphson         CNVNR           .... off
 SOSCF                  CNVSOSCF        .... off
 Level Shifting         CNVShift        .... on
   Level shift para.    LevelShift      ....    0.2500
   Turn off err/grad.   ShiftErr        ....    0.0010
 Zerner damping         CNVZerner       .... off
 Static damping         CNVDamp         .... on
   Fraction old density DampFac         ....    0.7000
   Max. Damping (<1)    DampMax         ....    0.9800
   Min. Damping (>=0)   DampMin         ....    0.0000
   Turn off err/grad.   DampErr         ....    0.1000
 Fernandez-Rico         CNVRico         .... off

SCF Procedure:
 Maximum # iterations   MaxIter         ....   125
 SCF integral mode      SCFMode         .... Direct
   Integral package                     .... LIBINT
 Reset frequency        DirectResetFreq ....    20
 Integral Threshold     Thresh          ....  1.000e-10 Eh
 Primitive CutOff       TCut            ....  1.000e-11 Eh

Convergence Tolerance:
 Convergence Check Mode ConvCheckMode   .... Total+1el-Energy
 Convergence forced     ConvForced      .... 0
 Energy Change          TolE            ....  1.000e-06 Eh
 1-El. energy change                    ....  1.000e-03 Eh
 DIIS Error             TolErr          ....  1.000e-06


Diagonalization of the overlap matrix:
Smallest eigenvalue                        ... 1.389e-03
Time for diagonalization                   ...    0.007 sec
Threshold for overlap eigenvalues          ... 1.000e-08
Number of eigenvalues below threshold      ... 0
Time for construction of square roots      ...    0.015 sec
Total time needed                          ...    0.022 sec

-------------------
DFT GRID GENERATION
-------------------

General Integration Accuracy     IntAcc      ...  4.670
Radial Grid Type                 RadialGrid  ... Gauss-Chebyshev
Angular Grid (max. acc.)         AngularGrid ... Lebedev-302
Angular grid pruning method      GridPruning ... 3 (G Style)
Weight generation scheme         WeightScheme... Becke
Basis function cutoff            BFCut       ...    1.0000e-10
Integration weight cutoff        WCut        ...    1.0000e-14
Grids for H and He will be reduced by one unit

# of grid points (after initial pruning)     ...  20214 (   0.0 sec)
# of grid points (after weights+screening)   ...  20181 (   0.0 sec)
nearest neighbour list constructed           ...    0.0 sec
Grid point re-assignment to atoms done       ...    0.0 sec
Grid point division into batches done        ...    0.2 sec
Reduced shell lists constructed in    0.2 sec

Total number of grid points                  ...    20181
Total number of batches                      ...      316
Average number of points per batch           ...       63
Average number of grid points per atom       ...    10090
Average number of shells per batch           ...     5.15 (14.73%)
Average number of basis functions per batch  ...    13.62 (11.07%)
Average number of large shells per batch     ...     3.77 (73.13%)
Average number of large basis fcns per batch ...     9.46 (69.49%)
Maximum spatial batch extension              ...  24.44, 24.44, 21.72 au
Average spatial batch extension              ...   0.84,  0.84,  0.61 au

Time for grid setup =    0.442 sec

------------------------------
INITIAL GUESS: MODEL POTENTIAL
------------------------------
Loading Hartree-Fock densities                     ... done
  calling /mnt/storage/software/apps/orca-4.2.0/orca_4_2_0_linux_x86-64_openmpi314/orca CuAg_atom47.inp > CuAg_atom47.out in order to generate an atomic fitting density for atom 1 (Ag with ECP) on-the-fly... 
    atom 1 (Ag), assumed electronic state with S=2: 1s2 2s2 2p6 3s2 3p6 4s2 3d10 4p6 5s2 4d9           ... done
Calculating cut-offs                               ... done
Setting up the integral package                    ... done
Initializing the effective Hamiltonian             ... done
Starting the Coulomb interaction                   ... done (   0.0 sec)
Reading the grid                                   ... done
Mapping shells                                     ... done
Starting the XC term evaluation                    ... done (   0.0 sec)
  promolecular density results
     # of electrons  =     76.000936569
     EX              =   -208.909671623
     EC              =     -3.835187384
     EX+EC           =   -212.744859007
Transforming the Hamiltonian                       ... done (   0.0 sec)
Diagonalizing the Hamiltonian                      ... done (   0.0 sec)
Back transforming the eigenvectors                 ... done (   0.0 sec)
Now organizing SCF variables                       ... done
                      ------------------
                      INITIAL GUESS DONE (   4.1 sec)
                      ------------------
--------------
SCF ITERATIONS
--------------
ITER       Energy         Delta-E        Max-DP      RMS-DP      [F,P]     Damp
               ***  Starting incremental Fock matrix formation  ***
  0  -1787.2999006582   0.000000000000 0.11417331  0.00288034  0.5060714 0.7000
  1  -1787.3776303801  -0.077729721965 0.05741697  0.00166439  0.3273104 0.7000
  2  -1787.4030510136  -0.025420633493 0.03338403  0.00075821  0.2154165 0.7000
                               ***Turning on DIIS***
  3  -1787.4217621824  -0.018711168741 0.02807911  0.00039152  0.1480388 0.7000
  4  -1787.4351944601  -0.013432277695 0.02154291  0.00029431  0.1042434 0.7000
  5  -1787.4445409465  -0.009346486433 0.03572504  0.00061967  0.0731538 0.0000
  6  -1787.4664395347  -0.021898588233 0.00502654  0.00016776  0.0166050 0.0000
  7  -1787.4665943253  -0.000154790552 0.00179760  0.00006113  0.0097583 0.0000
  8  -1787.4666672757  -0.000072950447 0.00146698  0.00002508  0.0010755 0.0000
  9  -1787.4666696348  -0.000002359029 0.00121548  0.00002801  0.0002852 0.0000
 10  -1787.4666702925  -0.000000657776 0.00034651  0.00000824  0.0004500 0.0000
 11  -1787.4666705703  -0.000000277767 0.00021225  0.00000427  0.0000569 0.0000
                 **** Energy Check signals convergence ****

               *****************************************************
               *                     SUCCESS                       *
               *           SCF CONVERGED AFTER  12 CYCLES          *
               *****************************************************


----------------
TOTAL SCF ENERGY
----------------

Total Energy       :        -1787.46667058 Eh          -48639.44089 eV

Components:
Nuclear Repulsion  :          129.05675755 Eh            3511.81291 eV
Electronic Energy  :        -1916.52342814 Eh          -52151.25380 eV
One Electron Energy:        -2806.71335445 Eh          -76374.55318 eV
Two Electron Energy:          890.18992631 Eh           24223.29938 eV

Virial components:
Potential Energy   :        -3481.67879574 Eh          -94741.29659 eV
Kinetic Energy     :         1694.21212515 Eh           46101.85570 eV
Virial Ratio       :            2.05504302


DFT components:
N(Alpha)           :       23.999997491701 electrons
N(Beta)            :       23.999997491701 electrons
N(Total)           :       47.999994983402 electrons
E(X)               :      -71.213535654075 Eh       
E(C)               :       -2.187174753797 Eh       
E(XC)              :      -73.400710407872 Eh       
DFET-embed. en.    :        0.000000000000 Eh       

---------------
SCF CONVERGENCE
---------------

  Last Energy change         ...   -1.3690e-08  Tolerance :   1.0000e-06
  Last MAX-Density change    ...    6.3819e-05  Tolerance :   1.0000e-05
  Last RMS-Density change    ...    1.3270e-06  Tolerance :   1.0000e-06
  Last DIIS Error            ...    4.6369e-05  Tolerance :   1.0000e-06

             **** THE GBW FILE WAS UPDATED (CuAg.gbw) ****
             **** DENSITY FILE WAS UPDATED (CuAg.scfp) ****
             **** ENERGY FILE WAS UPDATED (CuAg.en.tmp) ****
             **** THE GBW FILE WAS UPDATED (CuAg.gbw) ****
             **** DENSITY FILE WAS UPDATED (CuAg.scfp) ****
----------------
ORBITAL ENERGIES
----------------

  NO   OCC          E(Eh)            E(eV) 
   0   2.0000    -322.739348     -8782.1841 
   1   2.0000     -38.612684     -1050.7046 
   2   2.0000     -33.789531      -919.4599 
   3   2.0000     -33.789149      -919.4495 
   4   2.0000     -33.789149      -919.4495 
   5   2.0000      -4.215090      -114.6984 
   6   2.0000      -3.660298       -99.6018 
   7   2.0000      -2.709691       -73.7344 
   8   2.0000      -2.705008       -73.6070 
   9   2.0000      -2.705008       -73.6070 
  10   2.0000      -2.269525       -61.7569 
  11   2.0000      -2.263161       -61.5837 
  12   2.0000      -2.263161       -61.5837 
  13   2.0000      -0.317607        -8.6425 
  14   2.0000      -0.300883        -8.1875 
  15   2.0000      -0.300883        -8.1875 
  16   2.0000      -0.286165        -7.7869 
  17   2.0000      -0.286160        -7.7868 
  18   2.0000      -0.214394        -5.8340 
  19   2.0000      -0.214381        -5.8336 
  20   2.0000      -0.212875        -5.7926 
  21   2.0000      -0.212875        -5.7926 
  22   2.0000      -0.212482        -5.7819 
  23   2.0000      -0.197553        -5.3757 
  24   0.0000      -0.088654        -2.4124 
  25   0.0000      -0.025750        -0.7007 
  26   0.0000      -0.025750        -0.7007 
  27   0.0000      -0.000912        -0.0248 
  28   0.0000       0.043351         1.1796 
  29   0.0000       0.043351         1.1796 
  30   0.0000       0.065697         1.7877 
  31   0.0000       0.101641         2.7658 
  32   0.0000       0.128945         3.5088 
  33   0.0000       0.128946         3.5088 
  34   0.0000       0.151085         4.1112 
  35   0.0000       0.168269         4.5788 
  36   0.0000       0.186326         5.0702 
  37   0.0000       0.186326         5.0702 
  38   0.0000       0.206733         5.6255 
  39   0.0000       0.206733         5.6255 
  40   0.0000       0.265642         7.2285 
  41   0.0000       0.265642         7.2285 
  42   0.0000       0.271742         7.3945 
  43   0.0000       0.446855        12.1595 
  44   0.0000       0.448616        12.2075 
  45   0.0000       0.448619        12.2075 
  46   0.0000       0.567334        15.4379 
  47   0.0000       0.567334        15.4379 
  48   0.0000       0.633738        17.2449 
  49   0.0000       0.669838        18.2272 
  50   0.0000       0.669838        18.2272 
  51   0.0000       0.744547        20.2602 
  52   0.0000       0.889669        24.2091 
  53   0.0000       0.889673        24.2092 
  54   0.0000       0.899853        24.4863 
  55   0.0000       0.899853        24.4863 
  56   0.0000       1.011190        27.5159 
  57   0.0000       1.590472        43.2789 
  58   0.0000       1.590478        43.2791 
  59   0.0000       1.591686        43.3120 
  60   0.0000       1.591686        43.3120 
  61   0.0000       1.626531        44.2602 
  62   0.0000       1.626531        44.2602 
  63   0.0000       1.669286        45.4236 
  64   0.0000       1.669286        45.4236 
  65   0.0000       1.678823        45.6831 
  66   0.0000       1.781405        48.4745 
  67   0.0000       2.054714        55.9116 
  68   0.0000       2.054719        55.9118 
  69   0.0000       2.139671        58.2234 
  70   0.0000       2.139671        58.2234 
  71   0.0000       2.142616        58.3035 
  72   0.0000       2.264227        61.6127 
  73   0.0000       3.008026        81.8525 
  74   0.0000       3.008026        81.8525 
  75   0.0000       3.113181        84.7140 
  76   0.0000       3.173867        86.3653 
  77   0.0000       3.428935        93.3061 
  78   0.0000       3.428948        93.3064 
  79   0.0000       3.432254        93.3964 
  80   0.0000       3.432254        93.3964 
  81   0.0000       3.444408        93.7271 
  82   0.0000       3.444408        93.7271 
  83   0.0000       3.559076        96.8474 
  84   0.0000       3.659518        99.5805 
  85   0.0000       3.659610        99.5830 
  86   0.0000       3.700262       100.6893 
  87   0.0000       3.700262       100.6893 
  88   0.0000       3.935738       107.0969 
  89   0.0000       4.812453       130.9535 
  90   0.0000       4.812453       130.9535 
  91   0.0000       4.813175       130.9732 
  92   0.0000       4.813247       130.9751 
  93   0.0000       4.873591       132.6171 
  94   0.0000       4.873591       132.6171 
  95   0.0000       5.085321       138.3786 
  96   0.0000       5.572772       151.6428 
  97   0.0000       5.572875       151.6456 
  98   0.0000       5.575571       151.7190 
  99   0.0000       5.575571       151.7190 
 100   0.0000       5.578941       151.8107 
 101   0.0000       5.579418       151.8237 
 102   0.0000       5.579453       151.8246 
 103   0.0000       5.579453       151.8246 
 104   0.0000       5.599959       152.3826 
 105   0.0000      13.000524       353.7622 
 106   0.0000      13.000524       353.7622 
 107   0.0000      13.001465       353.7878 
 108   0.0000      13.002157       353.8067 
 109   0.0000      13.002921       353.8275 
 110   0.0000      13.004515       353.8709 
 111   0.0000      13.004515       353.8709 
 112   0.0000      13.006725       353.9310 
 113   0.0000      13.007093       353.9410 
 114   0.0000      13.108268       356.6941 
 115   0.0000      13.108653       356.7046 
 116   0.0000      13.109306       356.7224 
 117   0.0000      13.109306       356.7224 
 118   0.0000      13.116931       356.9298 
 119   0.0000      13.116931       356.9298 
 120   0.0000      13.160247       358.1085 
 121   0.0000      33.473496       910.8601 
 122   0.0000     110.802196      3015.0810 

                    ********************************
                    * MULLIKEN POPULATION ANALYSIS *
                    ********************************

-----------------------
MULLIKEN ATOMIC CHARGES
-----------------------
   0 Cu:    0.091098
   1 Ag:   -0.091098
Sum of atomic charges:   -0.0000000

--------------------------------
MULLIKEN REDUCED ORBITAL CHARGES
--------------------------------
  0 Cus       :     6.904145  s :     6.904145
      pz      :     4.016677  p :    12.046308
      px      :     4.014816
      py      :     4.014816
      dz2     :     1.975009  d :     9.957981
      dxz     :     1.990420
      dyz     :     1.990420
      dx2y2   :     2.001066
      dxy     :     2.001066
      f0      :     0.000196  f :     0.000466
      f+1     :     0.000117
      f-1     :     0.000117
      f+2     :     0.000018
      f-2     :     0.000018
      f+3     :     0.000000
      f-3     :     0.000000
      g0      :     0.000001  g :     0.000002
      g+1     :     0.000000
      g-1     :     0.000000
      g+2     :     0.000000
      g-2     :     0.000000
      g+3     :     0.000000
      g-3     :     0.000000
      g+4     :     0.000000
      g-4     :     0.000000
  1 Ags       :     3.106226  s :     3.106226
      pz      :     2.040740  p :     6.063682
      px      :     2.011471
      py      :     2.011471
      dz2     :     1.956106  d :     9.918986
      dxz     :     1.982625
      dyz     :     1.982625
      dx2y2   :     1.998815
      dxy     :     1.998815
      f0      :     0.000884  f :     0.002167
      f+1     :     0.000542
      f-1     :     0.000542
      f+2     :     0.000099
      f-2     :     0.000099
      f+3     :     0.000000
      f-3     :     0.000000
      g0      :     0.000017  g :     0.000037
      g+1     :     0.000009
      g-1     :     0.000009
      g+2     :     0.000002
      g-2     :     0.000002
      g+3     :     0.000000
      g-3     :     0.000000
      g+4     :     0.000000
      g-4     :     0.000000


                     *******************************
                     * LOEWDIN POPULATION ANALYSIS *
                     *******************************

----------------------
LOEWDIN ATOMIC CHARGES
----------------------
   0 Cu:   -0.117784
   1 Ag:    0.117784

-------------------------------
LOEWDIN REDUCED ORBITAL CHARGES
-------------------------------
  0 Cus       :     6.916164  s :     6.916164
      pz      :     4.128777  p :    12.168885
      px      :     4.020054
      py      :     4.020054
      dz2     :     2.038156  d :    10.032060
      dxz     :     1.994259
      dyz     :     1.994259
      dx2y2   :     2.002693
      dxy     :     2.002693
      f0      :     0.000282  f :     0.000672
      f+1     :     0.000173
      f-1     :     0.000173
      f+2     :     0.000022
      f-2     :     0.000022
      f+3     :     0.000000
      f-3     :     0.000000
      g0      :     0.000001  g :     0.000002
      g+1     :     0.000001
      g-1     :     0.000001
      g+2     :     0.000000
      g-2     :     0.000000
      g+3     :     0.000000
      g-3     :     0.000000
      g+4     :     0.000000
      g-4     :     0.000000
  1 Ags       :     2.845067  s :     2.845067
      pz      :     2.089543  p :     6.109935
      px      :     2.010196
      py      :     2.010196
      dz2     :     1.980349  d :     9.923210
      dxz     :     1.974276
      dyz     :     1.974276
      dx2y2   :     1.997155
      dxy     :     1.997154
      f0      :     0.001636  f :     0.003938
      f+1     :     0.001024
      f-1     :     0.001024
      f+2     :     0.000128
      f-2     :     0.000128
      f+3     :     0.000000
      f-3     :     0.000000
      g0      :     0.000026  g :     0.000066
      g+1     :     0.000017
      g-1     :     0.000017
      g+2     :     0.000003
      g-2     :     0.000003
      g+3     :     0.000000
      g-3     :     0.000000
      g+4     :     0.000000
      g-4     :     0.000000


                      *****************************
                      * MAYER POPULATION ANALYSIS *
                      *****************************

  NA   - Mulliken gross atomic population
  ZA   - Total nuclear charge
  QA   - Mulliken gross atomic charge
  VA   - Mayer's total valence
  BVA  - Mayer's bonded valence
  FA   - Mayer's free valence

  ATOM       NA         ZA         QA         VA         BVA        FA
  0 Cu    28.9089    29.0000     0.0911     1.1180     1.1180    -0.0000
  1 Ag    19.0911    19.0000    -0.0911     1.1180     1.1180     0.0000

  Mayer bond orders larger than 0.100000
B(  0-Cu,  1-Ag) :   1.1180 

-------
TIMINGS
-------

Total SCF time: 0 days 0 hours 0 min 9 sec 

Total time                  ....       9.885 sec
Sum of individual times     ....       9.360 sec  ( 94.7%)

Fock matrix formation       ....       4.953 sec  ( 50.1%)
  XC integration            ....       1.125 sec  ( 22.7% of F)
    Basis function eval.    ....       0.027 sec  (  2.4% of XC)
    Density eval.           ....       0.038 sec  (  3.4% of XC)
    XC-Functional eval.     ....       0.028 sec  (  2.5% of XC)
    XC-Potential eval.      ....       0.072 sec  (  6.4% of XC)
Diagonalization             ....       0.068 sec  (  0.7%)
Density matrix formation    ....       0.006 sec  (  0.1%)
Population analysis         ....       0.074 sec  (  0.7%)
Initial guess               ....       3.678 sec  ( 37.2%)
Orbital Transformation      ....       0.000 sec  (  0.0%)
Orbital Orthonormalization  ....       0.000 sec  (  0.0%)
DIIS solution               ....       0.140 sec  (  1.4%)
Grid generation             ....       0.442 sec  (  4.5%)


-------------------------------------------------------------------------------
                          DFT DISPERSION CORRECTION                            
                                                                               
                              DFTD3 V3.1  Rev 1                                
                          USING Becke-Johnson damping                          
-------------------------------------------------------------------------------
The TPSSH functional is recognized
Active option DFTDOPT                   ...         4   

molecular C6(AA) [au] = 885.761287 


            DFT-D V3
 parameters
 s6 scaling factor         :     1.0000 
 a1 scaling factor         :     0.4529 
 s8 scaling factor         :     2.2382 
 a2 scaling factor         :     4.6550 
 ad hoc parameters k1-k3   :    16.0000     1.3333    -4.0000 

 Edisp/kcal,au: -0.985118147098  -0.001569885528 
 E6   /kcal   :  -0.284022965 
 E8   /kcal   :  -0.701095182 
 % E8         :  71.168639438 

-------------------------   ----------------
Dispersion correction           -0.001569886
-------------------------   ----------------


-------------------------   --------------------
FINAL SINGLE POINT ENERGY     -1787.468240469533
-------------------------   --------------------


                            ***************************************
                            *     ORCA property calculations      *
                            ***************************************

                                    ---------------------
                                    Active property flags
                                    ---------------------
   (+) Dipole Moment


------------------------------------------------------------------------------
                       ORCA ELECTRIC PROPERTIES CALCULATION
------------------------------------------------------------------------------

Dipole Moment Calculation                       ... on
Quadrupole Moment Calculation                   ... off
Polarizability Calculation                      ... off
GBWName                                         ... CuAg.gbw
Electron density file                           ... CuAg.scfp
The origin for moment calculation is the CENTER OF MASS  = ( 0.000000,  0.000000  2.686643)

-------------
DIPOLE MOMENT
-------------
                                X             Y             Z
Electronic contribution:      0.00000      -0.00000      47.84940
Nuclear contribution   :      0.00000       0.00000     -47.83954
                        -----------------------------------------
Total Dipole Moment    :      0.00000      -0.00000       0.00987
                        -----------------------------------------
Magnitude (a.u.)       :      0.00987
Magnitude (Debye)      :      0.02508



--------------------
Rotational spectrum 
--------------------
 
Rotational constants in cm-1:     0.000000     0.082584     0.082584 
Rotational constants in MHz :     0.000000  2475.819054  2475.819054 

 Dipole components along the rotational axes: 
x,y,z [a.u.] :     0.009865    -0.000000     0.000000 
x,y,z [Debye]:     0.025076    -0.000000     0.000000 

 

Timings for individual modules:

Sum of individual times         ...       17.907 sec (=   0.298 min)
GTO integral calculation        ...        5.242 sec (=   0.087 min)  29.3 %
SCF iterations                  ...       12.665 sec (=   0.211 min)  70.7 %
                             ****ORCA TERMINATED NORMALLY****
TOTAL RUN TIME: 0 days 0 hours 0 minutes 21 seconds 78 msec
