
                                 *****************
                                 * O   R   C   A *
                                 *****************

           --- An Ab Initio, DFT and Semiempirical electronic structure package ---

                  #######################################################
                  #                        -***-                        #
                  #          Department of theory and spectroscopy      #
                  #               Directorship: Frank Neese             #
                  #        Max Planck Institute fuer Kohlenforschung    #
                  #                Kaiser Wilhelm Platz 1               #
                  #                 D-45470 Muelheim/Ruhr               #
                  #                      Germany                        #
                  #                                                     #
                  #                  All rights reserved                #
                  #                        -***-                        #
                  #######################################################


                         Program Version 4.2.0 -  RELEASE  -


 With contributions from (in alphabetic order):
   Daniel Aravena         : Magnetic Suceptibility
   Michael Atanasov       : Ab Initio Ligand Field Theory (pilot matlab implementation)
   Alexander A. Auer      : GIAO ZORA, VPT2
   Ute Becker             : Parallelization
   Giovanni Bistoni       : ED, misc. LED, open-shell LED, HFLED
   Martin Brehm           : Molecular dynamics
   Dmytro Bykov           : SCF Hessian
   Vijay G. Chilkuri      : MRCI spin determinant printing, contributions to CSF-ICE
   Dipayan Datta          : RHF DLPNO-CCSD density
   Achintya Kumar Dutta   : EOM-CC, STEOM-CC
   Dmitry Ganyushin       : Spin-Orbit,Spin-Spin,Magnetic field MRCI
   Miquel Garcia          : C-PCM Hessian, Gaussian charge scheme
   Yang Guo               : DLPNO-NEVPT2, CIM, IAO-localization
   Andreas Hansen         : Spin unrestricted coupled pair/coupled cluster methods
   Benjamin Helmich-Paris : CASSCF linear response (MC-RPA)
   Lee Huntington         : MR-EOM, pCC
   Robert Izsak           : Overlap fitted RIJCOSX, COSX-SCS-MP3, EOM
   Christian Kollmar      : KDIIS, OOCD, Brueckner-CCSD(T), CCSD density
   Simone Kossmann        : Meta GGA functionals, TD-DFT gradient, OOMP2, MP2 Hessian
   Martin Krupicka        : AUTO-CI
   Lucas Lang             : DCDCAS
   Dagmar Lenk            : GEPOL surface, SMD
   Dimitrios Liakos       : Extrapolation schemes; Compound Job, initial MDCI parallelization
   Dimitrios Manganas     : Further ROCIS development; embedding schemes
   Dimitrios Pantazis     : SARC Basis sets
   Taras Petrenko         : DFT Hessian,TD-DFT gradient, ASA, ECA, R-Raman, ABS, FL, XAS/XES, NRVS
   Peter Pinski           : DLPNO-MP2, DLPNO-MP2 Gradient
   Christoph Reimann      : Effective Core Potentials
   Marius Retegan         : Local ZFS, SOC
   Christoph Riplinger    : Optimizer, TS searches, QM/MM, DLPNO-CCSD(T), (RO)-DLPNO pert. Triples
   Tobias Risthaus        : Range-separated hybrids, TD-DFT gradient, RPA, STAB
   Michael Roemelt        : Original ROCIS implementation
   Masaaki Saitow         : Open-shell DLPNO-CCSD energy and density
   Barbara Sandhoefer     : DKH picture change effects
   Avijit Sen             : IP-ROCIS
   Kantharuban Sivalingam : CASSCF convergence, NEVPT2, FIC-MRCI
   Bernardo de Souza      : ESD, SOC TD-DFT
   Georgi Stoychev        : AutoAux, RI-MP2 NMR
   Willem Van den Heuvel  : Paramagnetic NMR
   Boris Wezisla          : Elementary symmetry handling
   Frank Wennmohs         : Technical directorship


 We gratefully acknowledge several colleagues who have allowed us to
 interface, adapt or use parts of their codes:
   Stefan Grimme, W. Hujo, H. Kruse,             : VdW corrections, initial TS optimization,
                  C. Bannwarth                     DFT functionals, gCP, sTDA/sTD-DF
   Ed Valeev, F. Pavosevic, A. Kumar             : LibInt (2-el integral package), F12 methods
   Garnet Chan, S. Sharma, J. Yang, R. Olivares  : DMRG
   Ulf Ekstrom                                   : XCFun DFT Library
   Mihaly Kallay                                 : mrcc  (arbitrary order and MRCC methods)
   Andreas Klamt, Michael Diedenhofen            : otool_cosmo (COSMO solvation model)
   Jiri Pittner, Ondrej Demel                    : Mk-CCSD
   Frank Weinhold                                : gennbo (NPA and NBO analysis)
   Christopher J. Cramer and Donald G. Truhlar   : smd solvation model
   Lars Goerigk                                  : TD-DFT with DH, B97 family of functionals
   V. Asgeirsson, H. Jonsson                     : NEB implementation
   FAccTs GmbH                                   : IRC, NEB, NEB-TS, Multilevel, MM, QM/MM, CI optimization
   S Lehtola, MJT Oliveira, MAL Marques          : LibXC Library


 Your calculation uses the libint2 library for the computation of 2-el integrals
 For citations please refer to: http://libint.valeyev.net

 Your ORCA version has been built with support for libXC version: 4.2.3
 For citations please refer to: https://tddft.org/programs/libxc/

 This ORCA versions uses:
   CBLAS   interface :  Fast vector & matrix operations
   LAPACKE interface :  Fast linear algebra routines
   SCALAPACK package :  Parallel linear algebra routines


Your calculation utilizes the atom-pairwise dispersion correction
with the Becke-Johnson damping scheme (D3BJ)
Cite in your paper:
S.Grimme, S.Ehrlich, L.Goerigk, J Comput Chem, (2011), 32, 1456–1465 
S.Grimme, J.Antony, S.Ehrlich and H.Krieg, J.Chem.Phys., 132, (2010), 154104 
   

----- Orbital basis set information -----
Your calculation utilizes the basis: def2-TZVPPD
   F. Weigend and R. Ahlrichs, Phys. Chem. Chem. Phys. 7, 3297 (2005).
   D. Rappoport and F. Furche, J. Chem. Phys. 133 134105 (2010).

----- AuxJK basis set information -----
Your calculation utilizes the auxiliary basis: def2/JK
   H-Ba, Hf-Rn: F. Weigend, J. Comput. Chem. 29, 167 (2008).

================================================================================
                                        WARNINGS
                       Please study these warnings very carefully!
================================================================================


WARNING: your system is open-shell and RHF/RKS was chosen
  ===> : WILL SWITCH to UHF/UKS


INFO   : the flag for use of LIBINT has been found!

================================================================================
                                       INPUT FILE
================================================================================
NAME = FeH.in
|  1> #
|  2> # FeH TPSSh-D3BJ/Def2-TZVPPD
|  3> #
|  4> ! tpssh d3bj def2-tzvppd def2/jk grid4 nofinalgrid
|  5> 
|  6> *xyz 0 4
|  7> Fe         0.00000        0.00000        0.00000
|  8> H          0.00000        0.00000        1.61000
|  9> *
| 10> 
| 11> %maxcore 5000
| 12> 
| 13> %pal
| 14> nprocs = 28
| 15> end
| 16> 
| 17> 
| 18>                          ****END OF INPUT****
================================================================================

                       ****************************
                       * Single Point Calculation *
                       ****************************

---------------------------------
CARTESIAN COORDINATES (ANGSTROEM)
---------------------------------
  Fe     0.000000    0.000000    0.000000
  H      0.000000    0.000000    1.610000

----------------------------
CARTESIAN COORDINATES (A.U.)
----------------------------
  NO LB      ZA    FRAG     MASS         X           Y           Z
   0 Fe   26.0000    0    55.850    0.000000    0.000000    0.000000
   1 H     1.0000    0     1.008    0.000000    0.000000    3.042459

--------------------------------
INTERNAL COORDINATES (ANGSTROEM)
--------------------------------
 Fe     0   0   0     0.000000000000     0.00000000     0.00000000
 H      1   0   0     1.610000000000     0.00000000     0.00000000

---------------------------
INTERNAL COORDINATES (A.U.)
---------------------------
 Fe     0   0   0     0.000000000000     0.00000000     0.00000000
 H      1   0   0     3.042459075613     0.00000000     0.00000000

---------------------
BASIS SET INFORMATION
---------------------
There are 2 groups of distinct atoms

 Group   1 Type Fe  : 17s13p7d2f1g contracted to 6s6p4d2f1g pattern {842111/631111/4111/11/1}
 Group   2 Type H   : 5s3p1d contracted to 3s3p1d pattern {311/111/1}

Atom   0Fe   basis set group =>   1
Atom   1H    basis set group =>   2
----------------------------------
AUXILIARY/JK BASIS SET INFORMATION
----------------------------------
There are 2 groups of distinct atoms

 Group   1 Type Fe  : 19s14p12d10f7g3h1i contracted to 16s13p11d9f5g3h1i pattern {4111111111111111/2111111111111/21111111111/211111111/31111/111/1}
 Group   2 Type H   : 4s2p2d contracted to 2s2p2d pattern {31/11/11}

Atom   0Fe   basis set group =>   1
Atom   1H    basis set group =>   2


           ************************************************************
           *        Program running with 28 parallel MPI-processes    *
           *              working on a common directory               *
           ************************************************************
------------------------------------------------------------------------------
                           ORCA GTO INTEGRAL CALCULATION
------------------------------------------------------------------------------

                         BASIS SET STATISTICS AND STARTUP INFO

 # of primitive gaussian shells          ...   49
 # of primitive gaussian functions       ...  133
 # of contracted shells                  ...   26
 # of contracted basis functions         ...   84
 Highest angular momentum                ...    4
 Maximum contraction depth               ...    8
 Integral package used                   ... LIBINT
 Integral threshhold            Thresh   ...  1.000e-10
 Primitive cut-off              TCut     ...  1.000e-11


------------------------------ INTEGRAL EVALUATION ----------------------------


 * One electron integrals 
 Pre-screening matrix                    ... done
 Shell pair data                         ... done (   0.000 sec)



           ************************************************************
           *        Program running with 28 parallel MPI-processes    *
           *              working on a common directory               *
           ************************************************************
-------------------------------------------------------------------------------
                                 ORCA SCF
-------------------------------------------------------------------------------

------------
SCF SETTINGS
------------
Hamiltonian:
 Density Functional     Method          .... DFT(GTOs)
 Exchange Functional    Exchange        .... TPSS
 Correlation Functional Correlation     .... TPSS
 LDA part of GGA corr.  LDAOpt          .... PW91-LDA
 Gradients option       PostSCFGGA      .... off
 Hybrid DFT is turned on
   Fraction HF Exchange ScalHFX         ....  0.100000
   Scaling of DF-GGA-X  ScalDFX         ....  0.900000
   Scaling of DF-GGA-C  ScalDFC         ....  1.000000
   Scaling of DF-LDA-C  ScalLDAC        ....  1.000000
   Perturbative correction              ....  0.000000
   Density functional embedding theory  .... OFF
   NL short-range parameter             ....  5.200000


General Settings:
 Integral files         IntName         .... FeH
 Hartree-Fock type      HFTyp           .... UHF
 Total Charge           Charge          ....    0
 Multiplicity           Mult            ....    4
 Number of Electrons    NEL             ....   27
 Basis Dimension        Dim             ....   84
 Nuclear Repulsion      ENuc            ....      8.5457188918 Eh

Convergence Acceleration:
 DIIS                   CNVDIIS         .... on
   Start iteration      DIISMaxIt       ....    12
   Startup error        DIISStart       ....  0.200000
   # of expansion vecs  DIISMaxEq       ....     5
   Bias factor          DIISBfac        ....   1.050
   Max. coefficient     DIISMaxC        ....  10.000
 Newton-Raphson         CNVNR           .... off
 SOSCF                  CNVSOSCF        .... off
 Level Shifting         CNVShift        .... on
   Level shift para.    LevelShift      ....    0.2500
   Turn off err/grad.   ShiftErr        ....    0.0010
 Zerner damping         CNVZerner       .... off
 Static damping         CNVDamp         .... on
   Fraction old density DampFac         ....    0.7000
   Max. Damping (<1)    DampMax         ....    0.9800
   Min. Damping (>=0)   DampMin         ....    0.0000
   Turn off err/grad.   DampErr         ....    0.1000
 Fernandez-Rico         CNVRico         .... off

SCF Procedure:
 Maximum # iterations   MaxIter         ....   125
 SCF integral mode      SCFMode         .... Direct
   Integral package                     .... LIBINT
 Reset frequency        DirectResetFreq ....    20
 Integral Threshold     Thresh          ....  1.000e-10 Eh
 Primitive CutOff       TCut            ....  1.000e-11 Eh

Convergence Tolerance:
 Convergence Check Mode ConvCheckMode   .... Total+1el-Energy
 Convergence forced     ConvForced      .... 0
 Energy Change          TolE            ....  1.000e-06 Eh
 1-El. energy change                    ....  1.000e-03 Eh
 DIIS Error             TolErr          ....  1.000e-06


Diagonalization of the overlap matrix:
Smallest eigenvalue                        ... 3.098e-03
Time for diagonalization                   ...    0.002 sec
Threshold for overlap eigenvalues          ... 1.000e-08
Number of eigenvalues below threshold      ... 0
Time for construction of square roots      ...    0.023 sec
Total time needed                          ...    0.026 sec

-------------------
DFT GRID GENERATION
-------------------

General Integration Accuracy     IntAcc      ...  4.670
Radial Grid Type                 RadialGrid  ... Gauss-Chebyshev
Angular Grid (max. acc.)         AngularGrid ... Lebedev-302
Angular grid pruning method      GridPruning ... 3 (G Style)
Weight generation scheme         WeightScheme... Becke
Basis function cutoff            BFCut       ...    1.0000e-10
Integration weight cutoff        WCut        ...    1.0000e-14
Grids for H and He will be reduced by one unit

# of grid points (after initial pruning)     ...  13034 (   0.0 sec)
# of grid points (after weights+screening)   ...  12994 (   0.0 sec)
nearest neighbour list constructed           ...    0.0 sec
Grid point re-assignment to atoms done       ...    0.0 sec
Grid point division into batches done        ...    0.1 sec
Reduced shell lists constructed in    0.1 sec

Total number of grid points                  ...    12994
Total number of batches                      ...      204
Average number of points per batch           ...       63
Average number of grid points per atom       ...     6497
Average number of shells per batch           ...     5.22 (20.09%)
Average number of basis functions per batch  ...    13.89 (16.53%)
Average number of large shells per batch     ...     3.33 (63.83%)
Average number of large basis fcns per batch ...     9.78 (70.40%)
Maximum spatial batch extension              ...  31.41, 28.57, 17.22 au
Average spatial batch extension              ...   0.94,  0.82,  0.61 au

Time for grid setup =    0.112 sec

------------------------------
INITIAL GUESS: MODEL POTENTIAL
------------------------------
Loading Hartree-Fock densities                     ... done
Calculating cut-offs                               ... done
Setting up the integral package                    ... done
Initializing the effective Hamiltonian             ... done
Starting the Coulomb interaction                   ... done (   0.0 sec)
Reading the grid                                   ... done
Mapping shells                                     ... done
Starting the XC term evaluation                    ... done (   0.0 sec)
  promolecular density results
     # of electrons  =     26.999505627
     EX              =    -54.360453162
     EC              =     -1.162317155
     EX+EC           =    -55.522770317
Transforming the Hamiltonian                       ... done (   0.0 sec)
Diagonalizing the Hamiltonian                      ... done (   0.0 sec)
Back transforming the eigenvectors                 ... done (   0.0 sec)
Now organizing SCF variables                       ... done
                      ------------------
                      INITIAL GUESS DONE (   0.2 sec)
                      ------------------
--------------
SCF ITERATIONS
--------------
ITER       Energy         Delta-E        Max-DP      RMS-DP      [F,P]     Damp
               ***  Starting incremental Fock matrix formation  ***
  0  -1264.1666846311   0.000000000000 0.02941034  0.00109077  0.2368415 0.7000
  1  -1264.2041776005  -0.037492969431 0.02113471  0.00060260  0.0759946 0.7000
                               ***Turning on DIIS***
  2  -1264.2176974829  -0.013519882315 0.08183941  0.00153249  0.0465297 0.0000
  3  -1264.2515136962  -0.033816213290 0.01360441  0.00039451  0.0369719 0.0000
  4  -1264.2555347433  -0.004021047132 0.00810819  0.00020023  0.0132139 0.0000
  5  -1264.2562694065  -0.000734663219 0.00431394  0.00012221  0.0053576 0.0000
  6  -1264.2565209783  -0.000251571780 0.00374882  0.00007796  0.0032359 0.0000
  7  -1264.2566315466  -0.000110568271 0.00239238  0.00005569  0.0014508 0.0000
  8  -1264.2566843394  -0.000052792845 0.00350798  0.00008054  0.0004947 0.0000
  9  -1264.2567286808  -0.000044341387 0.00102639  0.00002110  0.0003322 0.0000
 10  -1264.2567335707  -0.000004889963 0.00098859  0.00001804  0.0000727 0.0000
 11  -1264.2567358947  -0.000002323950 0.00055662  0.00001228  0.0001050 0.0000
 12  -1264.2567366185  -0.000000723789 0.00016195  0.00000312  0.0001289 0.0000
                 **** Energy Check signals convergence ****

               *****************************************************
               *                     SUCCESS                       *
               *           SCF CONVERGED AFTER  13 CYCLES          *
               *****************************************************


----------------
TOTAL SCF ENERGY
----------------

Total Energy       :        -1264.25673669 Eh          -34402.17478 eV

Components:
Nuclear Repulsion  :            8.54571889 Eh             232.54083 eV
Electronic Energy  :        -1272.80245558 Eh          -34634.71561 eV
One Electron Energy:        -1765.23835630 Eh          -48034.57771 eV
Two Electron Energy:          492.43590072 Eh           13399.86209 eV

Virial components:
Potential Energy   :        -2526.39509895 Eh          -68746.70566 eV
Kinetic Energy     :         1262.13836225 Eh           34344.53088 eV
Virial Ratio       :            2.00167840


DFT components:
N(Alpha)           :       15.000000191611 electrons
N(Beta)            :       12.000000679418 electrons
N(Total)           :       27.000000871029 electrons
E(X)               :      -49.419738203654 Eh       
E(C)               :       -1.165100107894 Eh       
E(XC)              :      -50.584838311548 Eh       
DFET-embed. en.    :        0.000000000000 Eh       

---------------
SCF CONVERGENCE
---------------

  Last Energy change         ...   -7.4557e-08  Tolerance :   1.0000e-06
  Last MAX-Density change    ...    1.0782e-04  Tolerance :   1.0000e-05
  Last RMS-Density change    ...    2.1347e-06  Tolerance :   1.0000e-06
  Last DIIS Error            ...    1.7894e-05  Tolerance :   1.0000e-06

             **** THE GBW FILE WAS UPDATED (FeH.gbw) ****
             **** DENSITY FILE WAS UPDATED (FeH.scfp) ****
             **** ENERGY FILE WAS UPDATED (FeH.en.tmp) ****
----------------------
UHF SPIN CONTAMINATION
----------------------

Warning: in a DFT calculation there is little theoretical justification to 
         calculate <S**2> as in Hartree-Fock theory. We will do it anyways
         but you should keep in mind that the values have only limited relevance

Expectation value of <S**2>     :     3.793906
Ideal value S*(S+1) for S=1.5   :     3.750000
Deviation                       :     0.043906

             **** THE GBW FILE WAS UPDATED (FeH.gbw) ****
             **** DENSITY FILE WAS UPDATED (FeH.scfp) ****
----------------
ORBITAL ENERGIES
----------------
                 SPIN UP ORBITALS
  NO   OCC          E(Eh)            E(eV) 
   0   1.0000    -255.787780     -6960.3393 
   1   1.0000     -29.814255      -811.2871 
   2   1.0000     -25.658090      -698.1921 
   3   1.0000     -25.658090      -698.1921 
   4   1.0000     -25.629285      -697.4083 
   5   1.0000      -3.385002       -92.1106 
   6   1.0000      -2.181884       -59.3721 
   7   1.0000      -2.181884       -59.3721 
   8   1.0000      -2.121648       -57.7330 
   9   1.0000      -0.267352        -7.2750 
  10   1.0000      -0.246104        -6.6968 
  11   1.0000      -0.246103        -6.6968 
  12   1.0000      -0.196971        -5.3599 
  13   1.0000      -0.191028        -5.1981 
  14   1.0000      -0.191028        -5.1981 
  15   0.0000      -0.079288        -2.1575 
  16   0.0000      -0.026072        -0.7094 
  17   0.0000      -0.026072        -0.7094 
  18   0.0000       0.059573         1.6211 
  19   0.0000       0.073015         1.9868 
  20   0.0000       0.102585         2.7915 
  21   0.0000       0.102586         2.7915 
  22   0.0000       0.143154         3.8954 
  23   0.0000       0.176206         4.7948 
  24   0.0000       0.176206         4.7948 
  25   0.0000       0.182242         4.9590 
  26   0.0000       0.182244         4.9591 
  27   0.0000       0.287605         7.8261 
  28   0.0000       0.290608         7.9079 
  29   0.0000       0.290608         7.9079 
  30   0.0000       0.337968         9.1966 
  31   0.0000       0.492007        13.3882 
  32   0.0000       0.539295        14.6750 
  33   0.0000       0.539295        14.6750 
  34   0.0000       0.590057        16.0563 
  35   0.0000       0.808379        21.9971 
  36   0.0000       0.808379        21.9971 
  37   0.0000       0.871166        23.7056 
  38   0.0000       0.871172        23.7058 
  39   0.0000       1.005594        27.3636 
  40   0.0000       1.074979        29.2517 
  41   0.0000       1.074979        29.2517 
  42   0.0000       1.231932        33.5226 
  43   0.0000       2.287490        62.2458 
  44   0.0000       2.307955        62.8027 
  45   0.0000       2.307955        62.8027 
  46   0.0000       2.330098        63.4052 
  47   0.0000       2.330098        63.4052 
  48   0.0000       2.334243        63.5180 
  49   0.0000       2.334244        63.5180 
  50   0.0000       2.385236        64.9056 
  51   0.0000       2.385236        64.9056 
  52   0.0000       2.544656        69.2436 
  53   0.0000       2.790654        75.9376 
  54   0.0000       2.881823        78.4184 
  55   0.0000       3.334341        90.7320 
  56   0.0000       3.334414        90.7340 
  57   0.0000       3.377547        91.9077 
  58   0.0000       3.447149        93.8017 
  59   0.0000       3.447152        93.8018 
  60   0.0000       3.506089        95.4055 
  61   0.0000       3.506089        95.4055 
  62   0.0000       3.680745       100.1582 
  63   0.0000       3.680745       100.1582 
  64   0.0000       4.058648       110.4414 
  65   0.0000       4.058648       110.4414 
  66   0.0000       4.127114       112.3045 
  67   0.0000       4.848594       131.9370 
  68   0.0000       8.492482       231.0922 
  69   0.0000       8.492507       231.0929 
  70   0.0000       8.545919       232.5463 
  71   0.0000       8.545919       232.5463 
  72   0.0000       8.557868       232.8714 
  73   0.0000       8.557869       232.8715 
  74   0.0000       8.579738       233.4665 
  75   0.0000       8.579738       233.4665 
  76   0.0000       8.620235       234.5685 
  77   0.0000       9.126571       248.3466 
  78   0.0000       9.126571       248.3466 
  79   0.0000       9.196902       250.2604 
  80   0.0000       9.196924       250.2610 
  81   0.0000       9.286259       252.6920 
  82   0.0000       9.286259       252.6920 
  83   0.0000       9.576945       260.6019 

                 SPIN DOWN ORBITALS
  NO   OCC          E(Eh)            E(eV) 
   0   1.0000    -255.786820     -6960.3132 
   1   1.0000     -29.768211      -810.0342 
   2   1.0000     -25.613144      -696.9691 
   3   1.0000     -25.613144      -696.9691 
   4   1.0000     -25.603723      -696.7127 
   5   1.0000      -3.262228       -88.7698 
   6   1.0000      -2.034471       -55.3608 
   7   1.0000      -2.034217       -55.3539 
   8   1.0000      -2.034217       -55.3539 
   9   1.0000      -0.260551        -7.0900 
  10   1.0000      -0.141064        -3.8385 
  11   1.0000      -0.141064        -3.8385 
  12   0.0000      -0.081004        -2.2042 
  13   0.0000      -0.038586        -1.0500 
  14   0.0000      -0.038582        -1.0499 
  15   0.0000      -0.011977        -0.3259 
  16   0.0000      -0.003672        -0.0999 
  17   0.0000      -0.003672        -0.0999 
  18   0.0000       0.077368         2.1053 
  19   0.0000       0.086520         2.3543 
  20   0.0000       0.126466         3.4413 
  21   0.0000       0.126466         3.4413 
  22   0.0000       0.161026         4.3817 
  23   0.0000       0.179589         4.8869 
  24   0.0000       0.179589         4.8869 
  25   0.0000       0.211760         5.7623 
  26   0.0000       0.211883         5.7656 
  27   0.0000       0.294980         8.0268 
  28   0.0000       0.294980         8.0268 
  29   0.0000       0.298678         8.1274 
  30   0.0000       0.357364         9.7244 
  31   0.0000       0.490894        13.3579 
  32   0.0000       0.579544        15.7702 
  33   0.0000       0.579544        15.7702 
  34   0.0000       0.605358        16.4726 
  35   0.0000       0.812741        22.1158 
  36   0.0000       0.812741        22.1158 
  37   0.0000       0.946285        25.7497 
  38   0.0000       0.946350        25.7515 
  39   0.0000       1.051981        28.6259 
  40   0.0000       1.087734        29.5987 
  41   0.0000       1.087734        29.5987 
  42   0.0000       1.243571        33.8393 
  43   0.0000       2.328738        63.3682 
  44   0.0000       2.374969        64.6262 
  45   0.0000       2.374969        64.6262 
  46   0.0000       2.378651        64.7264 
  47   0.0000       2.378654        64.7265 
  48   0.0000       2.431122        66.1542 
  49   0.0000       2.431122        66.1542 
  50   0.0000       2.482238        67.5451 
  51   0.0000       2.482238        67.5451 
  52   0.0000       2.578016        70.1514 
  53   0.0000       2.833709        77.1092 
  54   0.0000       2.939905        79.9989 
  55   0.0000       3.336939        90.8027 
  56   0.0000       3.337024        90.8050 
  57   0.0000       3.477601        94.6303 
  58   0.0000       3.551547        96.6425 
  59   0.0000       3.551547        96.6425 
  60   0.0000       3.558471        96.8309 
  61   0.0000       3.558475        96.8310 
  62   0.0000       3.688608       100.3721 
  63   0.0000       3.688608       100.3721 
  64   0.0000       4.058293       110.4318 
  65   0.0000       4.058293       110.4318 
  66   0.0000       4.143827       112.7593 
  67   0.0000       4.879456       132.7767 
  68   0.0000       8.628969       234.8062 
  69   0.0000       8.628969       234.8062 
  70   0.0000       8.636000       234.9975 
  71   0.0000       8.636023       234.9981 
  72   0.0000       8.643853       235.2112 
  73   0.0000       8.643854       235.2112 
  74   0.0000       8.676766       236.1068 
  75   0.0000       8.676766       236.1068 
  76   0.0000       8.729911       237.5529 
  77   0.0000       9.294837       252.9254 
  78   0.0000       9.294858       252.9260 
  79   0.0000       9.316332       253.5103 
  80   0.0000       9.316332       253.5103 
  81   0.0000       9.421108       256.3614 
  82   0.0000       9.421108       256.3614 
  83   0.0000       9.726027       264.6587 

                    ********************************
                    * MULLIKEN POPULATION ANALYSIS *
                    ********************************

--------------------------------------------
MULLIKEN ATOMIC CHARGES AND SPIN POPULATIONS
--------------------------------------------
   0 Fe:    0.047800    3.219188
   1 H :   -0.047800   -0.219188
Sum of atomic charges         :    0.0000000
Sum of atomic spin populations:    3.0000000

-----------------------------------------------------
MULLIKEN REDUCED ORBITAL CHARGES AND SPIN POPULATIONS
-----------------------------------------------------
CHARGE
  0 Fes       :     6.917663  s :     6.917663
      pz      :     4.093117  p :    12.097365
      px      :     4.002124
      py      :     4.002124
      dz2     :     0.953313  d :     6.936396
      dxz     :     1.991588
      dyz     :     1.991588
      dx2y2   :     0.999954
      dxy     :     0.999954
      f0      :     0.000426  f :     0.000712
      f+1     :     0.000116
      f-1     :     0.000116
      f+2     :     0.000027
      f-2     :     0.000027
      f+3     :     0.000000
      f-3     :     0.000000
      g0      :     0.000014  g :     0.000063
      g+1     :     0.000008
      g-1     :     0.000008
      g+2     :     0.000016
      g-2     :     0.000016
      g+3     :     0.000000
      g-3     :     0.000000
      g+4     :     0.000000
      g-4     :     0.000000
  1 H s       :     1.049765  s :     1.049765
      pz      :    -0.014728  p :    -0.002831
      px      :     0.005949
      py      :     0.005949
      dz2     :     0.000430  d :     0.000866
      dxz     :     0.000215
      dyz     :     0.000215
      dx2y2   :     0.000003
      dxy     :     0.000003

SPIN
  0 Fes       :     0.444864  s :     0.444864
      pz      :    -0.015256  p :    -0.014660
      px      :     0.000298
      py      :     0.000298
      dz2     :     0.784361  d :     2.788968
      dxz     :     0.002350
      dyz     :     0.002350
      dx2y2   :     0.999954
      dxy     :     0.999954
      f0      :    -0.000129  f :    -0.000026
      f+1     :     0.000024
      f-1     :     0.000024
      f+2     :     0.000027
      f-2     :     0.000027
      f+3     :    -0.000000
      f-3     :    -0.000000
      g0      :    -0.000002  g :     0.000042
      g+1     :     0.000006
      g-1     :     0.000006
      g+2     :     0.000016
      g-2     :     0.000016
      g+3     :     0.000000
      g-3     :     0.000000
      g+4     :     0.000000
      g-4     :    -0.000000
  1 H s       :    -0.206086  s :    -0.206086
      pz      :    -0.007990  p :    -0.013221
      px      :    -0.002616
      py      :    -0.002616
      dz2     :     0.000237  d :     0.000119
      dxz     :    -0.000062
      dyz     :    -0.000062
      dx2y2   :     0.000003
      dxy     :     0.000003


                     *******************************
                     * LOEWDIN POPULATION ANALYSIS *
                     *******************************

-------------------------------------------
LOEWDIN ATOMIC CHARGES AND SPIN POPULATIONS
-------------------------------------------
   0 Fe:    0.234826    3.053858
   1 H :   -0.234826   -0.053858

----------------------------------------------------
LOEWDIN REDUCED ORBITAL CHARGES AND SPIN POPULATIONS
----------------------------------------------------
CHARGE
  0 Fes       :     6.717775  s :     6.717775
      pz      :     4.119650  p :    12.124999
      px      :     4.002675
      py      :     4.002675
      dz2     :     0.985911  d :     6.920571
      dxz     :     1.967468
      dyz     :     1.967468
      dx2y2   :     0.999862
      dxy     :     0.999862
      f0      :     0.001257  f :     0.001747
      f+1     :     0.000217
      f-1     :     0.000217
      f+2     :     0.000028
      f-2     :     0.000028
      f+3     :     0.000000
      f-3     :     0.000000
      g0      :     0.000023  g :     0.000081
      g+1     :     0.000013
      g-1     :     0.000013
      g+2     :     0.000016
      g-2     :     0.000016
      g+3     :     0.000000
      g-3     :     0.000000
      g+4     :     0.000000
      g-4     :     0.000000
  1 H s       :     1.083912  s :     1.083912
      pz      :     0.087513  p :     0.140294
      px      :     0.026390
      py      :     0.026390
      dz2     :     0.003960  d :     0.010620
      dxz     :     0.003237
      dyz     :     0.003237
      dx2y2   :     0.000094
      dxy     :     0.000094

SPIN
  0 Fes       :     0.319229  s :     0.319229
      pz      :    -0.041767  p :    -0.041337
      px      :     0.000215
      py      :     0.000215
      dz2     :     0.767809  d :     2.776231
      dxz     :     0.004349
      dyz     :     0.004349
      dx2y2   :     0.999862
      dxy     :     0.999862
      f0      :    -0.000402  f :    -0.000308
      f+1     :     0.000019
      f-1     :     0.000019
      f+2     :     0.000028
      f-2     :     0.000028
      f+3     :    -0.000000
      f-3     :    -0.000000
      g0      :    -0.000005  g :     0.000042
      g+1     :     0.000007
      g-1     :     0.000007
      g+2     :     0.000016
      g-2     :     0.000016
      g+3     :     0.000000
      g-3     :     0.000000
      g+4     :     0.000000
      g-4     :    -0.000000
  1 H s       :    -0.080620  s :    -0.080620
      pz      :     0.034387  p :     0.025432
      px      :    -0.004477
      py      :    -0.004477
      dz2     :     0.001370  d :     0.001331
      dxz     :    -0.000113
      dyz     :    -0.000113
      dx2y2   :     0.000094
      dxy     :     0.000094


                      *****************************
                      * MAYER POPULATION ANALYSIS *
                      *****************************

  NA   - Mulliken gross atomic population
  ZA   - Total nuclear charge
  QA   - Mulliken gross atomic charge
  VA   - Mayer's total valence
  BVA  - Mayer's bonded valence
  FA   - Mayer's free valence

  ATOM       NA         ZA         QA         VA         BVA        FA
  0 Fe    25.9522    26.0000     0.0478     4.0118     0.9321     3.0796
  1 H      1.0478     1.0000    -0.0478     0.9711     0.9321     0.0390

  Mayer bond orders larger than 0.100000
B(  0-Fe,  1-H ) :   0.9321 

-------
TIMINGS
-------

Total SCF time: 0 days 0 hours 0 min 17 sec 

Total time                  ....      17.496 sec
Sum of individual times     ....      16.815 sec  ( 96.1%)

Fock matrix formation       ....      16.041 sec  ( 91.7%)
  XC integration            ....      12.744 sec  ( 79.4% of F)
    Basis function eval.    ....       0.016 sec  (  0.1% of XC)
    Density eval.           ....       0.040 sec  (  0.3% of XC)
    XC-Functional eval.     ....       0.029 sec  (  0.2% of XC)
    XC-Potential eval.      ....       0.080 sec  (  0.6% of XC)
Diagonalization             ....       0.214 sec  (  1.2%)
Density matrix formation    ....       0.060 sec  (  0.3%)
Population analysis         ....       0.145 sec  (  0.8%)
Initial guess               ....       0.126 sec  (  0.7%)
Orbital Transformation      ....       0.000 sec  (  0.0%)
Orbital Orthonormalization  ....       0.000 sec  (  0.0%)
DIIS solution               ....       0.118 sec  (  0.7%)
Grid generation             ....       0.112 sec  (  0.6%)


-------------------------------------------------------------------------------
                          DFT DISPERSION CORRECTION                            
                                                                               
                              DFTD3 V3.1  Rev 1                                
                          USING Becke-Johnson damping                          
-------------------------------------------------------------------------------
The TPSSH functional is recognized
Active option DFTDOPT                   ...         4   

molecular C6(AA) [au] = 335.178079 


            DFT-D V3
 parameters
 s6 scaling factor         :     1.0000 
 a1 scaling factor         :     0.4529 
 s8 scaling factor         :     2.2382 
 a2 scaling factor         :     4.6550 
 ad hoc parameters k1-k3   :    16.0000     1.3333    -4.0000 

 Edisp/kcal,au: -0.285529841238  -0.000455020717 
 E6   /kcal   :  -0.117702313 
 E8   /kcal   :  -0.167827528 
 % E8         :  58.777578936 

-------------------------   ----------------
Dispersion correction           -0.000455021
-------------------------   ----------------


-------------------------   --------------------
FINAL SINGLE POINT ENERGY     -1264.257191713762
-------------------------   --------------------


                            ***************************************
                            *     ORCA property calculations      *
                            ***************************************

                                    ---------------------
                                    Active property flags
                                    ---------------------
   (+) Dipole Moment


------------------------------------------------------------------------------
                       ORCA ELECTRIC PROPERTIES CALCULATION
------------------------------------------------------------------------------

Dipole Moment Calculation                       ... on
Quadrupole Moment Calculation                   ... off
Polarizability Calculation                      ... off
GBWName                                         ... FeH.gbw
Electron density file                           ... FeH.scfp
The origin for moment calculation is the CENTER OF MASS  = ( 0.000000,  0.000000  0.053938)

-------------
DIPOLE MOMENT
-------------
                                X             Y             Z
Electronic contribution:     -0.00000      -0.00000      -2.72589
Nuclear contribution   :      0.00000       0.00000       1.58614
                        -----------------------------------------
Total Dipole Moment    :     -0.00000      -0.00000      -1.13976
                        -----------------------------------------
Magnitude (a.u.)       :      1.13976
Magnitude (Debye)      :      2.89703



--------------------
Rotational spectrum 
--------------------
 
Rotational constants in cm-1:     0.000000     6.568301     6.568301 
Rotational constants in MHz :     0.000000 196912.697447 196912.697447 

 Dipole components along the rotational axes: 
x,y,z [a.u.] :    -1.139758    -0.000000    -0.000000 
x,y,z [Debye]:    -2.897034    -0.000000    -0.000000 

 

Timings for individual modules:

Sum of individual times         ...       19.145 sec (=   0.319 min)
GTO integral calculation        ...        1.013 sec (=   0.017 min)   5.3 %
SCF iterations                  ...       18.132 sec (=   0.302 min)  94.7 %
                             ****ORCA TERMINATED NORMALLY****
TOTAL RUN TIME: 0 days 0 hours 0 minutes 19 seconds 935 msec
