
                                 *****************
                                 * O   R   C   A *
                                 *****************

           --- An Ab Initio, DFT and Semiempirical electronic structure package ---

                  #######################################################
                  #                        -***-                        #
                  #          Department of theory and spectroscopy      #
                  #               Directorship: Frank Neese             #
                  #        Max Planck Institute fuer Kohlenforschung    #
                  #                Kaiser Wilhelm Platz 1               #
                  #                 D-45470 Muelheim/Ruhr               #
                  #                      Germany                        #
                  #                                                     #
                  #                  All rights reserved                #
                  #                        -***-                        #
                  #######################################################


                         Program Version 4.2.0 -  RELEASE  -


 With contributions from (in alphabetic order):
   Daniel Aravena         : Magnetic Suceptibility
   Michael Atanasov       : Ab Initio Ligand Field Theory (pilot matlab implementation)
   Alexander A. Auer      : GIAO ZORA, VPT2
   Ute Becker             : Parallelization
   Giovanni Bistoni       : ED, misc. LED, open-shell LED, HFLED
   Martin Brehm           : Molecular dynamics
   Dmytro Bykov           : SCF Hessian
   Vijay G. Chilkuri      : MRCI spin determinant printing, contributions to CSF-ICE
   Dipayan Datta          : RHF DLPNO-CCSD density
   Achintya Kumar Dutta   : EOM-CC, STEOM-CC
   Dmitry Ganyushin       : Spin-Orbit,Spin-Spin,Magnetic field MRCI
   Miquel Garcia          : C-PCM Hessian, Gaussian charge scheme
   Yang Guo               : DLPNO-NEVPT2, CIM, IAO-localization
   Andreas Hansen         : Spin unrestricted coupled pair/coupled cluster methods
   Benjamin Helmich-Paris : CASSCF linear response (MC-RPA)
   Lee Huntington         : MR-EOM, pCC
   Robert Izsak           : Overlap fitted RIJCOSX, COSX-SCS-MP3, EOM
   Christian Kollmar      : KDIIS, OOCD, Brueckner-CCSD(T), CCSD density
   Simone Kossmann        : Meta GGA functionals, TD-DFT gradient, OOMP2, MP2 Hessian
   Martin Krupicka        : AUTO-CI
   Lucas Lang             : DCDCAS
   Dagmar Lenk            : GEPOL surface, SMD
   Dimitrios Liakos       : Extrapolation schemes; Compound Job, initial MDCI parallelization
   Dimitrios Manganas     : Further ROCIS development; embedding schemes
   Dimitrios Pantazis     : SARC Basis sets
   Taras Petrenko         : DFT Hessian,TD-DFT gradient, ASA, ECA, R-Raman, ABS, FL, XAS/XES, NRVS
   Peter Pinski           : DLPNO-MP2, DLPNO-MP2 Gradient
   Christoph Reimann      : Effective Core Potentials
   Marius Retegan         : Local ZFS, SOC
   Christoph Riplinger    : Optimizer, TS searches, QM/MM, DLPNO-CCSD(T), (RO)-DLPNO pert. Triples
   Tobias Risthaus        : Range-separated hybrids, TD-DFT gradient, RPA, STAB
   Michael Roemelt        : Original ROCIS implementation
   Masaaki Saitow         : Open-shell DLPNO-CCSD energy and density
   Barbara Sandhoefer     : DKH picture change effects
   Avijit Sen             : IP-ROCIS
   Kantharuban Sivalingam : CASSCF convergence, NEVPT2, FIC-MRCI
   Bernardo de Souza      : ESD, SOC TD-DFT
   Georgi Stoychev        : AutoAux, RI-MP2 NMR
   Willem Van den Heuvel  : Paramagnetic NMR
   Boris Wezisla          : Elementary symmetry handling
   Frank Wennmohs         : Technical directorship


 We gratefully acknowledge several colleagues who have allowed us to
 interface, adapt or use parts of their codes:
   Stefan Grimme, W. Hujo, H. Kruse,             : VdW corrections, initial TS optimization,
                  C. Bannwarth                     DFT functionals, gCP, sTDA/sTD-DF
   Ed Valeev, F. Pavosevic, A. Kumar             : LibInt (2-el integral package), F12 methods
   Garnet Chan, S. Sharma, J. Yang, R. Olivares  : DMRG
   Ulf Ekstrom                                   : XCFun DFT Library
   Mihaly Kallay                                 : mrcc  (arbitrary order and MRCC methods)
   Andreas Klamt, Michael Diedenhofen            : otool_cosmo (COSMO solvation model)
   Jiri Pittner, Ondrej Demel                    : Mk-CCSD
   Frank Weinhold                                : gennbo (NPA and NBO analysis)
   Christopher J. Cramer and Donald G. Truhlar   : smd solvation model
   Lars Goerigk                                  : TD-DFT with DH, B97 family of functionals
   V. Asgeirsson, H. Jonsson                     : NEB implementation
   FAccTs GmbH                                   : IRC, NEB, NEB-TS, Multilevel, MM, QM/MM, CI optimization
   S Lehtola, MJT Oliveira, MAL Marques          : LibXC Library


 Your calculation uses the libint2 library for the computation of 2-el integrals
 For citations please refer to: http://libint.valeyev.net

 Your ORCA version has been built with support for libXC version: 4.2.3
 For citations please refer to: https://tddft.org/programs/libxc/

 This ORCA versions uses:
   CBLAS   interface :  Fast vector & matrix operations
   LAPACKE interface :  Fast linear algebra routines
   SCALAPACK package :  Parallel linear algebra routines


Your calculation utilizes the atom-pairwise dispersion correction
with the Becke-Johnson damping scheme (D3BJ)
Cite in your paper:
S.Grimme, S.Ehrlich, L.Goerigk, J Comput Chem, (2011), 32, 1456–1465 
S.Grimme, J.Antony, S.Ehrlich and H.Krieg, J.Chem.Phys., 132, (2010), 154104 
   

----- Orbital basis set information -----
Your calculation utilizes the basis: def2-TZVPPD
   F. Weigend and R. Ahlrichs, Phys. Chem. Chem. Phys. 7, 3297 (2005).
   D. Rappoport and F. Furche, J. Chem. Phys. 133 134105 (2010).

----- AuxJK basis set information -----
Your calculation utilizes the auxiliary basis: def2/JK
   H-Ba, Hf-Rn: F. Weigend, J. Comput. Chem. 29, 167 (2008).

================================================================================
                                        WARNINGS
                       Please study these warnings very carefully!
================================================================================


INFO   : the flag for use of LIBINT has been found!

================================================================================
                                       INPUT FILE
================================================================================
NAME = LiCl.in
|  1> #
|  2> # LiCl TPSSh-D3BJ/Def2-TZVPPD
|  3> #
|  4> ! tpssh d3bj def2-tzvppd def2/jk grid4 nofinalgrid
|  5> 
|  6> *xyz 0 1
|  7> Li         0.00000        0.00000        0.00000
|  8> Cl         0.00000        0.00000        2.02067
|  9> *
| 10> 
| 11> %maxcore 5000
| 12> 
| 13> %pal
| 14> nprocs = 28
| 15> end
| 16> 
| 17> 
| 18>                          ****END OF INPUT****
================================================================================

                       ****************************
                       * Single Point Calculation *
                       ****************************

---------------------------------
CARTESIAN COORDINATES (ANGSTROEM)
---------------------------------
  Li     0.000000    0.000000    0.000000
  Cl     0.000000    0.000000    2.020670

----------------------------
CARTESIAN COORDINATES (A.U.)
----------------------------
  NO LB      ZA    FRAG     MASS         X           Y           Z
   0 Li    3.0000    0     6.941    0.000000    0.000000    0.000000
   1 Cl   17.0000    0    35.453    0.000000    0.000000    3.818513

--------------------------------
INTERNAL COORDINATES (ANGSTROEM)
--------------------------------
 Li     0   0   0     0.000000000000     0.00000000     0.00000000
 Cl     1   0   0     2.020670000000     0.00000000     0.00000000

---------------------------
INTERNAL COORDINATES (A.U.)
---------------------------
 Li     0   0   0     0.000000000000     0.00000000     0.00000000
 Cl     1   0   0     3.818512907031     0.00000000     0.00000000

---------------------
BASIS SET INFORMATION
---------------------
There are 2 groups of distinct atoms

 Group   1 Type Li  : 11s4p1d contracted to 5s4p1d pattern {62111/1111/1}
 Group   2 Type Cl  : 15s10p4d1f contracted to 6s6p4d1f pattern {732111/511111/1111/1}

Atom   0Li   basis set group =>   1
Atom   1Cl   basis set group =>   2
----------------------------------
AUXILIARY/JK BASIS SET INFORMATION
----------------------------------
There are 2 groups of distinct atoms

 Group   1 Type Li  : 10s7p4d2f contracted to 7s5p3d2f pattern {4111111/31111/211/11}
 Group   2 Type Cl  : 16s12p10d4f1g contracted to 13s11p9d4f1g pattern {4111111111111/21111111111/211111111/1111/1}

Atom   0Li   basis set group =>   1
Atom   1Cl   basis set group =>   2


           ************************************************************
           *        Program running with 28 parallel MPI-processes    *
           *              working on a common directory               *
           ************************************************************
------------------------------------------------------------------------------
                           ORCA GTO INTEGRAL CALCULATION
------------------------------------------------------------------------------

                         BASIS SET STATISTICS AND STARTUP INFO

 # of primitive gaussian shells          ...   46
 # of primitive gaussian functions       ...  100
 # of contracted shells                  ...   27
 # of contracted basis functions         ...   73
 Highest angular momentum                ...    3
 Maximum contraction depth               ...    7
 Integral package used                   ... LIBINT
 Integral threshhold            Thresh   ...  1.000e-10
 Primitive cut-off              TCut     ...  1.000e-11


------------------------------ INTEGRAL EVALUATION ----------------------------


 * One electron integrals 
 Pre-screening matrix                    ... done
 Shell pair data                         ... done (   0.000 sec)



           ************************************************************
           *        Program running with 28 parallel MPI-processes    *
           *              working on a common directory               *
           ************************************************************
-------------------------------------------------------------------------------
                                 ORCA SCF
-------------------------------------------------------------------------------

------------
SCF SETTINGS
------------
Hamiltonian:
 Density Functional     Method          .... DFT(GTOs)
 Exchange Functional    Exchange        .... TPSS
 Correlation Functional Correlation     .... TPSS
 LDA part of GGA corr.  LDAOpt          .... PW91-LDA
 Gradients option       PostSCFGGA      .... off
 Hybrid DFT is turned on
   Fraction HF Exchange ScalHFX         ....  0.100000
   Scaling of DF-GGA-X  ScalDFX         ....  0.900000
   Scaling of DF-GGA-C  ScalDFC         ....  1.000000
   Scaling of DF-LDA-C  ScalLDAC        ....  1.000000
   Perturbative correction              ....  0.000000
   Density functional embedding theory  .... OFF
   NL short-range parameter             ....  5.200000


General Settings:
 Integral files         IntName         .... LiCl
 Hartree-Fock type      HFTyp           .... RHF
 Total Charge           Charge          ....    0
 Multiplicity           Mult            ....    1
 Number of Electrons    NEL             ....   20
 Basis Dimension        Dim             ....   73
 Nuclear Repulsion      ENuc            ....     13.3559847097 Eh

Convergence Acceleration:
 DIIS                   CNVDIIS         .... on
   Start iteration      DIISMaxIt       ....    12
   Startup error        DIISStart       ....  0.200000
   # of expansion vecs  DIISMaxEq       ....     5
   Bias factor          DIISBfac        ....   1.050
   Max. coefficient     DIISMaxC        ....  10.000
 Newton-Raphson         CNVNR           .... off
 SOSCF                  CNVSOSCF        .... on
   Start iteration      SOSCFMaxIt      ....   150
   Startup grad/error   SOSCFStart      ....  0.003300
 Level Shifting         CNVShift        .... on
   Level shift para.    LevelShift      ....    0.2500
   Turn off err/grad.   ShiftErr        ....    0.0010
 Zerner damping         CNVZerner       .... off
 Static damping         CNVDamp         .... on
   Fraction old density DampFac         ....    0.7000
   Max. Damping (<1)    DampMax         ....    0.9800
   Min. Damping (>=0)   DampMin         ....    0.0000
   Turn off err/grad.   DampErr         ....    0.1000
 Fernandez-Rico         CNVRico         .... off

SCF Procedure:
 Maximum # iterations   MaxIter         ....   125
 SCF integral mode      SCFMode         .... Direct
   Integral package                     .... LIBINT
 Reset frequency        DirectResetFreq ....    20
 Integral Threshold     Thresh          ....  1.000e-10 Eh
 Primitive CutOff       TCut            ....  1.000e-11 Eh

Convergence Tolerance:
 Convergence Check Mode ConvCheckMode   .... Total+1el-Energy
 Convergence forced     ConvForced      .... 0
 Energy Change          TolE            ....  1.000e-06 Eh
 1-El. energy change                    ....  1.000e-03 Eh
 Orbital Gradient       TolG            ....  5.000e-05
 Orbital Rotation angle TolX            ....  5.000e-05
 DIIS Error             TolErr          ....  1.000e-06


Diagonalization of the overlap matrix:
Smallest eigenvalue                        ... 3.984e-03
Time for diagonalization                   ...    0.002 sec
Threshold for overlap eigenvalues          ... 1.000e-08
Number of eigenvalues below threshold      ... 0
Time for construction of square roots      ...    0.025 sec
Total time needed                          ...    0.027 sec

-------------------
DFT GRID GENERATION
-------------------

General Integration Accuracy     IntAcc      ...  4.670
Radial Grid Type                 RadialGrid  ... Gauss-Chebyshev
Angular Grid (max. acc.)         AngularGrid ... Lebedev-302
Angular grid pruning method      GridPruning ... 3 (G Style)
Weight generation scheme         WeightScheme... Becke
Basis function cutoff            BFCut       ...    1.0000e-10
Integration weight cutoff        WCut        ...    1.0000e-14
Grids for H and He will be reduced by one unit

# of grid points (after initial pruning)     ...  12614 (   0.0 sec)
# of grid points (after weights+screening)   ...  12585 (   0.0 sec)
nearest neighbour list constructed           ...    0.0 sec
Grid point re-assignment to atoms done       ...    0.0 sec
Grid point division into batches done        ...    0.1 sec
Reduced shell lists constructed in    0.1 sec

Total number of grid points                  ...    12585
Total number of batches                      ...      198
Average number of points per batch           ...       63
Average number of grid points per atom       ...     6292
Average number of shells per batch           ...     3.89 (14.40%)
Average number of basis functions per batch  ...     8.78 (12.02%)
Average number of large shells per batch     ...     2.56 (65.71%)
Average number of large basis fcns per batch ...     6.11 (69.62%)
Maximum spatial batch extension              ...  43.84, 39.87, 24.07 au
Average spatial batch extension              ...   1.35,  1.20,  0.90 au

Time for grid setup =    0.190 sec

------------------------------
INITIAL GUESS: MODEL POTENTIAL
------------------------------
Loading Hartree-Fock densities                     ... done
Calculating cut-offs                               ... done
Setting up the integral package                    ... done
Initializing the effective Hamiltonian             ... done
Starting the Coulomb interaction                   ... done (   0.0 sec)
Reading the grid                                   ... done
Mapping shells                                     ... done
Starting the XC term evaluation                    ... done (   0.0 sec)
  promolecular density results
     # of electrons  =     20.000059835
     EX              =    -29.120097864
     EC              =     -0.714454631
     EX+EC           =    -29.834552495
Transforming the Hamiltonian                       ... done (   0.0 sec)
Diagonalizing the Hamiltonian                      ... done (   0.0 sec)
Back transforming the eigenvectors                 ... done (   0.0 sec)
Now organizing SCF variables                       ... done
                      ------------------
                      INITIAL GUESS DONE (   0.3 sec)
                      ------------------
--------------
SCF ITERATIONS
--------------
ITER       Energy         Delta-E        Max-DP      RMS-DP      [F,P]     Damp
               ***  Starting incremental Fock matrix formation  ***
  0   -467.7829060089   0.000000000000 0.08198543  0.00212960  0.1390342 0.7000
  1   -467.8028157311  -0.019909722272 0.04904234  0.00150353  0.0773090 0.7000
                               ***Turning on DIIS***
  2   -467.8119425260  -0.009126794871 0.06716643  0.00253077  0.0312836 0.0000
  3   -467.8228118872  -0.010869361197 0.04511506  0.00116054  0.0452903 0.0000
  4   -467.8270997215  -0.004287834302 0.00643903  0.00025878  0.0087914 0.0000
                      *** Initiating the SOSCF procedure ***
                           *** Shutting down DIIS ***
                      *** Re-Reading the Fockian *** 
                      *** Removing any level shift *** 
ITER      Energy       Delta-E        Grad      Rot      Max-DP    RMS-DP
  5   -467.82733419  -0.0002344653  0.000754  0.000754  0.001698  0.000091
               *** Restarting incremental Fock matrix formation ***
  6   -467.82736189  -0.0000277050  0.000438  0.001834  0.001439  0.000077
  7   -467.82736432  -0.0000024287  0.000434  0.000310  0.001583  0.000042
  8   -467.82736746  -0.0000031349  0.000088  0.000088  0.000295  0.000009
                 **** Energy Check signals convergence ****
              ***Rediagonalizing the Fockian in SOSCF/NRSCF***

               *****************************************************
               *                     SUCCESS                       *
               *           SCF CONVERGED AFTER   9 CYCLES          *
               *****************************************************


----------------
TOTAL SCF ENERGY
----------------

Total Energy       :         -467.82736751 Eh          -12730.22986 eV

Components:
Nuclear Repulsion  :           13.35598471 Eh             363.43482 eV
Electronic Energy  :         -481.18335222 Eh          -13093.66468 eV
One Electron Energy:         -673.73651159 Eh          -18333.30253 eV
Two Electron Energy:          192.55315937 Eh            5239.63784 eV

Virial components:
Potential Energy   :         -934.84236776 Eh          -25438.35409 eV
Kinetic Energy     :          467.01500025 Eh           12708.12423 eV
Virial Ratio       :            2.00173949


DFT components:
N(Alpha)           :       10.000027163282 electrons
N(Beta)            :       10.000027163282 electrons
N(Total)           :       20.000054326564 electrons
E(X)               :      -26.544085751638 Eh       
E(C)               :       -0.736046353185 Eh       
E(XC)              :      -27.280132104824 Eh       
DFET-embed. en.    :        0.000000000000 Eh       

---------------
SCF CONVERGENCE
---------------

  Last Energy change         ...   -5.2754e-08  Tolerance :   1.0000e-06
  Last MAX-Density change    ...    3.6813e-05  Tolerance :   1.0000e-05
  Last RMS-Density change    ...    1.7828e-06  Tolerance :   1.0000e-06
  Last Orbital Gradient      ...    4.3916e-05  Tolerance :   5.0000e-05
  Last Orbital Rotation      ...    4.0921e-05  Tolerance :   5.0000e-05

             **** THE GBW FILE WAS UPDATED (LiCl.gbw) ****
             **** DENSITY FILE WAS UPDATED (LiCl.scfp) ****
             **** ENERGY FILE WAS UPDATED (LiCl.en.tmp) ****
             **** THE GBW FILE WAS UPDATED (LiCl.gbw) ****
             **** DENSITY FILE WAS UPDATED (LiCl.scfp) ****
----------------
ORBITAL ENERGIES
----------------

  NO   OCC          E(Eh)            E(eV) 
   0   2.0000    -101.274479     -2755.8187 
   1   2.0000      -9.276881      -252.4368 
   2   2.0000      -7.018863      -190.9930 
   3   2.0000      -7.018269      -190.9768 
   4   2.0000      -7.018269      -190.9768 
   5   2.0000      -1.997758       -54.3618 
   6   2.0000      -0.691018       -18.8036 
   7   2.0000      -0.260348        -7.0844 
   8   2.0000      -0.236719        -6.4415 
   9   2.0000      -0.236719        -6.4415 
  10   0.0000      -0.056292        -1.5318 
  11   0.0000       0.001865         0.0507 
  12   0.0000       0.001865         0.0507 
  13   0.0000       0.023556         0.6410 
  14   0.0000       0.054120         1.4727 
  15   0.0000       0.067821         1.8455 
  16   0.0000       0.067821         1.8455 
  17   0.0000       0.093218         2.5366 
  18   0.0000       0.097904         2.6641 
  19   0.0000       0.097904         2.6641 
  20   0.0000       0.165807         4.5118 
  21   0.0000       0.201946         5.4952 
  22   0.0000       0.201947         5.4953 
  23   0.0000       0.220163         5.9909 
  24   0.0000       0.247698         6.7402 
  25   0.0000       0.247698         6.7402 
  26   0.0000       0.257422         7.0048 
  27   0.0000       0.343016         9.3339 
  28   0.0000       0.343016         9.3340 
  29   0.0000       0.398028        10.8309 
  30   0.0000       0.411330        11.1928 
  31   0.0000       0.411330        11.1929 
  32   0.0000       0.509024        13.8512 
  33   0.0000       0.509024        13.8512 
  34   0.0000       0.546026        14.8581 
  35   0.0000       0.617616        16.8062 
  36   0.0000       0.617616        16.8062 
  37   0.0000       0.638889        17.3850 
  38   0.0000       0.638904        17.3854 
  39   0.0000       0.671578        18.2746 
  40   0.0000       0.671578        18.2746 
  41   0.0000       0.691722        18.8227 
  42   0.0000       0.864480        23.5237 
  43   0.0000       1.095546        29.8113 
  44   0.0000       1.427521        38.8448 
  45   0.0000       1.959696        53.3260 
  46   0.0000       1.959719        53.3267 
  47   0.0000       1.985345        54.0240 
  48   0.0000       1.985345        54.0240 
  49   0.0000       2.049674        55.7745 
  50   0.0000       2.171959        59.1020 
  51   0.0000       2.171959        59.1020 
  52   0.0000       2.174693        59.1764 
  53   0.0000       2.174745        59.1778 
  54   0.0000       2.203237        59.9531 
  55   0.0000       2.203237        59.9531 
  56   0.0000       2.412384        65.6443 
  57   0.0000       2.412384        65.6443 
  58   0.0000       2.428270        66.0766 
  59   0.0000       2.526410        68.7471 
  60   0.0000       5.782067       157.3380 
  61   0.0000       5.782067       157.3380 
  62   0.0000       6.065738       165.0571 
  63   0.0000       8.188045       222.8080 
  64   0.0000       8.188142       222.8107 
  65   0.0000       8.205990       223.2963 
  66   0.0000       8.205990       223.2963 
  67   0.0000       8.269278       225.0185 
  68   0.0000      10.843589       295.0690 
  69   0.0000      10.843589       295.0690 
  70   0.0000      10.939315       297.6739 
  71   0.0000      14.388259       391.5244 
  72   0.0000      24.868052       676.6941 

                    ********************************
                    * MULLIKEN POPULATION ANALYSIS *
                    ********************************

-----------------------
MULLIKEN ATOMIC CHARGES
-----------------------
   0 Li:    0.767991
   1 Cl:   -0.767991
Sum of atomic charges:    0.0000000

--------------------------------
MULLIKEN REDUCED ORBITAL CHARGES
--------------------------------
  0 Lis       :     2.029298  s :     2.029298
      pz      :     0.070412  p :     0.169048
      px      :     0.049318
      py      :     0.049318
      dz2     :     0.002904  d :     0.033662
      dxz     :     0.015379
      dyz     :     0.015379
      dx2y2   :    -0.000000
      dxy     :     0.000000
  1 Cls       :     5.980637  s :     5.980637
      pz      :     3.910419  p :    11.771787
      px      :     3.930684
      py      :     3.930684
      dz2     :     0.006126  d :     0.015193
      dxz     :     0.004534
      dyz     :     0.004534
      dx2y2   :     0.000000
      dxy     :     0.000000
      f0      :     0.000204  f :     0.000374
      f+1     :     0.000085
      f-1     :     0.000085
      f+2     :     0.000000
      f-2     :     0.000000
      f+3     :     0.000000
      f-3     :     0.000000


                     *******************************
                     * LOEWDIN POPULATION ANALYSIS *
                     *******************************

----------------------
LOEWDIN ATOMIC CHARGES
----------------------
   0 Li:    0.256216
   1 Cl:   -0.256216

-------------------------------
LOEWDIN REDUCED ORBITAL CHARGES
-------------------------------
  0 Lis       :     2.078227  s :     2.078227
      pz      :     0.223699  p :     0.390906
      px      :     0.083603
      py      :     0.083603
      dz2     :     0.115295  d :     0.274652
      dxz     :     0.079678
      dyz     :     0.079678
      dx2y2   :     0.000000
      dxy     :     0.000000
  1 Cls       :     5.708330  s :     5.708330
      pz      :     3.847010  p :    11.517304
      px      :     3.835147
      py      :     3.835147
      dz2     :     0.027233  d :     0.030322
      dxz     :     0.001545
      dyz     :     0.001545
      dx2y2   :     0.000000
      dxy     :     0.000000
      f0      :     0.000206  f :     0.000260
      f+1     :     0.000027
      f-1     :     0.000027
      f+2     :     0.000000
      f-2     :     0.000000
      f+3     :     0.000000
      f-3     :     0.000000


                      *****************************
                      * MAYER POPULATION ANALYSIS *
                      *****************************

  NA   - Mulliken gross atomic population
  ZA   - Total nuclear charge
  QA   - Mulliken gross atomic charge
  VA   - Mayer's total valence
  BVA  - Mayer's bonded valence
  FA   - Mayer's free valence

  ATOM       NA         ZA         QA         VA         BVA        FA
  0 Li     2.2320     3.0000     0.7680     0.4464     0.4464     0.0000
  1 Cl    17.7680    17.0000    -0.7680     0.4464     0.4464     0.0000

  Mayer bond orders larger than 0.100000
B(  0-Li,  1-Cl) :   0.4464 

-------
TIMINGS
-------

Total SCF time: 0 days 0 hours 0 min 13 sec 

Total time                  ....      13.323 sec
Sum of individual times     ....      12.740 sec  ( 95.6%)

Fock matrix formation       ....      12.227 sec  ( 91.8%)
  XC integration            ....      10.547 sec  ( 86.3% of F)
    Basis function eval.    ....       0.009 sec  (  0.1% of XC)
    Density eval.           ....       0.016 sec  (  0.2% of XC)
    XC-Functional eval.     ....       0.017 sec  (  0.2% of XC)
    XC-Potential eval.      ....       0.015 sec  (  0.1% of XC)
Diagonalization             ....       0.029 sec  (  0.2%)
Density matrix formation    ....       0.003 sec  (  0.0%)
Population analysis         ....       0.117 sec  (  0.9%)
Initial guess               ....       0.102 sec  (  0.8%)
Orbital Transformation      ....       0.000 sec  (  0.0%)
Orbital Orthonormalization  ....       0.000 sec  (  0.0%)
DIIS solution               ....       0.018 sec  (  0.1%)
SOSCF solution              ....       0.054 sec  (  0.4%)
Grid generation             ....       0.190 sec  (  1.4%)


-------------------------------------------------------------------------------
                          DFT DISPERSION CORRECTION                            
                                                                               
                              DFTD3 V3.1  Rev 1                                
                          USING Becke-Johnson damping                          
-------------------------------------------------------------------------------
The TPSSH functional is recognized
Active option DFTDOPT                   ...         4   

molecular C6(AA) [au] = 342.309734 


            DFT-D V3
 parameters
 s6 scaling factor         :     1.0000 
 a1 scaling factor         :     0.4529 
 s8 scaling factor         :     2.2382 
 a2 scaling factor         :     4.6550 
 ad hoc parameters k1-k3   :    16.0000     1.3333    -4.0000 

 Edisp/kcal,au: -0.537060611685  -0.000855860472 
 E6   /kcal   :  -0.181604805 
 E8   /kcal   :  -0.355455807 
 % E8         :  66.185417321 

-------------------------   ----------------
Dispersion correction           -0.000855860
-------------------------   ----------------


-------------------------   --------------------
FINAL SINGLE POINT ENERGY      -467.828223368601
-------------------------   --------------------


                            ***************************************
                            *     ORCA property calculations      *
                            ***************************************

                                    ---------------------
                                    Active property flags
                                    ---------------------
   (+) Dipole Moment


------------------------------------------------------------------------------
                       ORCA ELECTRIC PROPERTIES CALCULATION
------------------------------------------------------------------------------

Dipole Moment Calculation                       ... on
Quadrupole Moment Calculation                   ... off
Polarizability Calculation                      ... off
GBWName                                         ... LiCl.gbw
Electron density file                           ... LiCl.scfp
The origin for moment calculation is the CENTER OF MASS  = ( 0.000000,  0.000000  3.193323)

-------------
DIPOLE MOMENT
-------------
                                X             Y             Z
Electronic contribution:      0.00000      -0.00000      -3.80077
Nuclear contribution   :      0.00000       0.00000       1.04826
                        -----------------------------------------
Total Dipole Moment    :      0.00000      -0.00000      -2.75252
                        -----------------------------------------
Magnitude (a.u.)       :      2.75252
Magnitude (Debye)      :      6.99634



--------------------
Rotational spectrum 
--------------------
 
Rotational constants in cm-1:     0.000000     0.711272     0.711272 
Rotational constants in MHz :     0.000000 21323.386404 21323.386404 

 Dipole components along the rotational axes: 
x,y,z [a.u.] :    -2.752517    -0.000000     0.000000 
x,y,z [Debye]:    -6.996342    -0.000000     0.000000 

 

Timings for individual modules:

Sum of individual times         ...       14.864 sec (=   0.248 min)
GTO integral calculation        ...        0.920 sec (=   0.015 min)   6.2 %
SCF iterations                  ...       13.944 sec (=   0.232 min)  93.8 %
                             ****ORCA TERMINATED NORMALLY****
TOTAL RUN TIME: 0 days 0 hours 0 minutes 19 seconds 362 msec
