
                                 *****************
                                 * O   R   C   A *
                                 *****************

           --- An Ab Initio, DFT and Semiempirical electronic structure package ---

                  #######################################################
                  #                        -***-                        #
                  #          Department of theory and spectroscopy      #
                  #               Directorship: Frank Neese             #
                  #        Max Planck Institute fuer Kohlenforschung    #
                  #                Kaiser Wilhelm Platz 1               #
                  #                 D-45470 Muelheim/Ruhr               #
                  #                      Germany                        #
                  #                                                     #
                  #                  All rights reserved                #
                  #                        -***-                        #
                  #######################################################


                         Program Version 4.2.0 -  RELEASE  -


 With contributions from (in alphabetic order):
   Daniel Aravena         : Magnetic Suceptibility
   Michael Atanasov       : Ab Initio Ligand Field Theory (pilot matlab implementation)
   Alexander A. Auer      : GIAO ZORA, VPT2
   Ute Becker             : Parallelization
   Giovanni Bistoni       : ED, misc. LED, open-shell LED, HFLED
   Martin Brehm           : Molecular dynamics
   Dmytro Bykov           : SCF Hessian
   Vijay G. Chilkuri      : MRCI spin determinant printing, contributions to CSF-ICE
   Dipayan Datta          : RHF DLPNO-CCSD density
   Achintya Kumar Dutta   : EOM-CC, STEOM-CC
   Dmitry Ganyushin       : Spin-Orbit,Spin-Spin,Magnetic field MRCI
   Miquel Garcia          : C-PCM Hessian, Gaussian charge scheme
   Yang Guo               : DLPNO-NEVPT2, CIM, IAO-localization
   Andreas Hansen         : Spin unrestricted coupled pair/coupled cluster methods
   Benjamin Helmich-Paris : CASSCF linear response (MC-RPA)
   Lee Huntington         : MR-EOM, pCC
   Robert Izsak           : Overlap fitted RIJCOSX, COSX-SCS-MP3, EOM
   Christian Kollmar      : KDIIS, OOCD, Brueckner-CCSD(T), CCSD density
   Simone Kossmann        : Meta GGA functionals, TD-DFT gradient, OOMP2, MP2 Hessian
   Martin Krupicka        : AUTO-CI
   Lucas Lang             : DCDCAS
   Dagmar Lenk            : GEPOL surface, SMD
   Dimitrios Liakos       : Extrapolation schemes; Compound Job, initial MDCI parallelization
   Dimitrios Manganas     : Further ROCIS development; embedding schemes
   Dimitrios Pantazis     : SARC Basis sets
   Taras Petrenko         : DFT Hessian,TD-DFT gradient, ASA, ECA, R-Raman, ABS, FL, XAS/XES, NRVS
   Peter Pinski           : DLPNO-MP2, DLPNO-MP2 Gradient
   Christoph Reimann      : Effective Core Potentials
   Marius Retegan         : Local ZFS, SOC
   Christoph Riplinger    : Optimizer, TS searches, QM/MM, DLPNO-CCSD(T), (RO)-DLPNO pert. Triples
   Tobias Risthaus        : Range-separated hybrids, TD-DFT gradient, RPA, STAB
   Michael Roemelt        : Original ROCIS implementation
   Masaaki Saitow         : Open-shell DLPNO-CCSD energy and density
   Barbara Sandhoefer     : DKH picture change effects
   Avijit Sen             : IP-ROCIS
   Kantharuban Sivalingam : CASSCF convergence, NEVPT2, FIC-MRCI
   Bernardo de Souza      : ESD, SOC TD-DFT
   Georgi Stoychev        : AutoAux, RI-MP2 NMR
   Willem Van den Heuvel  : Paramagnetic NMR
   Boris Wezisla          : Elementary symmetry handling
   Frank Wennmohs         : Technical directorship


 We gratefully acknowledge several colleagues who have allowed us to
 interface, adapt or use parts of their codes:
   Stefan Grimme, W. Hujo, H. Kruse,             : VdW corrections, initial TS optimization,
                  C. Bannwarth                     DFT functionals, gCP, sTDA/sTD-DF
   Ed Valeev, F. Pavosevic, A. Kumar             : LibInt (2-el integral package), F12 methods
   Garnet Chan, S. Sharma, J. Yang, R. Olivares  : DMRG
   Ulf Ekstrom                                   : XCFun DFT Library
   Mihaly Kallay                                 : mrcc  (arbitrary order and MRCC methods)
   Andreas Klamt, Michael Diedenhofen            : otool_cosmo (COSMO solvation model)
   Jiri Pittner, Ondrej Demel                    : Mk-CCSD
   Frank Weinhold                                : gennbo (NPA and NBO analysis)
   Christopher J. Cramer and Donald G. Truhlar   : smd solvation model
   Lars Goerigk                                  : TD-DFT with DH, B97 family of functionals
   V. Asgeirsson, H. Jonsson                     : NEB implementation
   FAccTs GmbH                                   : IRC, NEB, NEB-TS, Multilevel, MM, QM/MM, CI optimization
   S Lehtola, MJT Oliveira, MAL Marques          : LibXC Library


 Your calculation uses the libint2 library for the computation of 2-el integrals
 For citations please refer to: http://libint.valeyev.net

 Your ORCA version has been built with support for libXC version: 4.2.3
 For citations please refer to: https://tddft.org/programs/libxc/

 This ORCA versions uses:
   CBLAS   interface :  Fast vector & matrix operations
   LAPACKE interface :  Fast linear algebra routines
   SCALAPACK package :  Parallel linear algebra routines


Your calculation utilizes the atom-pairwise dispersion correction
with the Becke-Johnson damping scheme (D3BJ)
Cite in your paper:
S.Grimme, S.Ehrlich, L.Goerigk, J Comput Chem, (2011), 32, 1456–1465 
S.Grimme, J.Antony, S.Ehrlich and H.Krieg, J.Chem.Phys., 132, (2010), 154104 
   

----- Orbital basis set information -----
Your calculation utilizes the basis: def2-TZVPPD
   F. Weigend and R. Ahlrichs, Phys. Chem. Chem. Phys. 7, 3297 (2005).
   D. Rappoport and F. Furche, J. Chem. Phys. 133 134105 (2010).

----- AuxJK basis set information -----
Your calculation utilizes the auxiliary basis: def2/JK
   H-Ba, Hf-Rn: F. Weigend, J. Comput. Chem. 29, 167 (2008).

================================================================================
                                        WARNINGS
                       Please study these warnings very carefully!
================================================================================


WARNING: your system is open-shell and RHF/RKS was chosen
  ===> : WILL SWITCH to UHF/UKS


INFO   : the flag for use of LIBINT has been found!

================================================================================
                                       INPUT FILE
================================================================================
NAME = V+.in
|  1> #
|  2> # V+ TPSSh-D3BJ/Def2-TZVPPD
|  3> #
|  4> ! tpssh d3bj def2-tzvppd def2/jk grid4 nofinalgrid
|  5> 
|  6> *xyz 1 5
|  7> V          0.00000        0.00000        0.00000
|  8> *
|  9> 
| 10> %maxcore 5000
| 11> 
| 12> %pal
| 13> nprocs = 28
| 14> end
| 15> 
| 16> 
| 17>                          ****END OF INPUT****
================================================================================

                       ****************************
                       * Single Point Calculation *
                       ****************************

---------------------------------
CARTESIAN COORDINATES (ANGSTROEM)
---------------------------------
  V      0.000000    0.000000    0.000000

----------------------------
CARTESIAN COORDINATES (A.U.)
----------------------------
  NO LB      ZA    FRAG     MASS         X           Y           Z
   0 V    23.0000    0    50.940    0.000000    0.000000    0.000000

--------------------------------
INTERNAL COORDINATES (ANGSTROEM)
--------------------------------
 V      0   0   0     0.000000000000     0.00000000     0.00000000

---------------------------
INTERNAL COORDINATES (A.U.)
---------------------------
 V      0   0   0     0.000000000000     0.00000000     0.00000000

---------------------
BASIS SET INFORMATION
---------------------
There are 1 groups of distinct atoms

 Group   1 Type V   : 17s13p7d2f1g contracted to 6s6p4d2f1g pattern {842111/631111/4111/11/1}

Atom   0V    basis set group =>   1
----------------------------------
AUXILIARY/JK BASIS SET INFORMATION
----------------------------------
There are 1 groups of distinct atoms

 Group   1 Type V   : 19s14p12d10f7g3h1i contracted to 16s13p11d9f5g3h1i pattern {4111111111111111/2111111111111/21111111111/211111111/31111/111/1}

Atom   0V    basis set group =>   1


           ************************************************************
           *        Program running with 28 parallel MPI-processes    *
           *              working on a common directory               *
           ************************************************************
------------------------------------------------------------------------------
                           ORCA GTO INTEGRAL CALCULATION
------------------------------------------------------------------------------

                         BASIS SET STATISTICS AND STARTUP INFO

 # of primitive gaussian shells          ...   40
 # of primitive gaussian functions       ...  114
 # of contracted shells                  ...   19
 # of contracted basis functions         ...   67
 Highest angular momentum                ...    4
 Maximum contraction depth               ...    8
 Integral package used                   ... LIBINT
 Integral threshhold            Thresh   ...  1.000e-10
 Primitive cut-off              TCut     ...  1.000e-11


------------------------------ INTEGRAL EVALUATION ----------------------------


 * One electron integrals 
 Pre-screening matrix                    ... done
 Shell pair data                         ... done (   0.000 sec)



           ************************************************************
           *        Program running with 28 parallel MPI-processes    *
           *              working on a common directory               *
           ************************************************************
-------------------------------------------------------------------------------
                                 ORCA SCF
-------------------------------------------------------------------------------

------------
SCF SETTINGS
------------
Hamiltonian:
 Density Functional     Method          .... DFT(GTOs)
 Exchange Functional    Exchange        .... TPSS
 Correlation Functional Correlation     .... TPSS
 LDA part of GGA corr.  LDAOpt          .... PW91-LDA
 Gradients option       PostSCFGGA      .... off
 Hybrid DFT is turned on
   Fraction HF Exchange ScalHFX         ....  0.100000
   Scaling of DF-GGA-X  ScalDFX         ....  0.900000
   Scaling of DF-GGA-C  ScalDFC         ....  1.000000
   Scaling of DF-LDA-C  ScalLDAC        ....  1.000000
   Perturbative correction              ....  0.000000
   Density functional embedding theory  .... OFF
   NL short-range parameter             ....  5.200000


General Settings:
 Integral files         IntName         .... V+
 Hartree-Fock type      HFTyp           .... UHF
 Total Charge           Charge          ....    1
 Multiplicity           Mult            ....    5
 Number of Electrons    NEL             ....   22
 Basis Dimension        Dim             ....   67
 Nuclear Repulsion      ENuc            ....      0.0000000000 Eh

Convergence Acceleration:
 DIIS                   CNVDIIS         .... on
   Start iteration      DIISMaxIt       ....    12
   Startup error        DIISStart       ....  0.200000
   # of expansion vecs  DIISMaxEq       ....     5
   Bias factor          DIISBfac        ....   1.050
   Max. coefficient     DIISMaxC        ....  10.000
 Newton-Raphson         CNVNR           .... off
 SOSCF                  CNVSOSCF        .... off
 Level Shifting         CNVShift        .... on
   Level shift para.    LevelShift      ....    0.2500
   Turn off err/grad.   ShiftErr        ....    0.0010
 Zerner damping         CNVZerner       .... off
 Static damping         CNVDamp         .... on
   Fraction old density DampFac         ....    0.7000
   Max. Damping (<1)    DampMax         ....    0.9800
   Min. Damping (>=0)   DampMin         ....    0.0000
   Turn off err/grad.   DampErr         ....    0.1000
 Fernandez-Rico         CNVRico         .... off

SCF Procedure:
 Maximum # iterations   MaxIter         ....   125
 SCF integral mode      SCFMode         .... Direct
   Integral package                     .... LIBINT
 Reset frequency        DirectResetFreq ....    20
 Integral Threshold     Thresh          ....  1.000e-10 Eh
 Primitive CutOff       TCut            ....  1.000e-11 Eh

Convergence Tolerance:
 Convergence Check Mode ConvCheckMode   .... Total+1el-Energy
 Convergence forced     ConvForced      .... 0
 Energy Change          TolE            ....  1.000e-06 Eh
 1-El. energy change                    ....  1.000e-03 Eh
 DIIS Error             TolErr          ....  1.000e-06


Diagonalization of the overlap matrix:
Smallest eigenvalue                        ... 3.674e-02
Time for diagonalization                   ...    0.007 sec
Threshold for overlap eigenvalues          ... 1.000e-08
Number of eigenvalues below threshold      ... 0
Time for construction of square roots      ...    0.022 sec
Total time needed                          ...    0.029 sec

-------------------
DFT GRID GENERATION
-------------------

General Integration Accuracy     IntAcc      ...  4.670
Radial Grid Type                 RadialGrid  ... Gauss-Chebyshev
Angular Grid (max. acc.)         AngularGrid ... Lebedev-302
Angular grid pruning method      GridPruning ... 3 (G Style)
Weight generation scheme         WeightScheme... Becke
Basis function cutoff            BFCut       ...    1.0000e-10
Integration weight cutoff        WCut        ...    1.0000e-14
Grids for H and He will be reduced by one unit

# of grid points (after initial pruning)     ...   9664 (   0.0 sec)
# of grid points (after weights+screening)   ...   9664 (   0.0 sec)
Grid point division into batches done        ...    0.1 sec
Reduced shell lists constructed in    0.1 sec

Total number of grid points                  ...     9664
Total number of batches                      ...      152
Average number of points per batch           ...       63
Average number of grid points per atom       ...     9664
Average number of shells per batch           ...     3.43 (18.05%)
Average number of basis functions per batch  ...    10.29 (15.35%)
Average number of large shells per batch     ...     3.43 (100.00%)
Average number of large basis fcns per batch ...    10.29 (100.00%)
Maximum spatial batch extension              ...  22.27, 22.27, 22.27 au
Average spatial batch extension              ...   0.77,  0.76,  0.74 au

Time for grid setup =    0.356 sec

------------------------------
INITIAL GUESS: MODEL POTENTIAL
------------------------------
Loading Hartree-Fock densities                     ... done
Calculating cut-offs                               ... done
Setting up the integral package                    ... done
Initializing the effective Hamiltonian             ... done
Starting the Coulomb interaction                   ... done (   0.0 sec)
Reading the grid                                   ... done
Mapping shells                                     ... done
Starting the XC term evaluation                    ... done (   0.0 sec)
  promolecular density results
     # of electrons  =     23.000003052
     EX              =    -43.918520832
     EC              =     -0.944824995
     EX+EC           =    -44.863345827
Transforming the Hamiltonian                       ... done (   0.0 sec)
Diagonalizing the Hamiltonian                      ... done (   0.0 sec)
Back transforming the eigenvectors                 ... done (   0.0 sec)
Now organizing SCF variables                       ... done
                      ------------------
                      INITIAL GUESS DONE (   0.5 sec)
                      ------------------
--------------
SCF ITERATIONS
--------------
ITER       Energy         Delta-E        Max-DP      RMS-DP      [F,P]     Damp
               ***  Starting incremental Fock matrix formation  ***
  0   -943.6556662425   0.000000000000 0.01779528  0.00067051  0.1032779 0.7000
  1   -943.6635970052  -0.007930762730 0.00913815  0.00034856  0.0502318 0.7000
                               ***Turning on DIIS***
  2   -943.6667705446  -0.003173539401 0.01176948  0.00046739  0.0212572 0.0000
  3   -943.6731065554  -0.006336010775 0.00779733  0.00030668  0.0153385 0.0000
  4   -943.6738106966  -0.000704141229 0.00243152  0.00010455  0.0074260 0.0000
  5   -943.6739256842  -0.000114987594 0.00231189  0.00004824  0.0016658 0.0000
  6   -943.6739474712  -0.000021786933 0.01642852  0.00030595  0.0008879 0.0000
  7   -943.6740719353  -0.000124464183 0.00036466  0.00000659  0.0011092 0.0000
  8   -943.6740692720   0.000002663337 0.00009356  0.00000196  0.0011885 0.0000
                 **** Energy Check signals convergence ****

               *****************************************************
               *                     SUCCESS                       *
               *           SCF CONVERGED AFTER   9 CYCLES          *
               *****************************************************


----------------
TOTAL SCF ENERGY
----------------

Total Energy       :         -943.67406857 Eh          -25678.67688 eV

Components:
Nuclear Repulsion  :            0.00000000 Eh               0.00000 eV
Electronic Energy  :         -943.67406857 Eh          -25678.67688 eV
One Electron Energy:        -1291.87887296 Eh          -35153.81132 eV
Two Electron Energy:          348.20480439 Eh            9475.13443 eV

Virial components:
Potential Energy   :        -1885.71186970 Eh          -51312.82867 eV
Kinetic Energy     :          942.03780113 Eh           25634.15178 eV
Virial Ratio       :            2.00173694


DFT components:
N(Alpha)           :       12.999999659063 electrons
N(Beta)            :        8.999999670438 electrons
N(Total)           :       21.999999329501 electrons
E(X)               :      -39.938729407658 Eh       
E(C)               :       -0.926318570983 Eh       
E(XC)              :      -40.865047978641 Eh       
DFET-embed. en.    :        0.000000000000 Eh       

---------------
SCF CONVERGENCE
---------------

  Last Energy change         ...    7.0576e-07  Tolerance :   1.0000e-06
  Last MAX-Density change    ...    6.2598e-05  Tolerance :   1.0000e-05
  Last RMS-Density change    ...    1.3705e-06  Tolerance :   1.0000e-06
  Last DIIS Error            ...    1.1385e-03  Tolerance :   1.0000e-06

             **** THE GBW FILE WAS UPDATED (V+.gbw) ****
             **** DENSITY FILE WAS UPDATED (V+.scfp) ****
             **** ENERGY FILE WAS UPDATED (V+.en.tmp) ****
----------------------
UHF SPIN CONTAMINATION
----------------------

Warning: in a DFT calculation there is little theoretical justification to 
         calculate <S**2> as in Hartree-Fock theory. We will do it anyways
         but you should keep in mind that the values have only limited relevance

Expectation value of <S**2>     :     6.000410
Ideal value S*(S+1) for S=2.0   :     6.000000
Deviation                       :     0.000410

             **** THE GBW FILE WAS UPDATED (V+.gbw) ****
             **** DENSITY FILE WAS UPDATED (V+.scfp) ****
----------------
ORBITAL ENERGIES
----------------
                 SPIN UP ORBITALS
  NO   OCC          E(Eh)            E(eV) 
   0   1.0000    -196.813295     -5355.5620 
   1   1.0000     -22.235952      -605.0710 
   2   1.0000     -18.724268      -509.5132 
   3   1.0000     -18.718270      -509.3500 
   4   1.0000     -18.710466      -509.1377 
   5   1.0000      -2.775186       -75.5166 
   6   1.0000      -1.825412       -49.6720 
   7   1.0000      -1.821524       -49.5662 
   8   1.0000      -1.813000       -49.3342 
   9   1.0000      -0.406988       -11.0747 
  10   1.0000      -0.387021       -10.5314 
  11   1.0000      -0.372799       -10.1444 
  12   1.0000      -0.368794       -10.0354 
  13   0.0000      -0.331714        -9.0264 
  14   0.0000      -0.301392        -8.2013 
  15   0.0000      -0.202366        -5.5067 
  16   0.0000      -0.201767        -5.4904 
  17   0.0000      -0.201384        -5.4799 
  18   0.0000      -0.072201        -1.9647 
  19   0.0000      -0.052794        -1.4366 
  20   0.0000      -0.052399        -1.4258 
  21   0.0000      -0.052168        -1.4196 
  22   0.0000      -0.044480        -1.2104 
  23   0.0000      -0.041650        -1.1333 
  24   0.0000      -0.039346        -1.0707 
  25   0.0000      -0.038666        -1.0522 
  26   0.0000      -0.033905        -0.9226 
  27   0.0000       0.203285         5.5317 
  28   0.0000       0.203327         5.5328 
  29   0.0000       0.203849         5.5470 
  30   0.0000       0.403427        10.9778 
  31   0.0000       0.411825        11.2063 
  32   0.0000       0.418687        11.3930 
  33   0.0000       0.420320        11.4375 
  34   0.0000       0.432902        11.7798 
  35   0.0000       0.863875        23.5072 
  36   0.0000       0.865844        23.5608 
  37   0.0000       0.874358        23.7925 
  38   0.0000       0.880901        23.9705 
  39   0.0000       0.886553        24.1243 
  40   0.0000       0.887458        24.1489 
  41   0.0000       0.893761        24.3205 
  42   0.0000       1.487067        40.4651 
  43   0.0000       1.490060        40.5466 
  44   0.0000       1.496440        40.7202 
  45   0.0000       1.646810        44.8120 
  46   0.0000       2.168348        59.0037 
  47   0.0000       2.182657        59.3931 
  48   0.0000       2.192712        59.6667 
  49   0.0000       2.195915        59.7539 
  50   0.0000       2.203329        59.9556 
  51   0.0000       3.869517       105.2949 
  52   0.0000       3.869836       105.3036 
  53   0.0000       3.870210       105.3138 
  54   0.0000       3.871675       105.3536 
  55   0.0000       3.873889       105.4139 
  56   0.0000       3.883855       105.6851 
  57   0.0000       3.887619       105.7875 
  58   0.0000       3.889679       105.8436 
  59   0.0000       3.890063       105.8540 
  60   0.0000       4.346063       118.2624 
  61   0.0000       4.346110       118.2637 
  62   0.0000       4.349395       118.3530 
  63   0.0000       4.362386       118.7065 
  64   0.0000       4.366723       118.8246 
  65   0.0000       4.370502       118.9274 
  66   0.0000       4.370830       118.9363 

                 SPIN DOWN ORBITALS
  NO   OCC          E(Eh)            E(eV) 
   0   1.0000    -196.813376     -5355.5642 
   1   1.0000     -22.193469      -603.9150 
   2   1.0000     -18.693696      -508.6813 
   3   1.0000     -18.683081      -508.3925 
   4   1.0000     -18.669596      -508.0255 
   5   1.0000      -2.638508       -71.7975 
   6   1.0000      -1.703581       -46.3568 
   7   1.0000      -1.677279       -45.6411 
   8   1.0000      -1.643671       -44.7266 
   9   0.0000      -0.269744        -7.3401 
  10   0.0000      -0.238121        -6.4796 
  11   0.0000      -0.211981        -5.7683 
  12   0.0000      -0.201475        -5.4824 
  13   0.0000      -0.193617        -5.2686 
  14   0.0000      -0.191473        -5.2102 
  15   0.0000      -0.152353        -4.1457 
  16   0.0000      -0.148753        -4.0478 
  17   0.0000      -0.143893        -3.9155 
  18   0.0000      -0.032514        -0.8847 
  19   0.0000      -0.030734        -0.8363 
  20   0.0000      -0.029608        -0.8057 
  21   0.0000      -0.028344        -0.7713 
  22   0.0000       0.011658         0.3172 
  23   0.0000       0.016500         0.4490 
  24   0.0000       0.019566         0.5324 
  25   0.0000       0.021713         0.5908 
  26   0.0000       0.022292         0.6066 
  27   0.0000       0.249805         6.7975 
  28   0.0000       0.254524         6.9259 
  29   0.0000       0.261058         7.1037 
  30   0.0000       0.470957        12.8154 
  31   0.0000       0.479313        13.0428 
  32   0.0000       0.485759        13.2182 
  33   0.0000       0.490684        13.3522 
  34   0.0000       0.491763        13.3816 
  35   0.0000       0.939268        25.5588 
  36   0.0000       0.940529        25.5931 
  37   0.0000       0.948612        25.8130 
  38   0.0000       0.951357        25.8877 
  39   0.0000       0.953875        25.9563 
  40   0.0000       0.959484        26.1089 
  41   0.0000       0.959862        26.1192 
  42   0.0000       1.569737        42.7147 
  43   0.0000       1.583873        43.0994 
  44   0.0000       1.603144        43.6238 
  45   0.0000       1.753708        47.7208 
  46   0.0000       2.268765        61.7362 
  47   0.0000       2.290469        62.3268 
  48   0.0000       2.300887        62.6103 
  49   0.0000       2.308679        62.8224 
  50   0.0000       2.311202        62.8910 
  51   0.0000       3.948461       107.4431 
  52   0.0000       3.949751       107.4782 
  53   0.0000       3.962413       107.8227 
  54   0.0000       3.968423       107.9863 
  55   0.0000       3.972047       108.0849 
  56   0.0000       3.985672       108.4557 
  57   0.0000       3.986095       108.4672 
  58   0.0000       3.989070       108.5481 
  59   0.0000       3.989200       108.5516 
  60   0.0000       4.464012       121.4719 
  61   0.0000       4.471278       121.6697 
  62   0.0000       4.486146       122.0742 
  63   0.0000       4.513377       122.8152 
  64   0.0000       4.514805       122.8541 
  65   0.0000       4.519017       122.9687 
  66   0.0000       4.519402       122.9792 

                    ********************************
                    * MULLIKEN POPULATION ANALYSIS *
                    ********************************

--------------------------------------------
MULLIKEN ATOMIC CHARGES AND SPIN POPULATIONS
--------------------------------------------
   0 V :    1.000000    4.000000
Sum of atomic charges         :    1.0000000
Sum of atomic spin populations:    4.0000000

-----------------------------------------------------
MULLIKEN REDUCED ORBITAL CHARGES AND SPIN POPULATIONS
-----------------------------------------------------
CHARGE
  0 V s       :     6.003294  s :     6.003294
      pz      :     3.999874  p :    11.999764
      px      :     3.999938
      py      :     3.999953
      dz2     :     0.188316  d :     3.996658
      dxz     :     0.951695
      dyz     :     0.941302
      dx2y2   :     0.917877
      dxy     :     0.997468
      f0      :     0.000099  f :     0.000236
      f+1     :     0.000046
      f-1     :     0.000042
      f+2     :     0.000015
      f-2     :     0.000005
      f+3     :     0.000015
      f-3     :     0.000013
      g0      :     0.000009  g :     0.000048
      g+1     :     0.000006
      g-1     :     0.000003
      g+2     :     0.000013
      g-2     :     0.000009
      g+3     :     0.000003
      g-3     :     0.000004
      g+4     :     0.000001
      g-4     :     0.000001

SPIN
  0 V s       :     0.003750  s :     0.003750
      pz      :     0.000040  p :     0.000027
      px      :    -0.000027
      py      :     0.000014
      dz2     :     0.188044  d :     3.996210
      dxz     :     0.951693
      dyz     :     0.941257
      dx2y2   :     0.917762
      dxy     :     0.997453
      f0      :    -0.000033  f :    -0.000027
      f+1     :     0.000037
      f-1     :    -0.000015
      f+2     :     0.000006
      f-2     :     0.000002
      f+3     :    -0.000014
      f-3     :    -0.000010
      g0      :     0.000004  g :     0.000040
      g+1     :     0.000005
      g-1     :     0.000002
      g+2     :     0.000012
      g-2     :     0.000009
      g+3     :     0.000003
      g-3     :     0.000004
      g+4     :     0.000001
      g-4     :     0.000001


                     *******************************
                     * LOEWDIN POPULATION ANALYSIS *
                     *******************************

-------------------------------------------
LOEWDIN ATOMIC CHARGES AND SPIN POPULATIONS
-------------------------------------------
   0 V :    1.000000    4.000000

----------------------------------------------------
LOEWDIN REDUCED ORBITAL CHARGES AND SPIN POPULATIONS
----------------------------------------------------
CHARGE
  0 V s       :     6.003294  s :     6.003294
      pz      :     3.999874  p :    11.999764
      px      :     3.999938
      py      :     3.999953
      dz2     :     0.188316  d :     3.996658
      dxz     :     0.951695
      dyz     :     0.941302
      dx2y2   :     0.917877
      dxy     :     0.997468
      f0      :     0.000099  f :     0.000236
      f+1     :     0.000046
      f-1     :     0.000042
      f+2     :     0.000015
      f-2     :     0.000005
      f+3     :     0.000015
      f-3     :     0.000013
      g0      :     0.000009  g :     0.000048
      g+1     :     0.000006
      g-1     :     0.000003
      g+2     :     0.000013
      g-2     :     0.000009
      g+3     :     0.000003
      g-3     :     0.000004
      g+4     :     0.000001
      g-4     :     0.000001

SPIN
  0 V s       :     0.003750  s :     0.003750
      pz      :     0.000040  p :     0.000027
      px      :    -0.000027
      py      :     0.000014
      dz2     :     0.188044  d :     3.996210
      dxz     :     0.951693
      dyz     :     0.941257
      dx2y2   :     0.917762
      dxy     :     0.997453
      f0      :    -0.000033  f :    -0.000027
      f+1     :     0.000037
      f-1     :    -0.000015
      f+2     :     0.000006
      f-2     :     0.000002
      f+3     :    -0.000014
      f-3     :    -0.000010
      g0      :     0.000004  g :     0.000040
      g+1     :     0.000005
      g-1     :     0.000002
      g+2     :     0.000012
      g-2     :     0.000009
      g+3     :     0.000003
      g-3     :     0.000004
      g+4     :     0.000001
      g-4     :     0.000001


                      *****************************
                      * MAYER POPULATION ANALYSIS *
                      *****************************

  NA   - Mulliken gross atomic population
  ZA   - Total nuclear charge
  QA   - Mulliken gross atomic charge
  VA   - Mayer's total valence
  BVA  - Mayer's bonded valence
  FA   - Mayer's free valence

  ATOM       NA         ZA         QA         VA         BVA        FA
  0 V     22.0000    23.0000     1.0000     4.0008     0.0000     4.0008

  Mayer bond orders larger than 0.100000


-------
TIMINGS
-------

Total SCF time: 0 days 0 hours 0 min 4 sec 

Total time                  ....       4.763 sec
Sum of individual times     ....       4.182 sec  ( 87.8%)

Fock matrix formation       ....       3.382 sec  ( 71.0%)
  XC integration            ....       1.132 sec  ( 33.5% of F)
    Basis function eval.    ....       0.007 sec  (  0.6% of XC)
    Density eval.           ....       0.020 sec  (  1.7% of XC)
    XC-Functional eval.     ....       0.015 sec  (  1.3% of XC)
    XC-Potential eval.      ....       0.030 sec  (  2.6% of XC)
Diagonalization             ....       0.091 sec  (  1.9%)
Density matrix formation    ....       0.003 sec  (  0.1%)
Population analysis         ....       0.167 sec  (  3.5%)
Initial guess               ....       0.115 sec  (  2.4%)
Orbital Transformation      ....       0.000 sec  (  0.0%)
Orbital Orthonormalization  ....       0.000 sec  (  0.0%)
DIIS solution               ....       0.067 sec  (  1.4%)
Grid generation             ....       0.356 sec  (  7.5%)


-------------------------------------------------------------------------------
                          DFT DISPERSION CORRECTION                            
                                                                               
                              DFTD3 V3.1  Rev 1                                
                          USING Becke-Johnson damping                          
-------------------------------------------------------------------------------
The TPSSH functional is recognized
Active option DFTDOPT                   ...         4   

molecular C6(AA) [au] = 1116.097907 


            DFT-D V3
 parameters
 s6 scaling factor         :     1.0000 
 a1 scaling factor         :     0.4529 
 s8 scaling factor         :     2.2382 
 a2 scaling factor         :     4.6550 
 ad hoc parameters k1-k3   :    16.0000     1.3333    -4.0000 

 Edisp/kcal,au: -0.000000000000  -0.000000000000 
 E6   /kcal   :  -0.000000000 
 E8   /kcal   :  -0.000000000 
 % E8         :          -nan 

-------------------------   ----------------
Dispersion correction            0.000000000
-------------------------   ----------------


-------------------------   --------------------
FINAL SINGLE POINT ENERGY      -943.674068566237
-------------------------   --------------------


                            ***************************************
                            *     ORCA property calculations      *
                            ***************************************

                                    ---------------------
                                    Active property flags
                                    ---------------------
   (+) Dipole Moment


------------------------------------------------------------------------------
                       ORCA ELECTRIC PROPERTIES CALCULATION
------------------------------------------------------------------------------

Dipole Moment Calculation                       ... on
Quadrupole Moment Calculation                   ... off
Polarizability Calculation                      ... off
GBWName                                         ... V+.gbw
Electron density file                           ... V+.scfp
The origin for moment calculation is the CENTER OF MASS  = ( 0.000000,  0.000000  0.000000)

-------------
DIPOLE MOMENT
-------------
                                X             Y             Z
Electronic contribution:      0.00000       0.00000      -0.00000
Nuclear contribution   :      0.00000       0.00000       0.00000
                        -----------------------------------------
Total Dipole Moment    :      0.00000       0.00000      -0.00000
                        -----------------------------------------
Magnitude (a.u.)       :      0.00000
Magnitude (Debye)      :      0.00000



--------------------
Rotational spectrum 
--------------------
 
Rotational constants in cm-1:     0.000000     0.000000     0.000000 
Rotational constants in MHz :     0.000000     0.000000     0.000000 

 Dipole components along the rotational axes: 
x,y,z [a.u.] :     0.000000     0.000000    -0.000000 
x,y,z [Debye]:     0.000000     0.000000    -0.000000 

 

Timings for individual modules:

Sum of individual times         ...       12.702 sec (=   0.212 min)
GTO integral calculation        ...        4.931 sec (=   0.082 min)  38.8 %
SCF iterations                  ...        7.771 sec (=   0.130 min)  61.2 %
                             ****ORCA TERMINATED NORMALLY****
TOTAL RUN TIME: 0 days 0 hours 0 minutes 16 seconds 113 msec
