
                                 *****************
                                 * O   R   C   A *
                                 *****************

           --- An Ab Initio, DFT and Semiempirical electronic structure package ---

                  #######################################################
                  #                        -***-                        #
                  #          Department of theory and spectroscopy      #
                  #               Directorship: Frank Neese             #
                  #        Max Planck Institute fuer Kohlenforschung    #
                  #                Kaiser Wilhelm Platz 1               #
                  #                 D-45470 Muelheim/Ruhr               #
                  #                      Germany                        #
                  #                                                     #
                  #                  All rights reserved                #
                  #                        -***-                        #
                  #######################################################


                         Program Version 4.2.0 -  RELEASE  -


 With contributions from (in alphabetic order):
   Daniel Aravena         : Magnetic Suceptibility
   Michael Atanasov       : Ab Initio Ligand Field Theory (pilot matlab implementation)
   Alexander A. Auer      : GIAO ZORA, VPT2
   Ute Becker             : Parallelization
   Giovanni Bistoni       : ED, misc. LED, open-shell LED, HFLED
   Martin Brehm           : Molecular dynamics
   Dmytro Bykov           : SCF Hessian
   Vijay G. Chilkuri      : MRCI spin determinant printing, contributions to CSF-ICE
   Dipayan Datta          : RHF DLPNO-CCSD density
   Achintya Kumar Dutta   : EOM-CC, STEOM-CC
   Dmitry Ganyushin       : Spin-Orbit,Spin-Spin,Magnetic field MRCI
   Miquel Garcia          : C-PCM Hessian, Gaussian charge scheme
   Yang Guo               : DLPNO-NEVPT2, CIM, IAO-localization
   Andreas Hansen         : Spin unrestricted coupled pair/coupled cluster methods
   Benjamin Helmich-Paris : CASSCF linear response (MC-RPA)
   Lee Huntington         : MR-EOM, pCC
   Robert Izsak           : Overlap fitted RIJCOSX, COSX-SCS-MP3, EOM
   Christian Kollmar      : KDIIS, OOCD, Brueckner-CCSD(T), CCSD density
   Simone Kossmann        : Meta GGA functionals, TD-DFT gradient, OOMP2, MP2 Hessian
   Martin Krupicka        : AUTO-CI
   Lucas Lang             : DCDCAS
   Dagmar Lenk            : GEPOL surface, SMD
   Dimitrios Liakos       : Extrapolation schemes; Compound Job, initial MDCI parallelization
   Dimitrios Manganas     : Further ROCIS development; embedding schemes
   Dimitrios Pantazis     : SARC Basis sets
   Taras Petrenko         : DFT Hessian,TD-DFT gradient, ASA, ECA, R-Raman, ABS, FL, XAS/XES, NRVS
   Peter Pinski           : DLPNO-MP2, DLPNO-MP2 Gradient
   Christoph Reimann      : Effective Core Potentials
   Marius Retegan         : Local ZFS, SOC
   Christoph Riplinger    : Optimizer, TS searches, QM/MM, DLPNO-CCSD(T), (RO)-DLPNO pert. Triples
   Tobias Risthaus        : Range-separated hybrids, TD-DFT gradient, RPA, STAB
   Michael Roemelt        : Original ROCIS implementation
   Masaaki Saitow         : Open-shell DLPNO-CCSD energy and density
   Barbara Sandhoefer     : DKH picture change effects
   Avijit Sen             : IP-ROCIS
   Kantharuban Sivalingam : CASSCF convergence, NEVPT2, FIC-MRCI
   Bernardo de Souza      : ESD, SOC TD-DFT
   Georgi Stoychev        : AutoAux, RI-MP2 NMR
   Willem Van den Heuvel  : Paramagnetic NMR
   Boris Wezisla          : Elementary symmetry handling
   Frank Wennmohs         : Technical directorship


 We gratefully acknowledge several colleagues who have allowed us to
 interface, adapt or use parts of their codes:
   Stefan Grimme, W. Hujo, H. Kruse,             : VdW corrections, initial TS optimization,
                  C. Bannwarth                     DFT functionals, gCP, sTDA/sTD-DF
   Ed Valeev, F. Pavosevic, A. Kumar             : LibInt (2-el integral package), F12 methods
   Garnet Chan, S. Sharma, J. Yang, R. Olivares  : DMRG
   Ulf Ekstrom                                   : XCFun DFT Library
   Mihaly Kallay                                 : mrcc  (arbitrary order and MRCC methods)
   Andreas Klamt, Michael Diedenhofen            : otool_cosmo (COSMO solvation model)
   Jiri Pittner, Ondrej Demel                    : Mk-CCSD
   Frank Weinhold                                : gennbo (NPA and NBO analysis)
   Christopher J. Cramer and Donald G. Truhlar   : smd solvation model
   Lars Goerigk                                  : TD-DFT with DH, B97 family of functionals
   V. Asgeirsson, H. Jonsson                     : NEB implementation
   FAccTs GmbH                                   : IRC, NEB, NEB-TS, Multilevel, MM, QM/MM, CI optimization
   S Lehtola, MJT Oliveira, MAL Marques          : LibXC Library


 Your calculation uses the libint2 library for the computation of 2-el integrals
 For citations please refer to: http://libint.valeyev.net

 Your ORCA version has been built with support for libXC version: 4.2.3
 For citations please refer to: https://tddft.org/programs/libxc/

 This ORCA versions uses:
   CBLAS   interface :  Fast vector & matrix operations
   LAPACKE interface :  Fast linear algebra routines
   SCALAPACK package :  Parallel linear algebra routines


Your calculation utilizes the atom-pairwise dispersion correction
with the Becke-Johnson damping scheme (D3BJ)
Cite in your paper:
S.Grimme, S.Ehrlich, L.Goerigk, J Comput Chem, (2011), 32, 1456–1465 
S.Grimme, J.Antony, S.Ehrlich and H.Krieg, J.Chem.Phys., 132, (2010), 154104 
   

----- Orbital basis set information -----
Your calculation utilizes the basis: def2-TZVPPD
   F. Weigend and R. Ahlrichs, Phys. Chem. Chem. Phys. 7, 3297 (2005).
   D. Rappoport and F. Furche, J. Chem. Phys. 133 134105 (2010).

----- AuxJK basis set information -----
Your calculation utilizes the auxiliary basis: def2/JK
   H-Ba, Hf-Rn: F. Weigend, J. Comput. Chem. 29, 167 (2008).

cite the ECPs for Zr [Def2-ECP] as follows:
Ce-Yb(ecp-28): M. Dolg, H. Stoll, H.Preuss, J. Chem. Phys., 1989, 90, 1730-1734.
Y-Cd(ecp-28), Hf-Hg(ecp-46): D. Andrae,U. Haeussermann, M. Dolg, H. Stoll, H. Preuss, Theor. Chim. Acta, 1990, 77, 123-141.
In-Sb(ecp-28), Tl-Bi(ecp-46): B. Metz, H. Stoll, M. Dolg, J. Chem. Phys., 2000, 113, 2563-2569.
Te-Xe(ecp-28), Po-Rn(ecp-46): K. A. Peterson, D. Figgen, E. Goll, H. Stoll, M. Dolg, J. Chem. Phys., 2003, 119, 11113-11123.
Rb(ecp-28), Cs(ecp-46): T. Leininger, A. Nicklass, W. Kuechle, H. Stoll, M. Dolg, A. Bergner, Chem. Phys. Lett., 1996, 255, 274-280.
Sr(ecp-28), Ba(ecp-46): M. Kaupp, P. V. Schleyer, H. Stoll and H. Preuss, J. Chem. Phys., 1991, 94, 1360-1366.
La(ecp-46): M. Dolg, H. Stoll, A. Savin, H. Preuss, Theor. Chim. Acta, 1989, 75, 173-194.
Lu(ecp-28): X. Cao, M. Dolg, J. Chem. Phys., 2001, 115, 7348-7355.

ECP parameters for Zr [Def2-ECP] have been obtained from:
TURBOMOLE (7.0.2)

================================================================================
                                        WARNINGS
                       Please study these warnings very carefully!
================================================================================


WARNING: your system is open-shell and RHF/RKS was chosen
  ===> : WILL SWITCH to UHF/UKS


INFO   : the flag for use of LIBINT has been found!

================================================================================
                                       INPUT FILE
================================================================================
NAME = Zr.in
|  1> #
|  2> # Zr TPSSh-D3BJ/Def2-TZVPPD
|  3> #
|  4> ! tpssh d3bj def2-tzvppd def2/jk grid4 nofinalgrid
|  5> 
|  6> *xyz 0 3
|  7> Zr         0.00000        0.00000        0.00000
|  8> *
|  9> 
| 10> %maxcore 5000
| 11> 
| 12> %pal
| 13> nprocs = 28
| 14> end
| 15> 
| 16> 
| 17>                          ****END OF INPUT****
================================================================================

                       ****************************
                       * Single Point Calculation *
                       ****************************

---------------------------------
CARTESIAN COORDINATES (ANGSTROEM)
---------------------------------
  Zr     0.000000    0.000000    0.000000

----------------------------
CARTESIAN COORDINATES (A.U.)
----------------------------
  NO LB      ZA    FRAG     MASS         X           Y           Z
   0 Zr   12.0000*   0    91.220    0.000000    0.000000    0.000000
* core charge reduced due to ECP

--------------------------------
INTERNAL COORDINATES (ANGSTROEM)
--------------------------------
 Zr     0   0   0     0.000000000000     0.00000000     0.00000000

---------------------------
INTERNAL COORDINATES (A.U.)
---------------------------
 Zr     0   0   0     0.000000000000     0.00000000     0.00000000

---------------------
BASIS SET INFORMATION
---------------------
There are 1 groups of distinct atoms

 Group   1 Type Zr  : 7s7p5d2f1g contracted to 6s4p3d2f1g pattern {211111/4111/311/11/1}

Atom   0Zr   basis set group =>   1
----------------------------------
AUXILIARY/JK BASIS SET INFORMATION
----------------------------------
There are 1 groups of distinct atoms

 Group   1 Type Zr  : 13s12p10d9f6g3h2i contracted to 11s10p9d8f6g3h2i pattern {31111111111/3111111111/211111111/21111111/111111/111/11}

Atom   0Zr   basis set group =>   1
-------------------------
ECP PARAMETER INFORMATION
-------------------------

 Group 1, Type Zr ECP Def2-ECP (replacing 28 core electrons, lmax=3)

Atom   0Zr   ECP group =>   1



           ************************************************************
           *        Program running with 28 parallel MPI-processes    *
           *              working on a common directory               *
           ************************************************************
------------------------------------------------------------------------------
                           ORCA GTO INTEGRAL CALCULATION
------------------------------------------------------------------------------

                         BASIS SET STATISTICS AND STARTUP INFO

 # of primitive gaussian shells          ...   22
 # of primitive gaussian functions       ...   76
 # of contracted shells                  ...   16
 # of contracted basis functions         ...   56
 Highest angular momentum                ...    4
 Maximum contraction depth               ...    4
 Integral package used                   ... LIBINT
 Integral threshhold            Thresh   ...  1.000e-10
 Primitive cut-off              TCut     ...  1.000e-11


------------------------------ INTEGRAL EVALUATION ----------------------------


 * One electron integrals 

   ECP integrals                         ... done
 Pre-screening matrix                    ... done
 Shell pair data                         ... done (   0.000 sec)



           ************************************************************
           *        Program running with 28 parallel MPI-processes    *
           *              working on a common directory               *
           ************************************************************
-------------------------------------------------------------------------------
                                 ORCA SCF
-------------------------------------------------------------------------------

------------
SCF SETTINGS
------------
Hamiltonian:
 Density Functional     Method          .... DFT(GTOs)
 Exchange Functional    Exchange        .... TPSS
 Correlation Functional Correlation     .... TPSS
 LDA part of GGA corr.  LDAOpt          .... PW91-LDA
 Gradients option       PostSCFGGA      .... off
 Hybrid DFT is turned on
   Fraction HF Exchange ScalHFX         ....  0.100000
   Scaling of DF-GGA-X  ScalDFX         ....  0.900000
   Scaling of DF-GGA-C  ScalDFC         ....  1.000000
   Scaling of DF-LDA-C  ScalLDAC        ....  1.000000
   Perturbative correction              ....  0.000000
   Density functional embedding theory  .... OFF
   NL short-range parameter             ....  5.200000


General Settings:
 Integral files         IntName         .... Zr
 Hartree-Fock type      HFTyp           .... UHF
 Total Charge           Charge          ....    0
 Multiplicity           Mult            ....    3
 Number of Electrons    NEL             ....   12
 Basis Dimension        Dim             ....   56
 Nuclear Repulsion      ENuc            ....      0.0000000000 Eh

Convergence Acceleration:
 DIIS                   CNVDIIS         .... on
   Start iteration      DIISMaxIt       ....    12
   Startup error        DIISStart       ....  0.200000
   # of expansion vecs  DIISMaxEq       ....     5
   Bias factor          DIISBfac        ....   1.050
   Max. coefficient     DIISMaxC        ....  10.000
 Newton-Raphson         CNVNR           .... off
 SOSCF                  CNVSOSCF        .... off
 Level Shifting         CNVShift        .... on
   Level shift para.    LevelShift      ....    0.2500
   Turn off err/grad.   ShiftErr        ....    0.0010
 Zerner damping         CNVZerner       .... off
 Static damping         CNVDamp         .... on
   Fraction old density DampFac         ....    0.7000
   Max. Damping (<1)    DampMax         ....    0.9800
   Min. Damping (>=0)   DampMin         ....    0.0000
   Turn off err/grad.   DampErr         ....    0.1000
 Fernandez-Rico         CNVRico         .... off

SCF Procedure:
 Maximum # iterations   MaxIter         ....   125
 SCF integral mode      SCFMode         .... Direct
   Integral package                     .... LIBINT
 Reset frequency        DirectResetFreq ....    20
 Integral Threshold     Thresh          ....  1.000e-10 Eh
 Primitive CutOff       TCut            ....  1.000e-11 Eh

Convergence Tolerance:
 Convergence Check Mode ConvCheckMode   .... Total+1el-Energy
 Convergence forced     ConvForced      .... 0
 Energy Change          TolE            ....  1.000e-06 Eh
 1-El. energy change                    ....  1.000e-03 Eh
 DIIS Error             TolErr          ....  1.000e-06


Diagonalization of the overlap matrix:
Smallest eigenvalue                        ... 2.006e-02
Time for diagonalization                   ...    0.001 sec
Threshold for overlap eigenvalues          ... 1.000e-08
Number of eigenvalues below threshold      ... 0
Time for construction of square roots      ...    0.044 sec
Total time needed                          ...    0.045 sec

-------------------
DFT GRID GENERATION
-------------------

General Integration Accuracy     IntAcc      ...  4.670
Radial Grid Type                 RadialGrid  ... Gauss-Chebyshev
Angular Grid (max. acc.)         AngularGrid ... Lebedev-302
Angular grid pruning method      GridPruning ... 3 (G Style)
Weight generation scheme         WeightScheme... Becke
Basis function cutoff            BFCut       ...    1.0000e-10
Integration weight cutoff        WCut        ...    1.0000e-14
Grids for H and He will be reduced by one unit

# of grid points (after initial pruning)     ...  10682 (   0.0 sec)
# of grid points (after weights+screening)   ...  10682 (   0.0 sec)
Grid point division into batches done        ...    0.1 sec
Reduced shell lists constructed in    0.1 sec

Total number of grid points                  ...    10682
Total number of batches                      ...      167
Average number of points per batch           ...       63
Average number of grid points per atom       ...    10682
Average number of shells per batch           ...     1.71 (10.71%)
Average number of basis functions per batch  ...     3.43 ( 6.12%)
Average number of large shells per batch     ...     1.71 (100.00%)
Average number of large basis fcns per batch ...     3.43 (100.00%)
Maximum spatial batch extension              ...  28.90, 28.90, 28.90 au
Average spatial batch extension              ...   0.91,  0.91,  0.88 au

Time for grid setup =    0.122 sec

------------------------------
INITIAL GUESS: MODEL POTENTIAL
------------------------------
Loading Hartree-Fock densities                     ... done
  calling /mnt/storage/software/apps/orca-4.2.0/orca_4_2_0_linux_x86-64_openmpi314/orca Zr_atom40.inp > Zr_atom40.out in order to generate an atomic fitting density for atom 0 (Zr with ECP) on-the-fly... 
    atom 0 (Zr), assumed electronic state with S=3: 1s2 2s2 2p6 3s2 3p6 4s2 3d10 4p6 4d2 5s2           ... done
Calculating cut-offs                               ... done
Setting up the integral package                    ... done
Initializing the effective Hamiltonian             ... done
Starting the Coulomb interaction                   ... done (   0.0 sec)
Reading the grid                                   ... done
Mapping shells                                     ... done
Starting the XC term evaluation                    ... done (   0.0 sec)
  promolecular density results
     # of electrons  =     40.000376052
     EX              =   -110.030627997
     EC              =     -1.969897395
     EX+EC           =   -112.000525392
Transforming the Hamiltonian                       ... done (   0.0 sec)
Diagonalizing the Hamiltonian                      ... done (   0.0 sec)
Back transforming the eigenvectors                 ... done (   0.0 sec)
Now organizing SCF variables                       ... done
                      ------------------
                      INITIAL GUESS DONE (   6.9 sec)
                      ------------------
--------------
SCF ITERATIONS
--------------
ITER       Energy         Delta-E        Max-DP      RMS-DP      [F,P]     Damp
               ***  Starting incremental Fock matrix formation  ***
  0    -46.2988441859   0.000000000000 0.12736047  0.00538298  0.5005819 0.7000
  1    -46.5237218904  -0.224877704509 0.13428954  0.00437614  0.3156596 0.7000
                               ***Turning on DIIS***
  2    -46.6305986215  -0.106876731110 0.08705172  0.00280651  0.1934591 0.7000
  3    -46.6853958911  -0.054797269582 0.05959199  0.00216470  0.1217049 0.7000
  4    -46.7277703898  -0.042374498753 0.26872794  0.00776398  0.0833131 0.0000
  5    -46.8481808579  -0.120410468064 0.14543695  0.00302778  0.0356011 0.0000
  6    -46.8591667202  -0.010985862323 0.10693985  0.00221192  0.0289763 0.0000
  7    -46.8660319597  -0.006865239454 0.08794784  0.00191824  0.0259609 0.0000
  8    -46.8709894939  -0.004957534241 0.05222770  0.00125552  0.0230367 0.0000
  9    -46.8741416388  -0.003152144857 0.04788396  0.00125466  0.0188601 0.0000
 10    -46.8765327079  -0.002391069124 0.02302338  0.00068573  0.0162878 0.0000
 11    -46.8779778057  -0.001445097764 0.02013184  0.00063793  0.0127605 0.0000
 12    -46.8790378106  -0.001060004974 0.01635941  0.00044432  0.0103963 0.0000
 13    -46.8797000602  -0.000662249586 0.01365669  0.00035076  0.0080549 0.0000
 14    -46.8801253897  -0.000425329524 0.01061756  0.00027006  0.0063872 0.0000
 15    -46.8803817858  -0.000256396080 0.00835000  0.00022458  0.0048553 0.0000
 16    -46.8805482412  -0.000166455345 0.00635751  0.00017626  0.0037086 0.0000
 17    -46.8806528321  -0.000104590981 0.00482681  0.00014953  0.0027860 0.0000
 18    -46.8807262616  -0.000073429434 0.00354923  0.00012082  0.0020758 0.0000
 19    -46.8807777769  -0.000051515362 0.00255705  0.00010444  0.0015257 0.0000
               *** Restarting incremental Fock matrix formation ***
                                   *** Resetting DIIS ***
 20    -46.8808178344  -0.000040057446 0.00134846  0.00005242  0.0011169 0.0000
 21    -46.8808366537  -0.000018819324 0.00535030  0.00019833  0.0008561 0.0000
 22    -46.8809015514  -0.000064897716 0.00353969  0.00013247  0.0004455 0.0000
 23    -46.8809443407  -0.000042789311 0.00494236  0.00018205  0.0004224 0.0000
 24    -46.8810032830  -0.000058942310 0.00373893  0.00014500  0.0004035 0.0000
 25    -46.8810502433  -0.000046960300 0.00470419  0.00018184  0.0004066 0.0000
 26    -46.8811101543  -0.000059910955 0.00033234  0.00001111  0.0003982 0.0000
 27    -46.8811090844   0.000001069932 0.00047222  0.00001800  0.0003939 0.0000
 28    -46.8811030984   0.000005985983 0.00238962  0.00009302  0.0003975 0.0000
 29    -46.8811342029  -0.000031104533 0.00219012  0.00008703  0.0003872 0.0000
 30    -46.8811633628  -0.000029159898 0.00223998  0.00009108  0.0003818 0.0000
 31    -46.8811938880  -0.000030525155 0.00070904  0.00002926  0.0003768 0.0000
 32    -46.8812037000  -0.000009812013 0.00089157  0.00003690  0.0003758 0.0000
 33    -46.8812160928  -0.000012392818 0.00233152  0.00009644  0.0003740 0.0000
 34    -46.8812484962  -0.000032403362 0.00259162  0.00010933  0.0003796 0.0000
 35    -46.8812850693  -0.000036573122 0.00276824  0.00011915  0.0003900 0.0000
 36    -46.8813245843  -0.000039515050 0.00341225  0.00015033  0.0003984 0.0000
 37    -46.8813736212  -0.000049036828 0.00619809  0.00028080  0.0004035 0.0000
 38    -46.8814611835  -0.000087562321 0.01103905  0.00052865  0.0004043 0.0000
 39    -46.8816006903  -0.000139506793 0.00844347  0.00044584  0.0003596 0.0000
               *** Restarting incremental Fock matrix formation ***
                                   *** Resetting DIIS ***
 40    -46.8816778866  -0.000077196322 0.00098010  0.00005953  0.0002401 0.0000
 41    -46.8816850049  -0.000007118343 0.00152468  0.00009731  0.0001879 0.0000
 42    -46.8816939883  -0.000008983385 0.00229092  0.00013354  0.0001161 0.0000
 43    -46.8817011849  -0.000007196543 0.00084350  0.00004356  0.0000999 0.0000
 44    -46.8817022564  -0.000001071511 0.00067505  0.00003836  0.0000246 0.0000
                 **** Energy Check signals convergence ****

               *****************************************************
               *                     SUCCESS                       *
               *           SCF CONVERGED AFTER  45 CYCLES          *
               *****************************************************


----------------
TOTAL SCF ENERGY
----------------

Total Energy       :          -46.88170264 Eh           -1275.71599 eV

Components:
Nuclear Repulsion  :            0.00000000 Eh               0.00000 eV
Electronic Energy  :          -46.88170264 Eh           -1275.71599 eV
One Electron Energy:          -77.98088956 Eh           -2121.96788 eV
Two Electron Energy:           31.09918692 Eh             846.25190 eV

Virial components:
Potential Energy   :          -62.19058373 Eh           -1692.29182 eV
Kinetic Energy     :           15.30888109 Eh             416.57583 eV
Virial Ratio       :            4.06238597


DFT components:
N(Alpha)           :        6.999999980016 electrons
N(Beta)            :        5.000000034933 electrons
N(Total)           :       12.000000014949 electrons
E(X)               :       -4.857534298854 Eh       
E(C)               :       -0.395014746708 Eh       
E(XC)              :       -5.252549045562 Eh       
DFET-embed. en.    :        0.000000000000 Eh       

---------------
SCF CONVERGENCE
---------------

  Last Energy change         ...   -3.8642e-07  Tolerance :   1.0000e-06
  Last MAX-Density change    ...    9.9645e-05  Tolerance :   1.0000e-05
  Last RMS-Density change    ...    5.1573e-06  Tolerance :   1.0000e-06
  Last DIIS Error            ...    2.6654e-05  Tolerance :   1.0000e-06

             **** THE GBW FILE WAS UPDATED (Zr.gbw) ****
             **** DENSITY FILE WAS UPDATED (Zr.scfp) ****
             **** ENERGY FILE WAS UPDATED (Zr.en.tmp) ****
----------------------
UHF SPIN CONTAMINATION
----------------------

Warning: in a DFT calculation there is little theoretical justification to 
         calculate <S**2> as in Hartree-Fock theory. We will do it anyways
         but you should keep in mind that the values have only limited relevance

Expectation value of <S**2>     :     2.365326
Ideal value S*(S+1) for S=1.0   :     2.000000
Deviation                       :     0.365326

             **** THE GBW FILE WAS UPDATED (Zr.gbw) ****
             **** DENSITY FILE WAS UPDATED (Zr.scfp) ****
----------------
ORBITAL ENERGIES
----------------
                 SPIN UP ORBITALS
  NO   OCC          E(Eh)            E(eV) 
   0   1.0000      -2.100804       -57.1658 
   1   1.0000      -1.248046       -33.9610 
   2   1.0000      -1.248037       -33.9608 
   3   1.0000      -1.245212       -33.8839 
   4   1.0000      -0.176060        -4.7908 
   5   1.0000      -0.166582        -4.5329 
   6   1.0000      -0.166573        -4.5327 
   7   0.0000      -0.089031        -2.4227 
   8   0.0000      -0.089024        -2.4225 
   9   0.0000      -0.084415        -2.2971 
  10   0.0000      -0.048801        -1.3279 
  11   0.0000      -0.048800        -1.3279 
  12   0.0000      -0.035444        -0.9645 
  13   0.0000       0.058345         1.5876 
  14   0.0000       0.099387         2.7044 
  15   0.0000       0.099388         2.7045 
  16   0.0000       0.110626         3.0103 
  17   0.0000       0.130871         3.5612 
  18   0.0000       0.130875         3.5613 
  19   0.0000       0.144964         3.9447 
  20   0.0000       0.144969         3.9448 
  21   0.0000       0.147007         4.0003 
  22   0.0000       0.426866        11.6156 
  23   0.0000       0.431078        11.7302 
  24   0.0000       0.434103        11.8125 
  25   0.0000       0.434110        11.8127 
  26   0.0000       0.451876        12.2962 
  27   0.0000       0.451897        12.2967 
  28   0.0000       0.465928        12.6786 
  29   0.0000       0.778021        21.1710 
  30   0.0000       0.778027        21.1712 
  31   0.0000       0.805113        21.9082 
  32   0.0000       0.805119        21.9084 
  33   0.0000       0.806874        21.9562 
  34   0.0000       0.925541        25.1853 
  35   0.0000       0.925543        25.1853 
  36   0.0000       0.937153        25.5012 
  37   0.0000       1.050391        28.5826 
  38   0.0000       1.125430        30.6245 
  39   0.0000       1.125435        30.6246 
  40   0.0000       1.126232        30.6463 
  41   0.0000       1.131462        30.7887 
  42   0.0000       1.135790        30.9064 
  43   0.0000       1.135803        30.9068 
  44   0.0000       1.149329        31.2748 
  45   0.0000       1.149341        31.2752 
  46   0.0000       1.157508        31.4974 
  47   0.0000       1.525565        41.5127 
  48   0.0000       1.529899        41.6307 
  49   0.0000       1.529908        41.6309 
  50   0.0000       1.534805        41.7642 
  51   0.0000       1.543512        42.0011 
  52   0.0000       1.543517        42.0012 
  53   0.0000       1.558356        42.4050 
  54   0.0000      19.784019       538.3505 
  55   0.0000      72.352026      1968.7987 

                 SPIN DOWN ORBITALS
  NO   OCC          E(Eh)            E(eV) 
   0   1.0000      -2.067142       -56.2498 
   1   1.0000      -1.213761       -33.0281 
   2   1.0000      -1.198905       -32.6239 
   3   1.0000      -1.198887       -32.6234 
   4   1.0000      -0.153927        -4.1886 
   5   0.0000      -0.078717        -2.1420 
   6   0.0000      -0.069244        -1.8842 
   7   0.0000      -0.069227        -1.8838 
   8   0.0000      -0.047968        -1.3053 
   9   0.0000      -0.047966        -1.3052 
  10   0.0000      -0.043606        -1.1866 
  11   0.0000      -0.021482        -0.5845 
  12   0.0000      -0.021466        -0.5841 
  13   0.0000       0.071394         1.9427 
  14   0.0000       0.105490         2.8705 
  15   0.0000       0.123654         3.3648 
  16   0.0000       0.123666         3.3651 
  17   0.0000       0.149122         4.0578 
  18   0.0000       0.153667         4.1815 
  19   0.0000       0.153679         4.1818 
  20   0.0000       0.167124         4.5477 
  21   0.0000       0.167127         4.5478 
  22   0.0000       0.459749        12.5104 
  23   0.0000       0.463449        12.6111 
  24   0.0000       0.463462        12.6115 
  25   0.0000       0.478905        13.0317 
  26   0.0000       0.478909        13.0318 
  27   0.0000       0.488574        13.2948 
  28   0.0000       0.490809        13.3556 
  29   0.0000       0.810663        22.0593 
  30   0.0000       0.821201        22.3460 
  31   0.0000       0.821211        22.3463 
  32   0.0000       0.837224        22.7820 
  33   0.0000       0.837227        22.7821 
  34   0.0000       0.949017        25.8241 
  35   0.0000       0.967404        26.3244 
  36   0.0000       0.967418        26.3248 
  37   0.0000       1.085945        29.5501 
  38   0.0000       1.157651        31.5013 
  39   0.0000       1.160587        31.5812 
  40   0.0000       1.160599        31.5815 
  41   0.0000       1.168309        31.7913 
  42   0.0000       1.168317        31.7915 
  43   0.0000       1.176924        32.0257 
  44   0.0000       1.179483        32.0954 
  45   0.0000       1.180275        32.1169 
  46   0.0000       1.180277        32.1170 
  47   0.0000       1.559885        42.4466 
  48   0.0000       1.570578        42.7376 
  49   0.0000       1.570592        42.7380 
  50   0.0000       1.585206        43.1356 
  51   0.0000       1.585403        43.1410 
  52   0.0000       1.585406        43.1411 
  53   0.0000       1.593785        43.3691 
  54   0.0000      19.806496       538.9621 
  55   0.0000      72.364361      1969.1344 

                    ********************************
                    * MULLIKEN POPULATION ANALYSIS *
                    ********************************

--------------------------------------------
MULLIKEN ATOMIC CHARGES AND SPIN POPULATIONS
--------------------------------------------
   0 Zr:   -0.000000    2.000000
Sum of atomic charges         :   -0.0000000
Sum of atomic spin populations:    2.0000000

-----------------------------------------------------
MULLIKEN REDUCED ORBITAL CHARGES AND SPIN POPULATIONS
-----------------------------------------------------
CHARGE
  0 Zrs       :     3.782892  s :     3.782892
      pz      :     1.999809  p :     5.999367
      px      :     1.999785
      py      :     1.999773
      dz2     :     0.709349  d :     2.216381
      dxz     :     0.556438
      dyz     :     0.052186
      dx2y2   :     0.569837
      dxy     :     0.328571
      f0      :     0.000137  f :     0.000633
      f+1     :     0.000085
      f-1     :     0.000065
      f+2     :     0.000108
      f-2     :     0.000030
      f+3     :     0.000153
      f-3     :     0.000054
      g0      :     0.000092  g :     0.000728
      g+1     :     0.000168
      g-1     :     0.000018
      g+2     :     0.000071
      g-2     :     0.000035
      g+3     :     0.000105
      g-3     :     0.000037
      g+4     :     0.000059
      g-4     :     0.000142

SPIN
  0 Zrs       :     0.117523  s :     0.117523
      pz      :    -0.000099  p :    -0.000260
      px      :    -0.000084
      py      :    -0.000077
      dz2     :     0.676150  d :     1.881972
      dxz     :     0.510021
      dyz     :    -0.009873
      dx2y2   :     0.565899
      dxy     :     0.139775
      f0      :     0.000052  f :     0.000260
      f+1     :     0.000054
      f-1     :     0.000041
      f+2     :     0.000059
      f-2     :    -0.000014
      f+3     :     0.000037
      f-3     :     0.000031
      g0      :     0.000088  g :     0.000505
      g+1     :     0.000108
      g-1     :    -0.000003
      g+2     :     0.000065
      g-2     :     0.000033
      g+3     :     0.000084
      g-3     :     0.000014
      g+4     :    -0.000005
      g-4     :     0.000121


                     *******************************
                     * LOEWDIN POPULATION ANALYSIS *
                     *******************************

-------------------------------------------
LOEWDIN ATOMIC CHARGES AND SPIN POPULATIONS
-------------------------------------------
   0 Zr:   -0.000000    2.000000

----------------------------------------------------
LOEWDIN REDUCED ORBITAL CHARGES AND SPIN POPULATIONS
----------------------------------------------------
CHARGE
  0 Zrs       :     3.782892  s :     3.782892
      pz      :     1.999809  p :     5.999367
      px      :     1.999785
      py      :     1.999773
      dz2     :     0.709349  d :     2.216381
      dxz     :     0.556438
      dyz     :     0.052186
      dx2y2   :     0.569837
      dxy     :     0.328571
      f0      :     0.000137  f :     0.000633
      f+1     :     0.000085
      f-1     :     0.000065
      f+2     :     0.000108
      f-2     :     0.000030
      f+3     :     0.000153
      f-3     :     0.000054
      g0      :     0.000092  g :     0.000728
      g+1     :     0.000168
      g-1     :     0.000018
      g+2     :     0.000071
      g-2     :     0.000035
      g+3     :     0.000105
      g-3     :     0.000037
      g+4     :     0.000059
      g-4     :     0.000142

SPIN
  0 Zrs       :     0.117523  s :     0.117523
      pz      :    -0.000099  p :    -0.000260
      px      :    -0.000084
      py      :    -0.000077
      dz2     :     0.676150  d :     1.881972
      dxz     :     0.510021
      dyz     :    -0.009873
      dx2y2   :     0.565899
      dxy     :     0.139775
      f0      :     0.000052  f :     0.000260
      f+1     :     0.000054
      f-1     :     0.000041
      f+2     :     0.000059
      f-2     :    -0.000014
      f+3     :     0.000037
      f-3     :     0.000031
      g0      :     0.000088  g :     0.000505
      g+1     :     0.000108
      g-1     :    -0.000003
      g+2     :     0.000065
      g-2     :     0.000033
      g+3     :     0.000084
      g-3     :     0.000014
      g+4     :    -0.000005
      g-4     :     0.000121


                      *****************************
                      * MAYER POPULATION ANALYSIS *
                      *****************************

  NA   - Mulliken gross atomic population
  ZA   - Total nuclear charge
  QA   - Mulliken gross atomic charge
  VA   - Mayer's total valence
  BVA  - Mayer's bonded valence
  FA   - Mayer's free valence

  ATOM       NA         ZA         QA         VA         BVA        FA
  0 Zr    12.0000    12.0000    -0.0000     2.7307     0.0000     2.7307

  Mayer bond orders larger than 0.100000


-------
TIMINGS
-------

Total SCF time: 0 days 0 hours 0 min 52 sec 

Total time                  ....      52.978 sec
Sum of individual times     ....      51.618 sec  ( 97.4%)

Fock matrix formation       ....      43.260 sec  ( 81.7%)
  XC integration            ....      33.579 sec  ( 77.6% of F)
    Basis function eval.    ....       0.021 sec  (  0.1% of XC)
    Density eval.           ....       0.069 sec  (  0.2% of XC)
    XC-Functional eval.     ....       0.066 sec  (  0.2% of XC)
    XC-Potential eval.      ....       0.090 sec  (  0.3% of XC)
Diagonalization             ....       0.810 sec  (  1.5%)
Density matrix formation    ....       0.109 sec  (  0.2%)
Population analysis         ....       0.062 sec  (  0.1%)
Initial guess               ....       6.771 sec  ( 12.8%)
Orbital Transformation      ....       0.000 sec  (  0.0%)
Orbital Orthonormalization  ....       0.000 sec  (  0.0%)
DIIS solution               ....       0.484 sec  (  0.9%)
Grid generation             ....       0.122 sec  (  0.2%)


-------------------------------------------------------------------------------
                          DFT DISPERSION CORRECTION                            
                                                                               
                              DFTD3 V3.1  Rev 1                                
                          USING Becke-Johnson damping                          
-------------------------------------------------------------------------------
The TPSSH functional is recognized
Active option DFTDOPT                   ...         4   

molecular C6(AA) [au] = 1822.717581 


            DFT-D V3
 parameters
 s6 scaling factor         :     1.0000 
 a1 scaling factor         :     0.4529 
 s8 scaling factor         :     2.2382 
 a2 scaling factor         :     4.6550 
 ad hoc parameters k1-k3   :    16.0000     1.3333    -4.0000 

 Edisp/kcal,au: -0.000000000000  -0.000000000000 
 E6   /kcal   :  -0.000000000 
 E8   /kcal   :  -0.000000000 
 % E8         :          -nan 

-------------------------   ----------------
Dispersion correction            0.000000000
-------------------------   ----------------


-------------------------   --------------------
FINAL SINGLE POINT ENERGY       -46.881702642806
-------------------------   --------------------


                            ***************************************
                            *     ORCA property calculations      *
                            ***************************************

                                    ---------------------
                                    Active property flags
                                    ---------------------
   (+) Dipole Moment


------------------------------------------------------------------------------
                       ORCA ELECTRIC PROPERTIES CALCULATION
------------------------------------------------------------------------------

Dipole Moment Calculation                       ... on
Quadrupole Moment Calculation                   ... off
Polarizability Calculation                      ... off
GBWName                                         ... Zr.gbw
Electron density file                           ... Zr.scfp
The origin for moment calculation is the CENTER OF MASS  = ( 0.000000,  0.000000  0.000000)

-------------
DIPOLE MOMENT
-------------
                                X             Y             Z
Electronic contribution:      0.00023      -0.00031      -0.00020
Nuclear contribution   :      0.00000       0.00000       0.00000
                        -----------------------------------------
Total Dipole Moment    :      0.00023      -0.00031      -0.00020
                        -----------------------------------------
Magnitude (a.u.)       :      0.00044
Magnitude (Debye)      :      0.00111



--------------------
Rotational spectrum 
--------------------
 
Rotational constants in cm-1:     0.000000     0.000000     0.000000 
Rotational constants in MHz :     0.000000     0.000000     0.000000 

 Dipole components along the rotational axes: 
x,y,z [a.u.] :     0.000233    -0.000311    -0.000196 
x,y,z [Debye]:     0.000593    -0.000790    -0.000499 

 

Timings for individual modules:

Sum of individual times         ...       54.580 sec (=   0.910 min)
GTO integral calculation        ...        1.043 sec (=   0.017 min)   1.9 %
SCF iterations                  ...       53.537 sec (=   0.892 min)  98.1 %
                             ****ORCA TERMINATED NORMALLY****
TOTAL RUN TIME: 0 days 0 hours 0 minutes 55 seconds 259 msec
