
                                 *****************
                                 * O   R   C   A *
                                 *****************

           --- An Ab Initio, DFT and Semiempirical electronic structure package ---

                  #######################################################
                  #                        -***-                        #
                  #          Department of theory and spectroscopy      #
                  #               Directorship: Frank Neese             #
                  #        Max Planck Institute fuer Kohlenforschung    #
                  #                Kaiser Wilhelm Platz 1               #
                  #                 D-45470 Muelheim/Ruhr               #
                  #                      Germany                        #
                  #                                                     #
                  #                  All rights reserved                #
                  #                        -***-                        #
                  #######################################################


                         Program Version 4.2.0 -  RELEASE  -


 With contributions from (in alphabetic order):
   Daniel Aravena         : Magnetic Suceptibility
   Michael Atanasov       : Ab Initio Ligand Field Theory (pilot matlab implementation)
   Alexander A. Auer      : GIAO ZORA, VPT2
   Ute Becker             : Parallelization
   Giovanni Bistoni       : ED, misc. LED, open-shell LED, HFLED
   Martin Brehm           : Molecular dynamics
   Dmytro Bykov           : SCF Hessian
   Vijay G. Chilkuri      : MRCI spin determinant printing, contributions to CSF-ICE
   Dipayan Datta          : RHF DLPNO-CCSD density
   Achintya Kumar Dutta   : EOM-CC, STEOM-CC
   Dmitry Ganyushin       : Spin-Orbit,Spin-Spin,Magnetic field MRCI
   Miquel Garcia          : C-PCM Hessian, Gaussian charge scheme
   Yang Guo               : DLPNO-NEVPT2, CIM, IAO-localization
   Andreas Hansen         : Spin unrestricted coupled pair/coupled cluster methods
   Benjamin Helmich-Paris : CASSCF linear response (MC-RPA)
   Lee Huntington         : MR-EOM, pCC
   Robert Izsak           : Overlap fitted RIJCOSX, COSX-SCS-MP3, EOM
   Christian Kollmar      : KDIIS, OOCD, Brueckner-CCSD(T), CCSD density
   Simone Kossmann        : Meta GGA functionals, TD-DFT gradient, OOMP2, MP2 Hessian
   Martin Krupicka        : AUTO-CI
   Lucas Lang             : DCDCAS
   Dagmar Lenk            : GEPOL surface, SMD
   Dimitrios Liakos       : Extrapolation schemes; Compound Job, initial MDCI parallelization
   Dimitrios Manganas     : Further ROCIS development; embedding schemes
   Dimitrios Pantazis     : SARC Basis sets
   Taras Petrenko         : DFT Hessian,TD-DFT gradient, ASA, ECA, R-Raman, ABS, FL, XAS/XES, NRVS
   Peter Pinski           : DLPNO-MP2, DLPNO-MP2 Gradient
   Christoph Reimann      : Effective Core Potentials
   Marius Retegan         : Local ZFS, SOC
   Christoph Riplinger    : Optimizer, TS searches, QM/MM, DLPNO-CCSD(T), (RO)-DLPNO pert. Triples
   Tobias Risthaus        : Range-separated hybrids, TD-DFT gradient, RPA, STAB
   Michael Roemelt        : Original ROCIS implementation
   Masaaki Saitow         : Open-shell DLPNO-CCSD energy and density
   Barbara Sandhoefer     : DKH picture change effects
   Avijit Sen             : IP-ROCIS
   Kantharuban Sivalingam : CASSCF convergence, NEVPT2, FIC-MRCI
   Bernardo de Souza      : ESD, SOC TD-DFT
   Georgi Stoychev        : AutoAux, RI-MP2 NMR
   Willem Van den Heuvel  : Paramagnetic NMR
   Boris Wezisla          : Elementary symmetry handling
   Frank Wennmohs         : Technical directorship


 We gratefully acknowledge several colleagues who have allowed us to
 interface, adapt or use parts of their codes:
   Stefan Grimme, W. Hujo, H. Kruse,             : VdW corrections, initial TS optimization,
                  C. Bannwarth                     DFT functionals, gCP, sTDA/sTD-DF
   Ed Valeev, F. Pavosevic, A. Kumar             : LibInt (2-el integral package), F12 methods
   Garnet Chan, S. Sharma, J. Yang, R. Olivares  : DMRG
   Ulf Ekstrom                                   : XCFun DFT Library
   Mihaly Kallay                                 : mrcc  (arbitrary order and MRCC methods)
   Andreas Klamt, Michael Diedenhofen            : otool_cosmo (COSMO solvation model)
   Jiri Pittner, Ondrej Demel                    : Mk-CCSD
   Frank Weinhold                                : gennbo (NPA and NBO analysis)
   Christopher J. Cramer and Donald G. Truhlar   : smd solvation model
   Lars Goerigk                                  : TD-DFT with DH, B97 family of functionals
   V. Asgeirsson, H. Jonsson                     : NEB implementation
   FAccTs GmbH                                   : IRC, NEB, NEB-TS, Multilevel, MM, QM/MM, CI optimization
   S Lehtola, MJT Oliveira, MAL Marques          : LibXC Library


 Your calculation uses the libint2 library for the computation of 2-el integrals
 For citations please refer to: http://libint.valeyev.net

 Your ORCA version has been built with support for libXC version: 4.2.3
 For citations please refer to: https://tddft.org/programs/libxc/

 This ORCA versions uses:
   CBLAS   interface :  Fast vector & matrix operations
   LAPACKE interface :  Fast linear algebra routines
   SCALAPACK package :  Parallel linear algebra routines


Your calculation utilizes the atom-pairwise dispersion correction
with the Becke-Johnson damping scheme (D3BJ)
Cite in your paper:
S.Grimme, S.Ehrlich, L.Goerigk, J Comput Chem, (2011), 32, 1456–1465 
S.Grimme, J.Antony, S.Ehrlich and H.Krieg, J.Chem.Phys., 132, (2010), 154104 
   

----- Orbital basis set information -----
Your calculation utilizes the basis: def2-TZVPPD
   F. Weigend and R. Ahlrichs, Phys. Chem. Chem. Phys. 7, 3297 (2005).
   D. Rappoport and F. Furche, J. Chem. Phys. 133 134105 (2010).

----- AuxJK basis set information -----
Your calculation utilizes the auxiliary basis: def2/JK
   H-Ba, Hf-Rn: F. Weigend, J. Comput. Chem. 29, 167 (2008).

cite the ECPs for Zr [Def2-ECP] as follows:
Ce-Yb(ecp-28): M. Dolg, H. Stoll, H.Preuss, J. Chem. Phys., 1989, 90, 1730-1734.
Y-Cd(ecp-28), Hf-Hg(ecp-46): D. Andrae,U. Haeussermann, M. Dolg, H. Stoll, H. Preuss, Theor. Chim. Acta, 1990, 77, 123-141.
In-Sb(ecp-28), Tl-Bi(ecp-46): B. Metz, H. Stoll, M. Dolg, J. Chem. Phys., 2000, 113, 2563-2569.
Te-Xe(ecp-28), Po-Rn(ecp-46): K. A. Peterson, D. Figgen, E. Goll, H. Stoll, M. Dolg, J. Chem. Phys., 2003, 119, 11113-11123.
Rb(ecp-28), Cs(ecp-46): T. Leininger, A. Nicklass, W. Kuechle, H. Stoll, M. Dolg, A. Bergner, Chem. Phys. Lett., 1996, 255, 274-280.
Sr(ecp-28), Ba(ecp-46): M. Kaupp, P. V. Schleyer, H. Stoll and H. Preuss, J. Chem. Phys., 1991, 94, 1360-1366.
La(ecp-46): M. Dolg, H. Stoll, A. Savin, H. Preuss, Theor. Chim. Acta, 1989, 75, 173-194.
Lu(ecp-28): X. Cao, M. Dolg, J. Chem. Phys., 2001, 115, 7348-7355.

ECP parameters for Zr [Def2-ECP] have been obtained from:
TURBOMOLE (7.0.2)

================================================================================
                                        WARNINGS
                       Please study these warnings very carefully!
================================================================================


WARNING: your system is open-shell and RHF/RKS was chosen
  ===> : WILL SWITCH to UHF/UKS


INFO   : the flag for use of LIBINT has been found!

================================================================================
                                       INPUT FILE
================================================================================
NAME = Zr2.in
|  1> #
|  2> # Zr2 TPSSh-D3BJ/Def2-TZVPPD
|  3> #
|  4> ! tpssh d3bj def2-tzvppd def2/jk grid4 nofinalgrid
|  5> 
|  6> *xyz 0 3
|  7> Zr         0.00000        0.00000        0.00000
|  8> Zr         0.00000        0.00000        2.24000
|  9> *
| 10> 
| 11> %maxcore 5000
| 12> 
| 13> %pal
| 14> nprocs = 28
| 15> end
| 16> 
| 17> 
| 18>                          ****END OF INPUT****
================================================================================

                       ****************************
                       * Single Point Calculation *
                       ****************************

---------------------------------
CARTESIAN COORDINATES (ANGSTROEM)
---------------------------------
  Zr     0.000000    0.000000    0.000000
  Zr     0.000000    0.000000    2.240000

----------------------------
CARTESIAN COORDINATES (A.U.)
----------------------------
  NO LB      ZA    FRAG     MASS         X           Y           Z
   0 Zr   12.0000*   0    91.220    0.000000    0.000000    0.000000
   1 Zr   12.0000*   0    91.220    0.000000    0.000000    4.232987
* core charge reduced due to ECP

--------------------------------
INTERNAL COORDINATES (ANGSTROEM)
--------------------------------
 Zr     0   0   0     0.000000000000     0.00000000     0.00000000
 Zr     1   0   0     2.240000000000     0.00000000     0.00000000

---------------------------
INTERNAL COORDINATES (A.U.)
---------------------------
 Zr     0   0   0     0.000000000000     0.00000000     0.00000000
 Zr     1   0   0     4.232986539984     0.00000000     0.00000000

---------------------
BASIS SET INFORMATION
---------------------
There are 1 groups of distinct atoms

 Group   1 Type Zr  : 7s7p5d2f1g contracted to 6s4p3d2f1g pattern {211111/4111/311/11/1}

Atom   0Zr   basis set group =>   1
Atom   1Zr   basis set group =>   1
----------------------------------
AUXILIARY/JK BASIS SET INFORMATION
----------------------------------
There are 1 groups of distinct atoms

 Group   1 Type Zr  : 13s12p10d9f6g3h2i contracted to 11s10p9d8f6g3h2i pattern {31111111111/3111111111/211111111/21111111/111111/111/11}

Atom   0Zr   basis set group =>   1
Atom   1Zr   basis set group =>   1
-------------------------
ECP PARAMETER INFORMATION
-------------------------

 Group 1, Type Zr ECP Def2-ECP (replacing 28 core electrons, lmax=3)

Atom   0Zr   ECP group =>   1
Atom   1Zr   ECP group =>   1



           ************************************************************
           *        Program running with 28 parallel MPI-processes    *
           *              working on a common directory               *
           ************************************************************
------------------------------------------------------------------------------
                           ORCA GTO INTEGRAL CALCULATION
------------------------------------------------------------------------------

                         BASIS SET STATISTICS AND STARTUP INFO

 # of primitive gaussian shells          ...   44
 # of primitive gaussian functions       ...  152
 # of contracted shells                  ...   32
 # of contracted basis functions         ...  112
 Highest angular momentum                ...    4
 Maximum contraction depth               ...    4
 Integral package used                   ... LIBINT
 Integral threshhold            Thresh   ...  1.000e-10
 Primitive cut-off              TCut     ...  1.000e-11


------------------------------ INTEGRAL EVALUATION ----------------------------


 * One electron integrals 

   ECP integrals                         ... done
 Pre-screening matrix                    ... done
 Shell pair data                         ... done (   0.000 sec)



           ************************************************************
           *        Program running with 28 parallel MPI-processes    *
           *              working on a common directory               *
           ************************************************************
-------------------------------------------------------------------------------
                                 ORCA SCF
-------------------------------------------------------------------------------

------------
SCF SETTINGS
------------
Hamiltonian:
 Density Functional     Method          .... DFT(GTOs)
 Exchange Functional    Exchange        .... TPSS
 Correlation Functional Correlation     .... TPSS
 LDA part of GGA corr.  LDAOpt          .... PW91-LDA
 Gradients option       PostSCFGGA      .... off
 Hybrid DFT is turned on
   Fraction HF Exchange ScalHFX         ....  0.100000
   Scaling of DF-GGA-X  ScalDFX         ....  0.900000
   Scaling of DF-GGA-C  ScalDFC         ....  1.000000
   Scaling of DF-LDA-C  ScalLDAC        ....  1.000000
   Perturbative correction              ....  0.000000
   Density functional embedding theory  .... OFF
   NL short-range parameter             ....  5.200000


General Settings:
 Integral files         IntName         .... Zr2
 Hartree-Fock type      HFTyp           .... UHF
 Total Charge           Charge          ....    0
 Multiplicity           Mult            ....    3
 Number of Electrons    NEL             ....   24
 Basis Dimension        Dim             ....  112
 Nuclear Repulsion      ENuc            ....     34.0185348193 Eh

Convergence Acceleration:
 DIIS                   CNVDIIS         .... on
   Start iteration      DIISMaxIt       ....    12
   Startup error        DIISStart       ....  0.200000
   # of expansion vecs  DIISMaxEq       ....     5
   Bias factor          DIISBfac        ....   1.050
   Max. coefficient     DIISMaxC        ....  10.000
 Newton-Raphson         CNVNR           .... off
 SOSCF                  CNVSOSCF        .... off
 Level Shifting         CNVShift        .... on
   Level shift para.    LevelShift      ....    0.2500
   Turn off err/grad.   ShiftErr        ....    0.0010
 Zerner damping         CNVZerner       .... off
 Static damping         CNVDamp         .... on
   Fraction old density DampFac         ....    0.7000
   Max. Damping (<1)    DampMax         ....    0.9800
   Min. Damping (>=0)   DampMin         ....    0.0000
   Turn off err/grad.   DampErr         ....    0.1000
 Fernandez-Rico         CNVRico         .... off

SCF Procedure:
 Maximum # iterations   MaxIter         ....   125
 SCF integral mode      SCFMode         .... Direct
   Integral package                     .... LIBINT
 Reset frequency        DirectResetFreq ....    20
 Integral Threshold     Thresh          ....  1.000e-10 Eh
 Primitive CutOff       TCut            ....  1.000e-11 Eh

Convergence Tolerance:
 Convergence Check Mode ConvCheckMode   .... Total+1el-Energy
 Convergence forced     ConvForced      .... 0
 Energy Change          TolE            ....  1.000e-06 Eh
 1-El. energy change                    ....  1.000e-03 Eh
 DIIS Error             TolErr          ....  1.000e-06


Diagonalization of the overlap matrix:
Smallest eigenvalue                        ... 1.502e-04
Time for diagonalization                   ...    0.002 sec
Threshold for overlap eigenvalues          ... 1.000e-08
Number of eigenvalues below threshold      ... 0
Time for construction of square roots      ...    0.022 sec
Total time needed                          ...    0.024 sec

-------------------
DFT GRID GENERATION
-------------------

General Integration Accuracy     IntAcc      ...  4.670
Radial Grid Type                 RadialGrid  ... Gauss-Chebyshev
Angular Grid (max. acc.)         AngularGrid ... Lebedev-302
Angular grid pruning method      GridPruning ... 3 (G Style)
Weight generation scheme         WeightScheme... Becke
Basis function cutoff            BFCut       ...    1.0000e-10
Integration weight cutoff        WCut        ...    1.0000e-14
Grids for H and He will be reduced by one unit

# of grid points (after initial pruning)     ...  21364 (   0.0 sec)
# of grid points (after weights+screening)   ...  21326 (   0.0 sec)
nearest neighbour list constructed           ...    0.0 sec
Grid point re-assignment to atoms done       ...    0.0 sec
Grid point division into batches done        ...    0.2 sec
Reduced shell lists constructed in    0.2 sec

Total number of grid points                  ...    21326
Total number of batches                      ...      334
Average number of points per batch           ...       63
Average number of grid points per atom       ...    10663
Average number of shells per batch           ...     3.15 ( 9.86%)
Average number of basis functions per batch  ...     7.15 ( 6.39%)
Average number of large shells per batch     ...     2.31 (73.17%)
Average number of large basis fcns per batch ...     5.08 (70.97%)
Maximum spatial batch extension              ...  31.14, 31.14, 19.99 au
Average spatial batch extension              ...   0.86,  0.86,  0.64 au

Time for grid setup =    0.268 sec

------------------------------
INITIAL GUESS: MODEL POTENTIAL
------------------------------
Loading Hartree-Fock densities                     ... done
  calling /mnt/storage/software/apps/orca-4.2.0/orca_4_2_0_linux_x86-64_openmpi314/orca Zr2_atom40.inp > Zr2_atom40.out in order to generate an atomic fitting density for atom 0 (Zr with ECP) on-the-fly... 
    atom 0 (Zr), assumed electronic state with S=3: 1s2 2s2 2p6 3s2 3p6 4s2 3d10 4p6 4d2 5s2           ... done
Calculating cut-offs                               ... done
Setting up the integral package                    ... done
Initializing the effective Hamiltonian             ... done
Starting the Coulomb interaction                   ... done (   0.0 sec)
Reading the grid                                   ... done
Mapping shells                                     ... done
Starting the XC term evaluation                    ... done (   0.0 sec)
  promolecular density results
     # of electrons  =     80.000622817
     EX              =   -220.233168017
     EC              =     -3.981729766
     EX+EC           =   -224.214897783
Transforming the Hamiltonian                       ... done (   0.0 sec)
Diagonalizing the Hamiltonian                      ... done (   0.0 sec)
Back transforming the eigenvectors                 ... done (   0.0 sec)
Now organizing SCF variables                       ... done
                      ------------------
                      INITIAL GUESS DONE (   3.7 sec)
                      ------------------
--------------
SCF ITERATIONS
--------------
ITER       Energy         Delta-E        Max-DP      RMS-DP      [F,P]     Damp
               ***  Starting incremental Fock matrix formation  ***
  0    -92.6360695414   0.000000000000 7.21079418  0.11912799  0.4857886 0.7000
  1    -93.2616181986  -0.625548657136 2.11899841  0.03502374  0.3006266 0.7000
                               ***Turning on DIIS***
  2    -93.3586461007  -0.097027902151 0.79335482  0.01463832  0.1855691 0.7000
  3    -93.4014589882  -0.042812887483 1.81146519  0.03073666  0.1199912 0.7000
  4    -93.4650568395  -0.063597851302 5.91779451  0.09893612  0.0826566 0.0000
  5    -93.6676643862  -0.202607546667 0.60013059  0.01110702  0.0162995 0.0000
  6    -93.6789997609  -0.011335374707 0.18031962  0.00505943  0.0079771 0.0000
  7    -93.6857552668  -0.006755505946 0.12422027  0.00287203  0.0053291 0.0000
  8    -93.6919489590  -0.006193692136 0.08942150  0.00200285  0.0041608 0.0000
  9    -93.6982047592  -0.006255800262 0.06732971  0.00151424  0.0043653 0.0000
 10    -93.7036940813  -0.005489322067 0.04777896  0.00108940  0.0044208 0.0000
 11    -93.7079180025  -0.004223921181 0.02723853  0.00067450  0.0043378 0.0000
 12    -93.7107123748  -0.002794372280 0.02135971  0.00048997  0.0045095 0.0000
 13    -93.7125243266  -0.001811951887 0.01371627  0.00035386  0.0067656 0.0000
 14    -93.7137445652  -0.001220238551 0.00983481  0.00027347  0.0084196 0.0000
 15    -93.7145846188  -0.000840053644 0.01227435  0.00027948  0.0097469 0.0000
 16    -93.7153379689  -0.000753350094 0.00677086  0.00017646  0.0102896 0.0000
 17    -93.7156603904  -0.000322421459 0.00550114  0.00014467  0.0118232 0.0000
 18    -93.7160344493  -0.000374058892 0.01110275  0.00024576  0.0128934 0.0000
 19    -93.7169010351  -0.000866585785 0.04351468  0.00094726  0.0121938 0.0000
               *** Restarting incremental Fock matrix formation ***
                                   *** Resetting DIIS ***
 20    -93.7184635089  -0.001562473884 0.02786754  0.00061135  0.0034025 0.0000
 21    -93.7190213768  -0.000557867823 0.01389426  0.00031324  0.0035519 0.0000
 22    -93.7194172476  -0.000395870841 0.01129789  0.00026770  0.0033650 0.0000
 23    -93.7197608447  -0.000343597039 0.01010498  0.00023269  0.0031824 0.0000
 24    -93.7200551119  -0.000294267232 0.01591619  0.00034387  0.0030081 0.0000
 25    -93.7203657649  -0.000310653054 0.00355030  0.00012850  0.0029363 0.0000
 26    -93.7205903379  -0.000224572974 0.00631571  0.00016855  0.0027015 0.0000
 27    -93.7208261168  -0.000235778841 0.00578514  0.00015328  0.0026030 0.0000
 28    -93.7210561790  -0.000230062278 0.00438549  0.00013610  0.0025569 0.0000
 29    -93.7212828791  -0.000226700087 0.00339358  0.00010055  0.0024501 0.0000
 30    -93.7214737747  -0.000190895600 0.00318842  0.00009882  0.0023656 0.0000
 31    -93.7216532751  -0.000179500419 0.00228190  0.00008446  0.0022742 0.0000
 32    -93.7218041737  -0.000150898561 0.00263882  0.00007781  0.0022252 0.0000
 33    -93.7219322519  -0.000128078216 0.00310064  0.00007987  0.0022097 0.0000
 34    -93.7220625631  -0.000130311216 0.00359515  0.00008673  0.0022044 0.0000
 35    -93.7222063894  -0.000143826299 0.00416339  0.00009865  0.0022018 0.0000
 36    -93.7223868465  -0.000180457101 0.00496779  0.00011683  0.0023447 0.0000
 37    -93.7226190790  -0.000232232446 0.00613446  0.00014516  0.0028850 0.0000
 38    -93.7229457727  -0.000326693759 0.00776986  0.00018603  0.0035570 0.0000
 39    -93.7234277427  -0.000481969942 0.00943950  0.00023403  0.0044076 0.0000
               *** Restarting incremental Fock matrix formation ***
                                   *** Resetting DIIS ***
 40    -93.7241297803  -0.000702037647 0.01971108  0.00046060  0.0054323 0.0000
 41    -93.7257057916  -0.001576011230 0.02336358  0.00056838  0.0073461 0.0000
 42    -93.7282708964  -0.002565104886 0.02666050  0.00063367  0.0093121 0.0000
 43    -93.7308887541  -0.002617857704 0.03549245  0.00075759  0.0108082 0.0000
 44    -93.7344900006  -0.003601246475 0.04553119  0.00088448  0.0121919 0.0000
 45    -93.7389609160  -0.004470915386 0.06649173  0.00109156  0.0135415 0.0000
 46    -93.7446414091  -0.005680493083 0.06932321  0.00119093  0.0184492 0.0000
 47    -93.7518282624  -0.007186853358 0.06861316  0.00116678  0.0177914 0.0000
 48    -93.7579459260  -0.006117663542 0.06826284  0.00107378  0.0212295 0.0000
 49    -93.7637302368  -0.005784310785 0.07085482  0.00109203  0.0314989 0.0000
 50    -93.7724225877  -0.008692350878 0.07313187  0.00105603  0.0301012 0.0000
 51    -93.7822045270  -0.009781939365 0.09150341  0.00150090  0.0112159 0.0000
 52    -93.7928736721  -0.010669145043 0.05172312  0.00101244  0.0125786 0.0000
 53    -93.7997910722  -0.006917400162 0.04937775  0.00097319  0.0101986 0.0000
 54    -93.8067818829  -0.006990810726 0.03270862  0.00079908  0.0101847 0.0000
 55    -93.8129926082  -0.006210725203 0.01895148  0.00064364  0.0111830 0.0000
 56    -93.8186012825  -0.005608674299 0.01328281  0.00053990  0.0117780 0.0000
 57    -93.8238077237  -0.005206441201 0.01232173  0.00046405  0.0119307 0.0000
 58    -93.8285714266  -0.004763702937 0.01074240  0.00041016  0.0117639 0.0000
 59    -93.8329048366  -0.004333410009 0.01049678  0.00038993  0.0115625 0.0000
               *** Restarting incremental Fock matrix formation ***
                                   *** Resetting DIIS ***
 60    -93.8370066295  -0.004101792871 0.00989712  0.00039531  0.0110189 0.0000
 61    -93.8408888797  -0.003882250250 0.00841961  0.00033132  0.0110849 0.0000
 62    -93.8443527163  -0.003463836539 0.00999937  0.00043530  0.0097640 0.0000
 63    -93.8483949179  -0.004042201629 0.00829350  0.00032239  0.0097690 0.0000
 64    -93.8515467176  -0.003151799726 0.01105892  0.00047539  0.0083213 0.0000
 65    -93.8555392835  -0.003992565910 0.00737549  0.00030552  0.0079675 0.0000
 66    -93.8583700944  -0.002830810855 0.00808261  0.00039448  0.0065857 0.0000
 67    -93.8614957106  -0.003125616253 0.00690293  0.00031219  0.0061005 0.0000
 68    -93.8640277712  -0.002532060541 0.00717362  0.00036448  0.0050158 0.0000
 69    -93.8666144182  -0.002586647034 0.00786157  0.00037646  0.0043306 0.0000
 70    -93.8689635683  -0.002349150081 0.00503345  0.00022105  0.0037622 0.0000
 71    -93.8703209050  -0.001357336750 0.00546235  0.00028128  0.0035656 0.0000
 72    -93.8716987430  -0.001377837956 0.00760887  0.00031170  0.0030260 0.0000
 73    -93.8728622038  -0.001163460814 0.00409199  0.00018892  0.0028128 0.0000
 74    -93.8735796657  -0.000717461850 0.00474345  0.00018641  0.0021506 0.0000
 75    -93.8740769651  -0.000497299475 0.00241035  0.00011917  0.0024743 0.0000
 76    -93.8743805414  -0.000303576247 0.00238856  0.00010630  0.0014358 0.0000
 77    -93.8745731498  -0.000192608458 0.00190921  0.00008367  0.0011845 0.0000
 78    -93.8747033336  -0.000130183715 0.00671739  0.00026008  0.0009573 0.0000
 79    -93.8749179692  -0.000214635656 0.00089816  0.00003114  0.0006674 0.0000
               *** Restarting incremental Fock matrix formation ***
                                   *** Resetting DIIS ***
 80    -93.8749288371  -0.000010867873 0.00303852  0.00006966  0.0008684 0.0000
 81    -93.8748651307   0.000063706402 0.00095350  0.00002038  0.0063138 0.0000
 82    -93.8749109330  -0.000045802292 0.00068958  0.00001336  0.0036806 0.0000
 83    -93.8749276178  -0.000016684781 0.00046501  0.00000926  0.0021676 0.0000
 84    -93.8749341872  -0.000006569474 0.00033152  0.00000682  0.0012748 0.0000
 85    -93.8749371400  -0.000002952807 0.00089796  0.00002230  0.0007792 0.0000
 86    -93.8749415028  -0.000004362787 0.00033110  0.00000954  0.0003778 0.0000
 87    -93.8749429473  -0.000001444509 0.00022152  0.00000782  0.0001125 0.0000
                 **** Energy Check signals convergence ****

               *****************************************************
               *                     SUCCESS                       *
               *           SCF CONVERGED AFTER  88 CYCLES          *
               *****************************************************


----------------
TOTAL SCF ENERGY
----------------

Total Energy       :          -93.87494384 Eh           -2554.46709 eV

Components:
Nuclear Repulsion  :           34.01853482 Eh             925.69139 eV
Electronic Energy  :         -127.89347866 Eh           -3480.15848 eV
One Electron Energy:         -225.28875789 Eh           -6130.41877 eV
Two Electron Energy:           97.39527923 Eh            2650.26028 eV

Virial components:
Potential Energy   :         -125.14520645 Eh           -3405.37419 eV
Kinetic Energy     :           31.27026261 Eh             850.90710 eV
Virial Ratio       :            4.00205166


DFT components:
N(Alpha)           :       12.999999770848 electrons
N(Beta)            :       11.000000120203 electrons
N(Total)           :       23.999999891051 electrons
E(X)               :       -9.886887947731 Eh       
E(C)               :       -0.872424496838 Eh       
E(XC)              :      -10.759312444569 Eh       
DFET-embed. en.    :        0.000000000000 Eh       

---------------
SCF CONVERGENCE
---------------

  Last Energy change         ...   -8.9111e-07  Tolerance :   1.0000e-06
  Last MAX-Density change    ...    1.5649e-04  Tolerance :   1.0000e-05
  Last RMS-Density change    ...    6.8365e-06  Tolerance :   1.0000e-06
  Last DIIS Error            ...    4.6246e-05  Tolerance :   1.0000e-06

             **** THE GBW FILE WAS UPDATED (Zr2.gbw) ****
             **** DENSITY FILE WAS UPDATED (Zr2.scfp) ****
             **** ENERGY FILE WAS UPDATED (Zr2.en.tmp) ****
----------------------
UHF SPIN CONTAMINATION
----------------------

Warning: in a DFT calculation there is little theoretical justification to 
         calculate <S**2> as in Hartree-Fock theory. We will do it anyways
         but you should keep in mind that the values have only limited relevance

Expectation value of <S**2>     :     2.002637
Ideal value S*(S+1) for S=1.0   :     2.000000
Deviation                       :     0.002637

             **** THE GBW FILE WAS UPDATED (Zr2.gbw) ****
             **** DENSITY FILE WAS UPDATED (Zr2.scfp) ****
----------------
ORBITAL ENERGIES
----------------
                 SPIN UP ORBITALS
  NO   OCC          E(Eh)            E(eV) 
   0   1.0000      -2.035244       -55.3818 
   1   1.0000      -2.006012       -54.5864 
   2   1.0000      -1.232043       -33.5256 
   3   1.0000      -1.183761       -32.2118 
   4   1.0000      -1.183746       -32.2114 
   5   1.0000      -1.162154       -31.6238 
   6   1.0000      -1.162141       -31.6235 
   7   1.0000      -1.099799       -29.9270 
   8   1.0000      -0.161082        -4.3833 
   9   1.0000      -0.154399        -4.2014 
  10   1.0000      -0.154369        -4.2006 
  11   1.0000      -0.143775        -3.9123 
  12   1.0000      -0.120008        -3.2656 
  13   0.0000      -0.081459        -2.2166 
  14   0.0000      -0.071292        -1.9400 
  15   0.0000      -0.039965        -1.0875 
  16   0.0000      -0.039857        -1.0846 
  17   0.0000      -0.036374        -0.9898 
  18   0.0000      -0.016549        -0.4503 
  19   0.0000      -0.016546        -0.4502 
  20   0.0000      -0.006770        -0.1842 
  21   0.0000       0.001063         0.0289 
  22   0.0000       0.008896         0.2421 
  23   0.0000       0.051574         1.4034 
  24   0.0000       0.068684         1.8690 
  25   0.0000       0.068689         1.8691 
  26   0.0000       0.072595         1.9754 
  27   0.0000       0.111880         3.0444 
  28   0.0000       0.111975         3.0470 
  29   0.0000       0.131132         3.5683 
  30   0.0000       0.139672         3.8007 
  31   0.0000       0.145472         3.9585 
  32   0.0000       0.156577         4.2607 
  33   0.0000       0.173331         4.7166 
  34   0.0000       0.173350         4.7171 
  35   0.0000       0.193645         5.2693 
  36   0.0000       0.195242         5.3128 
  37   0.0000       0.195323         5.3150 
  38   0.0000       0.202841         5.5196 
  39   0.0000       0.231108         6.2888 
  40   0.0000       0.241824         6.5804 
  41   0.0000       0.247740         6.7413 
  42   0.0000       0.247795         6.7428 
  43   0.0000       0.432662        11.7733 
  44   0.0000       0.432922        11.7804 
  45   0.0000       0.432942        11.7809 
  46   0.0000       0.446834        12.1590 
  47   0.0000       0.495315        13.4782 
  48   0.0000       0.545077        14.8323 
  49   0.0000       0.545115        14.8333 
  50   0.0000       0.573340        15.6014 
  51   0.0000       0.591747        16.1023 
  52   0.0000       0.591797        16.1036 
  53   0.0000       0.655714        17.8429 
  54   0.0000       0.663934        18.0666 
  55   0.0000       0.663994        18.0682 
  56   0.0000       0.667928        18.1752 
  57   0.0000       0.679415        18.4878 
  58   0.0000       0.814648        22.1677 
  59   0.0000       0.827995        22.5309 
  60   0.0000       0.828034        22.5320 
  61   0.0000       0.831046        22.6139 
  62   0.0000       0.864730        23.5305 
  63   0.0000       0.876282        23.8449 
  64   0.0000       0.876311        23.8456 
  65   0.0000       0.902658        24.5626 
  66   0.0000       0.920400        25.0454 
  67   0.0000       0.974801        26.5257 
  68   0.0000       0.974898        26.5283 
  69   0.0000       0.977033        26.5864 
  70   0.0000       1.011156        27.5150 
  71   0.0000       1.088141        29.6098 
  72   0.0000       1.088146        29.6099 
  73   0.0000       1.127772        30.6882 
  74   0.0000       1.129327        30.7306 
  75   0.0000       1.132329        30.8122 
  76   0.0000       1.188171        32.3318 
  77   0.0000       1.198574        32.6149 
  78   0.0000       1.221324        33.2339 
  79   0.0000       1.221407        33.2362 
  80   0.0000       1.233931        33.5770 
  81   0.0000       1.237220        33.6665 
  82   0.0000       1.308450        35.6047 
  83   0.0000       1.308491        35.6058 
  84   0.0000       1.330934        36.2165 
  85   0.0000       1.414200        38.4823 
  86   0.0000       1.414217        38.4828 
  87   0.0000       1.493695        40.6455 
  88   0.0000       1.583829        43.0982 
  89   0.0000       1.583844        43.0986 
  90   0.0000       1.628410        44.3113 
  91   0.0000       1.628415        44.3114 
  92   0.0000       1.656538        45.0767 
  93   0.0000       1.656599        45.0783 
  94   0.0000       1.664356        45.2894 
  95   0.0000       1.668579        45.4043 
  96   0.0000       1.672183        45.5024 
  97   0.0000       1.672411        45.5086 
  98   0.0000       1.680195        45.7204 
  99   0.0000       1.746464        47.5237 
 100   0.0000       1.752026        47.6751 
 101   0.0000       1.773931        48.2711 
 102   0.0000       1.935284        52.6617 
 103   0.0000       1.935326        52.6629 
 104   0.0000       2.049852        55.7793 
 105   0.0000       2.196058        59.7578 
 106   0.0000       2.196066        59.7580 
 107   0.0000       2.699385        73.4540 
 108   0.0000      20.213558       550.0389 
 109   0.0000      20.482619       557.3604 
 110   0.0000      72.563569      1974.5551 
 111   0.0000      72.657257      1977.1045 

                 SPIN DOWN ORBITALS
  NO   OCC          E(Eh)            E(eV) 
   0   1.0000      -2.018260       -54.9196 
   1   1.0000      -1.989901       -54.1480 
   2   1.0000      -1.207703       -32.8633 
   3   1.0000      -1.161768       -31.6133 
   4   1.0000      -1.161681       -31.6109 
   5   1.0000      -1.140329       -31.0299 
   6   1.0000      -1.140243       -31.0276 
   7   1.0000      -1.081243       -29.4221 
   8   1.0000      -0.144461        -3.9310 
   9   1.0000      -0.142163        -3.8685 
  10   1.0000      -0.142081        -3.8662 
  11   0.0000      -0.066424        -1.8075 
  12   0.0000      -0.064739        -1.7616 
  13   0.0000      -0.063613        -1.7310 
  14   0.0000      -0.056881        -1.5478 
  15   0.0000      -0.031002        -0.8436 
  16   0.0000      -0.030828        -0.8389 
  17   0.0000      -0.006808        -0.1853 
  18   0.0000      -0.006726        -0.1830 
  19   0.0000       0.001656         0.0450 
  20   0.0000       0.009440         0.2569 
  21   0.0000       0.024555         0.6682 
  22   0.0000       0.028773         0.7830 
  23   0.0000       0.074926         2.0388 
  24   0.0000       0.074961         2.0398 
  25   0.0000       0.075644         2.0584 
  26   0.0000       0.080719         2.1965 
  27   0.0000       0.120194         3.2706 
  28   0.0000       0.120332         3.2744 
  29   0.0000       0.147561         4.0153 
  30   0.0000       0.149750         4.0749 
  31   0.0000       0.160582         4.3697 
  32   0.0000       0.164023         4.4633 
  33   0.0000       0.181558         4.9405 
  34   0.0000       0.181621         4.9421 
  35   0.0000       0.206038         5.6066 
  36   0.0000       0.206174         5.6103 
  37   0.0000       0.206837         5.6283 
  38   0.0000       0.209646         5.7048 
  39   0.0000       0.251486         6.8433 
  40   0.0000       0.254657         6.9296 
  41   0.0000       0.257895         7.0177 
  42   0.0000       0.258010         7.0208 
  43   0.0000       0.446732        12.1562 
  44   0.0000       0.451091        12.2748 
  45   0.0000       0.451102        12.2751 
  46   0.0000       0.452150        12.3036 
  47   0.0000       0.517665        14.0864 
  48   0.0000       0.563306        15.3283 
  49   0.0000       0.563330        15.3290 
  50   0.0000       0.606382        16.5005 
  51   0.0000       0.616060        16.7638 
  52   0.0000       0.616150        16.7663 
  53   0.0000       0.681751        18.5514 
  54   0.0000       0.682011        18.5585 
  55   0.0000       0.682494        18.5716 
  56   0.0000       0.682576        18.5738 
  57   0.0000       0.684871        18.6363 
  58   0.0000       0.836953        22.7746 
  59   0.0000       0.837104        22.7787 
  60   0.0000       0.837470        22.7887 
  61   0.0000       0.844346        22.9758 
  62   0.0000       0.889155        24.1951 
  63   0.0000       0.891964        24.2716 
  64   0.0000       0.892044        24.2738 
  65   0.0000       0.929422        25.2909 
  66   0.0000       0.936226        25.4760 
  67   0.0000       0.992148        26.9977 
  68   0.0000       0.992253        27.0006 
  69   0.0000       0.998776        27.1781 
  70   0.0000       1.035772        28.1848 
  71   0.0000       1.097492        29.8643 
  72   0.0000       1.097494        29.8643 
  73   0.0000       1.146730        31.2041 
  74   0.0000       1.150257        31.3001 
  75   0.0000       1.150793        31.3147 
  76   0.0000       1.209359        32.9083 
  77   0.0000       1.214297        33.0427 
  78   0.0000       1.237313        33.6690 
  79   0.0000       1.237395        33.6712 
  80   0.0000       1.255556        34.1654 
  81   0.0000       1.256182        34.1824 
  82   0.0000       1.340034        36.4642 
  83   0.0000       1.340085        36.4656 
  84   0.0000       1.363057        37.0907 
  85   0.0000       1.425539        38.7909 
  86   0.0000       1.425540        38.7909 
  87   0.0000       1.531375        41.6708 
  88   0.0000       1.609551        43.7981 
  89   0.0000       1.609552        43.7981 
  90   0.0000       1.652237        44.9596 
  91   0.0000       1.652262        44.9603 
  92   0.0000       1.677464        45.6461 
  93   0.0000       1.680058        45.7167 
  94   0.0000       1.680115        45.7182 
  95   0.0000       1.683406        45.8078 
  96   0.0000       1.684874        45.8478 
  97   0.0000       1.690651        46.0049 
  98   0.0000       1.692143        46.0456 
  99   0.0000       1.761317        47.9279 
 100   0.0000       1.765647        48.0457 
 101   0.0000       1.803062        49.0638 
 102   0.0000       1.958589        53.2959 
 103   0.0000       1.958635        53.2972 
 104   0.0000       2.077310        56.5265 
 105   0.0000       2.215603        60.2896 
 106   0.0000       2.215635        60.2905 
 107   0.0000       2.726946        74.2040 
 108   0.0000      20.224747       550.3434 
 109   0.0000      20.494138       557.6739 
 110   0.0000      72.569380      1974.7132 
 111   0.0000      72.663128      1977.2642 

                    ********************************
                    * MULLIKEN POPULATION ANALYSIS *
                    ********************************

--------------------------------------------
MULLIKEN ATOMIC CHARGES AND SPIN POPULATIONS
--------------------------------------------
   0 Zr:    0.000593    1.004630
   1 Zr:   -0.000593    0.995370
Sum of atomic charges         :   -0.0000000
Sum of atomic spin populations:    2.0000000

-----------------------------------------------------
MULLIKEN REDUCED ORBITAL CHARGES AND SPIN POPULATIONS
-----------------------------------------------------
CHARGE
  0 Zrs       :     2.990376  s :     2.990376
      pz      :     2.006879  p :     6.039849
      px      :     2.016477
      py      :     2.016492
      dz2     :     0.486575  d :     2.921429
      dxz     :     0.969119
      dyz     :     0.969124
      dx2y2   :     0.005968
      dxy     :     0.490642
      f0      :     0.011629  f :     0.036706
      f+1     :     0.010622
      f-1     :     0.010625
      f+2     :     0.000045
      f-2     :     0.003706
      f+3     :     0.000041
      f-3     :     0.000039
      g0      :     0.003578  g :     0.011047
      g+1     :     0.003339
      g-1     :     0.003339
      g+2     :     0.000008
      g-2     :     0.000687
      g+3     :     0.000015
      g-3     :     0.000014
      g+4     :     0.000064
      g-4     :     0.000003
  1 Zrs       :     2.992569  s :     2.992569
      pz      :     2.006707  p :     6.039654
      px      :     2.016465
      py      :     2.016482
      dz2     :     0.486349  d :     2.920632
      dxz     :     0.969866
      dyz     :     0.969883
      dx2y2   :     0.005946
      dxy     :     0.488589
      f0      :     0.011616  f :     0.036693
      f+1     :     0.010609
      f-1     :     0.010613
      f+2     :     0.000046
      f-2     :     0.003730
      f+3     :     0.000040
      f-3     :     0.000039
      g0      :     0.003578  g :     0.011045
      g+1     :     0.003336
      g-1     :     0.003335
      g+2     :     0.000009
      g-2     :     0.000692
      g+3     :     0.000015
      g-3     :     0.000014
      g+4     :     0.000063
      g-4     :     0.000003

SPIN
  0 Zrs       :     0.017757  s :     0.017757
      pz      :     0.035732  p :     0.033394
      px      :    -0.001310
      py      :    -0.001028
      dz2     :     0.446418  d :     0.945268
      dxz     :     0.001268
      dyz     :     0.001013
      dx2y2   :     0.005929
      dxy     :     0.490639
      f0      :     0.002064  f :     0.005930
      f+1     :     0.000032
      f-1     :     0.000031
      f+2     :     0.000045
      f-2     :     0.003706
      f+3     :     0.000027
      f-3     :     0.000026
      g0      :     0.000194  g :     0.002281
      g+1     :     0.000663
      g-1     :     0.000651
      g+2     :     0.000008
      g-2     :     0.000687
      g+3     :     0.000009
      g-3     :     0.000009
      g+4     :     0.000058
      g-4     :     0.000003
  1 Zrs       :     0.013752  s :     0.013752
      pz      :     0.035638  p :     0.033350
      px      :    -0.001286
      py      :    -0.001002
      dz2     :     0.446042  d :     0.939960
      dxz     :    -0.000133
      dyz     :    -0.000439
      dx2y2   :     0.005903
      dxy     :     0.488587
      f0      :     0.002079  f :     0.006014
      f+1     :     0.000054
      f-1     :     0.000053
      f+2     :     0.000045
      f-2     :     0.003730
      f+3     :     0.000026
      f-3     :     0.000026
      g0      :     0.000195  g :     0.002293
      g+1     :     0.000667
      g-1     :     0.000655
      g+2     :     0.000008
      g-2     :     0.000692
      g+3     :     0.000009
      g-3     :     0.000008
      g+4     :     0.000057
      g-4     :     0.000003


                     *******************************
                     * LOEWDIN POPULATION ANALYSIS *
                     *******************************

-------------------------------------------
LOEWDIN ATOMIC CHARGES AND SPIN POPULATIONS
-------------------------------------------
   0 Zr:   -0.000371    1.003006
   1 Zr:    0.000371    0.996994

----------------------------------------------------
LOEWDIN REDUCED ORBITAL CHARGES AND SPIN POPULATIONS
----------------------------------------------------
CHARGE
  0 Zrs       :     2.695247  s :     2.695247
      pz      :     2.035423  p :     5.978171
      px      :     1.971367
      py      :     1.971381
      dz2     :     0.594704  d :     3.013503
      dxz     :     0.964193
      dyz     :     0.964201
      dx2y2   :     0.005894
      dxy     :     0.484511
      f0      :     0.110934  f :     0.195253
      f+1     :     0.038424
      f-1     :     0.038428
      f+2     :     0.000089
      f-2     :     0.007298
      f+3     :     0.000041
      f-3     :     0.000039
      g0      :     0.063646  g :     0.118197
      g+1     :     0.025639
      g-1     :     0.025638
      g+2     :     0.000038
      g-2     :     0.003139
      g+3     :     0.000015
      g-3     :     0.000014
      g+4     :     0.000064
      g-4     :     0.000003
  1 Zrs       :     2.695802  s :     2.695802
      pz      :     2.035021  p :     5.977698
      px      :     1.971331
      py      :     1.971345
      dz2     :     0.594520  d :     3.012689
      dxz     :     0.964847
      dyz     :     0.964864
      dx2y2   :     0.005873
      dxy     :     0.482584
      f0      :     0.110917  f :     0.195245
      f+1     :     0.038402
      f-1     :     0.038406
      f+2     :     0.000090
      f-2     :     0.007352
      f+3     :     0.000040
      f-3     :     0.000039
      g0      :     0.063641  g :     0.118196
      g+1     :     0.025630
      g-1     :     0.025629
      g+2     :     0.000039
      g-2     :     0.003161
      g+3     :     0.000015
      g-3     :     0.000014
      g+4     :     0.000063
      g-4     :     0.000003

SPIN
  0 Zrs       :     0.018380  s :     0.018380
      pz      :     0.039472  p :     0.039423
      px      :    -0.000157
      py      :     0.000108
      dz2     :     0.440643  d :     0.931621
      dxz     :     0.000423
      dyz     :     0.000191
      dx2y2   :     0.005855
      dxy     :     0.484509
      f0      :     0.002405  f :     0.009460
      f+1     :    -0.000190
      f-1     :    -0.000193
      f+2     :     0.000088
      f-2     :     0.007298
      f+3     :     0.000027
      f-3     :     0.000026
      g0      :     0.000015  g :     0.004122
      g+1     :     0.000436
      g-1     :     0.000416
      g+2     :     0.000038
      g-2     :     0.003139
      g+3     :     0.000009
      g-3     :     0.000009
      g+4     :     0.000058
      g-4     :     0.000003
  1 Zrs       :     0.016414  s :     0.016414
      pz      :     0.039803  p :     0.039926
      px      :    -0.000072
      py      :     0.000196
      dz2     :     0.440274  d :     0.926823
      dxz     :    -0.000793
      dyz     :    -0.001070
      dx2y2   :     0.005830
      dxy     :     0.482583
      f0      :     0.002434  f :     0.009636
      f+1     :    -0.000144
      f-1     :    -0.000147
      f+2     :     0.000089
      f-2     :     0.007351
      f+3     :     0.000026
      f-3     :     0.000026
      g0      :     0.000033  g :     0.004195
      g+1     :     0.000453
      g-1     :     0.000433
      g+2     :     0.000038
      g-2     :     0.003161
      g+3     :     0.000009
      g-3     :     0.000009
      g+4     :     0.000057
      g-4     :     0.000003


                      *****************************
                      * MAYER POPULATION ANALYSIS *
                      *****************************

  NA   - Mulliken gross atomic population
  ZA   - Total nuclear charge
  QA   - Mulliken gross atomic charge
  VA   - Mayer's total valence
  BVA  - Mayer's bonded valence
  FA   - Mayer's free valence

  ATOM       NA         ZA         QA         VA         BVA        FA
  0 Zr    11.9994    12.0000     0.0006     4.7200     4.2154     0.5046
  1 Zr    12.0006    12.0000    -0.0006     4.7174     4.2154     0.5020

  Mayer bond orders larger than 0.100000
B(  0-Zr,  1-Zr) :   4.2154 

-------
TIMINGS
-------

Total SCF time: 0 days 0 hours 0 min 46 sec 

Total time                  ....      46.885 sec
Sum of individual times     ....      44.630 sec  ( 95.2%)

Fock matrix formation       ....      38.664 sec  ( 82.5%)
  XC integration            ....      15.822 sec  ( 40.9% of F)
    Basis function eval.    ....       0.176 sec  (  1.1% of XC)
    Density eval.           ....       0.497 sec  (  3.1% of XC)
    XC-Functional eval.     ....       0.176 sec  (  1.1% of XC)
    XC-Potential eval.      ....       1.258 sec  (  8.0% of XC)
Diagonalization             ....       0.901 sec  (  1.9%)
Density matrix formation    ....       0.326 sec  (  0.7%)
Population analysis         ....       0.164 sec  (  0.3%)
Initial guess               ....       3.417 sec  (  7.3%)
Orbital Transformation      ....       0.000 sec  (  0.0%)
Orbital Orthonormalization  ....       0.000 sec  (  0.0%)
DIIS solution               ....       0.891 sec  (  1.9%)
Grid generation             ....       0.268 sec  (  0.6%)


-------------------------------------------------------------------------------
                          DFT DISPERSION CORRECTION                            
                                                                               
                              DFTD3 V3.1  Rev 1                                
                          USING Becke-Johnson damping                          
-------------------------------------------------------------------------------
The TPSSH functional is recognized
Active option DFTDOPT                   ...         4   

molecular C6(AA) [au] = 3778.879204 


            DFT-D V3
 parameters
 s6 scaling factor         :     1.0000 
 a1 scaling factor         :     0.4529 
 s8 scaling factor         :     2.2382 
 a2 scaling factor         :     4.6550 
 ad hoc parameters k1-k3   :    16.0000     1.3333    -4.0000 

 Edisp/kcal,au: -1.946778861585  -0.003102389262 
 E6   /kcal   :  -0.443782760 
 E8   /kcal   :  -1.502996102 
 % E8         :  77.204254226 

-------------------------   ----------------
Dispersion correction           -0.003102389
-------------------------   ----------------


-------------------------   --------------------
FINAL SINGLE POINT ENERGY       -93.878046227701
-------------------------   --------------------


                            ***************************************
                            *     ORCA property calculations      *
                            ***************************************

                                    ---------------------
                                    Active property flags
                                    ---------------------
   (+) Dipole Moment


------------------------------------------------------------------------------
                       ORCA ELECTRIC PROPERTIES CALCULATION
------------------------------------------------------------------------------

Dipole Moment Calculation                       ... on
Quadrupole Moment Calculation                   ... off
Polarizability Calculation                      ... off
GBWName                                         ... Zr2.gbw
Electron density file                           ... Zr2.scfp
The origin for moment calculation is the CENTER OF MASS  = ( 0.000000,  0.000000  2.116493)

-------------
DIPOLE MOMENT
-------------
                                X             Y             Z
Electronic contribution:     -0.00051       0.00023       0.00046
Nuclear contribution   :      0.00000       0.00000       0.00000
                        -----------------------------------------
Total Dipole Moment    :     -0.00051       0.00023       0.00046
                        -----------------------------------------
Magnitude (a.u.)       :      0.00072
Magnitude (Debye)      :      0.00184



--------------------
Rotational spectrum 
--------------------
 
Rotational constants in cm-1:     0.000000     0.073662     0.073662 
Rotational constants in MHz :     0.000000  2208.317403  2208.317403 

 Dipole components along the rotational axes: 
x,y,z [a.u.] :     0.000459     0.000228    -0.000510 
x,y,z [Debye]:     0.001167     0.000579    -0.001296 

 

Timings for individual modules:

Sum of individual times         ...       48.575 sec (=   0.810 min)
GTO integral calculation        ...        1.112 sec (=   0.019 min)   2.3 %
SCF iterations                  ...       47.463 sec (=   0.791 min)  97.7 %
                             ****ORCA TERMINATED NORMALLY****
TOTAL RUN TIME: 0 days 0 hours 0 minutes 49 seconds 248 msec
