
    -----------------------------------------------------------------------
          Psi4: An Open-Source Ab Initio Electronic Structure Package
                               Psi4 1.4.1 release

                         Git: Rev {HEAD} cd00f19 


    D. G. A. Smith, L. A. Burns, A. C. Simmonett, R. M. Parrish,
    M. C. Schieber, R. Galvelis, P. Kraus, H. Kruse, R. Di Remigio,
    A. Alenaizan, A. M. James, S. Lehtola, J. P. Misiewicz, M. Scheurer,
    R. A. Shaw, J. B. Schriber, Y. Xie, Z. L. Glick, D. A. Sirianni,
    J. S. O'Brien, J. M. Waldrop, A. Kumar, E. G. Hohenstein,
    B. P. Pritchard, B. R. Brooks, H. F. Schaefer III, A. Yu. Sokolov,
    K. Patkowski, A. E. DePrince III, U. Bozkaya, R. A. King,
    F. A. Evangelista, J. M. Turney, T. D. Crawford, C. D. Sherrill,
    J. Chem. Phys. 152(18) 184108 (2020). https://doi.org/10.1063/5.0006002

                            Additional Code Authors
    E. T. Seidl, C. L. Janssen, E. F. Valeev, M. L. Leininger,
    J. F. Gonthier, R. M. Richard, H. R. McAlexander, M. Saitow, X. Wang,
    P. Verma, and M. H. Lechner

             Previous Authors, Complete List of Code Contributors,
                       and Citations for Specific Modules
    https://github.com/psi4/psi4/blob/master/codemeta.json
    https://github.com/psi4/psi4/graphs/contributors
    http://psicode.org/psi4manual/master/introduction.html#citing-psifour

    -----------------------------------------------------------------------


    Psi4 started on: Sunday, 07 November 2021 05:05AM

    Process ID: 27704
    Host:       compute424.bc4.acrc.priv
    PSIDATADIR: /mnt/storage/home/zw18965/.conda/envs/p4env/share/psi4
    Memory:     500.0 MiB
    Threads:    28
    
  ==> Input File <==

--------------------------------------------------------------------------
memory 120 GB

molecule {
0 2
B          0.00000        0.00000        0.00000
 }

set reference uks
set dynamic_level 1
set basis Def2-TZVPPD

energy("SCAN-D3BJ")
--------------------------------------------------------------------------

  Memory set to 111.759 GiB by Python driver.

Scratch directory: /tmp/

*** tstart() called on compute424.bc4.acrc.priv
*** at Sun Nov  7 05:05:21 2021

   => Loading Basis Set <=

    Name: DEF2-TZVPPD
    Role: ORBITAL
    Keyword: BASIS
    atoms 1 entry B          line   107 file /mnt/storage/home/zw18965/.conda/envs/p4env/share/psi4/basis/def2-tzvppd.gbs 

   => SCAN-D3(BJ): Empirical Dispersion <=

    Grimme's -D3 (BJ-damping) Dispersion Correction
    Grimme S.; Ehrlich S.; Goerigk L. (2011), J. Comput. Chem., 32: 1456
    Parametrisation from:    J.G. Brandenburg, J. E. Bates, J. Sun, J.P. Perdew, Phys. Rev. B 94, 115144, 2016

        s6 =       1.000000
        s8 =       0.000000
        a1 =       0.538000
        a2 =       5.420000


         ---------------------------------------------------------
                                   SCF
               by Justin Turney, Rob Parrish, Andy Simmonett
                          and Daniel G. A. Smith
                              UKS Reference
                       28 Threads, 114440 MiB Core
         ---------------------------------------------------------

  ==> Geometry <==

    Molecular point group: d2h
    Geometry (in Angstrom), charge = 0, multiplicity = 2:

       Center              X                  Y                   Z               Mass       
    ------------   -----------------  -----------------  -----------------  -----------------
         B            0.000000000000     0.000000000000     0.000000000000    11.009305360000

  Running in d2h symmetry.

  Rotational constants: A = ************  B = ************  C = ************ [cm^-1]
  Rotational constants: A = ************  B = ************  C = ************ [MHz]
  Nuclear repulsion =    0.000000000000000

  Charge       = 0
  Multiplicity = 2
  Electrons    = 5
  Nalpha       = 3
  Nbeta        = 2

  ==> Algorithm <==

  SCF Algorithm Type is DF.
  DIIS enabled.
  MOM disabled.
  Fractional occupation disabled.
  Guess Type is CORE.
  Energy threshold   = 1.00e-06
  Density threshold  = 1.00e-06
  Integral threshold = 1.00e-12

  ==> Primary Basis <==

  Basis Set: DEF2-TZVPPD
    Blend: DEF2-TZVPPD
    Number of shells: 13
    Number of basis functions: 37
    Number of Cartesian functions: 43
    Spherical Harmonics?: true
    Max angular momentum: 3

  ==> DFT Potential <==

   => Composite Functional: SCAN-D3BJ <= 

    SCAN Meta-GGA XC Functional
(10.1103/PhysRevLett.115.036402)
    J. Sun, A. Ruzsinszky, J. P. Perdew  Phys. Rev. Lett. 115, 036402, 2015


    Deriv               =              1
    GGA                 =           TRUE
    Meta                =           TRUE

    Exchange Hybrid     =          FALSE
    MP2 Hybrid          =          FALSE

   => Exchange Functionals <=

    1.0000   XC_MGGA_X_SCAN

   => Correlation Functionals <=

    1.0000   XC_MGGA_C_SCAN

   => LibXC Density Thresholds  <==

    XC_MGGA_C_SCAN:  1.00E-15 
    XC_MGGA_X_SCAN:  1.00E-15 

   => Molecular Quadrature <=

    Radial Scheme          =       TREUTLER
    Pruning Scheme         =           NONE
    Nuclear Scheme         =       TREUTLER

    BS radius alpha        =              1
    Pruning alpha          =              1
    Radial Points          =             75
    Spherical Points       =            302
    Total Points           =          22348
    Total Blocks           =            236
    Max Points             =            252
    Max Functions          =             37
    Weights Tolerance      =       1.00E-15

   => Loading Basis Set <=

    Name: (DEF2-TZVPPD AUX)
    Role: JKFIT
    Keyword: DF_BASIS_SCF
    atoms 1 entry B          line   138 file /mnt/storage/home/zw18965/.conda/envs/p4env/share/psi4/basis/def2-universal-jkfit.gbs 

  ==> Integral Setup <==

  DFHelper Memory: AOs need 0.001 GiB; user supplied 83.761 GiB. Using in-core AOs.

  ==> MemDFJK: Density-Fitted J/K Matrices <==

    J tasked:                   Yes
    K tasked:                    No
    wK tasked:                   No
    OpenMP threads:              28
    Memory [MiB]:             85771
    Algorithm:                 Core
    Schwarz Cutoff:           1E-12
    Mask sparsity (%):       0.0000
    Fitting Condition:        1E-10

   => Auxiliary Basis Set <=

  Basis Set: (DEF2-TZVPPD AUX)
    Blend: DEF2-UNIVERSAL-JKFIT
    Number of shells: 25
    Number of basis functions: 75
    Number of Cartesian functions: 89
    Spherical Harmonics?: true
    Max angular momentum: 4

  Cached 100.0% of DFT collocation blocks in 0.058 [GiB].

  Minimum eigenvalue in the overlap matrix is 7.9670122663E-03.
  Reciprocal condition number of the overlap matrix is 2.3780472251E-03.
    Using symmetric orthogonalization.

  ==> Pre-Iterations <==

  SCF Guess: Core (One-Electron) Hamiltonian.

   -------------------------------------------------------
    Irrep   Nso     Nmo     Nalpha   Nbeta   Ndocc  Nsocc
   -------------------------------------------------------
     Ag        12      12       2       2       2       0
     B1g        3       3       0       0       0       0
     B2g        3       3       0       0       0       0
     B3g        3       3       0       0       0       0
     Au         1       1       0       0       0       0
     B1u        5       5       0       0       0       0
     B2u        5       5       1       0       0       1
     B3u        5       5       0       0       0       0
   -------------------------------------------------------
    Total      37      37       3       2       2       1
   -------------------------------------------------------

  ==> Iterations <==

                           Total Energy        Delta E     RMS |[F,P]|

    Occupation by irrep:
             Ag   B1g   B2g   B3g    Au   B1u   B2u   B3u 
    DOCC [     2,    0,    0,    0,    0,    0,    0,    0 ]
    SOCC [     1,    0,    0,    0,    0,    0,    0,    0 ]

   @DF-UKS iter   1:   -23.51887550251598   -2.35189e+01   1.33996e-01 DIIS
    Occupation by irrep:
             Ag   B1g   B2g   B3g    Au   B1u   B2u   B3u 
    DOCC [     2,    0,    0,    0,    0,    0,    0,    0 ]
    SOCC [     0,    0,    0,    0,    0,    0,    1,    0 ]

   @DF-UKS iter   2:   -24.36759034577316   -8.48715e-01   2.67174e-02 DIIS
   @DF-UKS iter   3:   -24.61299958419368   -2.45409e-01   9.89216e-03 DIIS
   @DF-UKS iter   4:   -24.63855911209701   -2.55595e-02   1.76053e-03 DIIS
   @DF-UKS iter   5:   -24.63965495132845   -1.09584e-03   3.38813e-04 DIIS
   @DF-UKS iter   6:   -24.63971319718576   -5.82459e-05   1.09043e-04 DIIS
   @DF-UKS iter   7:   -24.63971862480415   -5.42762e-06   2.23936e-05 DIIS
   @DF-UKS iter   8:   -24.63971876954294   -1.44739e-07   3.65675e-06 DIIS
   @DF-UKS iter   9:   -24.63971877538400   -5.84106e-09   8.25472e-07 DIIS
  Energy and wave function converged.


  ==> Post-Iterations <==

   Electrons on quadrature grid:
      Nalpha   =    3.0000000000 ; deviation = -1.843e-11
      Nbeta    =    2.0000000000 ; deviation = -1.849e-11
      Ntotal   =    5.0000000000 ; deviation = -3.692e-11 

   @Spin Contamination Metric:   7.350329573E-03
   @S^2 Expected:                7.500000000E-01
   @S^2 Observed:                7.573503296E-01
   @S   Expected:                5.000000000E-01
   @S   Observed:                5.000000000E-01

    Orbital Energies [Eh]
    ---------------------

    Alpha Occupied:                                                       

       1Ag    -6.737948     2Ag    -0.365305     1B2u   -0.168164  

    Alpha Virtual:                                                        

       1B3u   -0.119130     1B1u   -0.119130     3Ag     0.052625  
       2B2u    0.145027     4Ag     0.153094     1B3g    0.157938  
       1B1g    0.157938     1B2g    0.164263     5Ag     0.164406  
       2B3u    0.171438     2B1u    0.171438     6Ag     0.262918  
       7Ag     0.521886     2B3g    0.521914     2B1g    0.521914  
       2B2g    0.532450     8Ag     0.532645     3B2u    0.852555  
       3B1u    0.891116     3B3u    0.891116     9Ag     0.894459  
       4B2u    1.677665     5B2u    1.685827     1Au     1.686827  
       4B1u    1.698438     4B3u    1.698438     5B1u    1.712685  
       5B3u    1.712685     3B1g    1.852323     3B3g    1.852323  
      10Ag     1.862305     3B2g    1.888137    11Ag     1.889021  
      12Ag    13.360514  

    Beta Occupied:                                                        

       1Ag    -6.722303     2Ag    -0.323868  

    Beta Virtual:                                                         

       1B3u   -0.112046     1B1u   -0.112046     1B2u   -0.052231  
       3Ag     0.132665     2B3u    0.223664     2B1u    0.223664  
       4Ag     0.236389     1B2g    0.236400     1B3g    0.248681  
       1B1g    0.248681     5Ag     0.252841     2B2u    0.253123  
       6Ag     0.394088     7Ag     0.595184     2B2g    0.595224  
       2B3g    0.621174     2B1g    0.621174     8Ag     0.628119  
       3B1u    0.928315     3B3u    0.928315     9Ag     0.975824  
       3B2u    0.981338     4B1u    1.700852     4B3u    1.700852  
       1Au     1.751818     4B2u    1.751848     5B1u    1.775057  
       5B3u    1.775057     5B2u    1.791757     3B2g    1.903943  
      10Ag     1.904182     3B1g    1.966954     3B3g    1.966954  
      11Ag     1.975565    12Ag    13.360717  

    Final Occupation by Irrep:
             Ag   B1g   B2g   B3g    Au   B1u   B2u   B3u 
    DOCC [     2,    0,    0,    0,    0,    0,    0,    0 ]
    SOCC [     0,    0,    0,    0,    0,    0,    1,    0 ]

  @DF-UKS Final Energy:   -24.63971877538400

   => Energetics <=

    Nuclear Repulsion Energy =              0.0000000000000000
    One-Electron Energy =                 -32.3947222280574962
    Two-Electron Energy =                  11.6311617394787117
    DFT Exchange-Correlation Energy =      -3.8761582868052114
    Empirical Dispersion Energy =           0.0000000000000000
    VV10 Nonlocal Energy =                  0.0000000000000000
    Total Energy =                        -24.6397187753839937

  UHF NO Occupations:
  HONO-2 :    1 Ag 1.9999961
  HONO-1 :    2 Ag 1.9963220
  HONO-0 :    1B2u 1.0000000
  LUNO+0 :    3 Ag 0.0036780
  LUNO+1 :    4 Ag 0.0000039
  LUNO+2 :    5 Ag 0.0000000
  LUNO+3 :    6 Ag 0.0000000


Computation Completed


Properties will be evaluated at   0.000000,   0.000000,   0.000000 [a0]

Properties computed using the SCF density matrix

  Nuclear Dipole Moment: [e a0]
     X:     0.0000      Y:     0.0000      Z:     0.0000

  Electronic Dipole Moment: [e a0]
     X:     0.0000      Y:     0.0000      Z:     0.0000

  Dipole Moment: [e a0]
     X:     0.0000      Y:     0.0000      Z:     0.0000     Total:     0.0000

  Dipole Moment: [D]
     X:     0.0000      Y:     0.0000      Z:     0.0000     Total:     0.0000


*** tstop() called on compute424.bc4.acrc.priv at Sun Nov  7 05:05:24 2021
Module time:
	user time   =      46.78 seconds =       0.78 minutes
	system time =       1.67 seconds =       0.03 minutes
	total time  =          3 seconds =       0.05 minutes
Total time:
	user time   =      46.78 seconds =       0.78 minutes
	system time =       1.67 seconds =       0.03 minutes
	total time  =          3 seconds =       0.05 minutes

    Psi4 stopped on: Sunday, 07 November 2021 05:05AM
    Psi4 wall time for execution: 0:00:03.22

*** Psi4 exiting successfully. Buy a developer a beer!
