
    -----------------------------------------------------------------------
          Psi4: An Open-Source Ab Initio Electronic Structure Package
                               Psi4 1.4.1 release

                         Git: Rev {HEAD} cd00f19 


    D. G. A. Smith, L. A. Burns, A. C. Simmonett, R. M. Parrish,
    M. C. Schieber, R. Galvelis, P. Kraus, H. Kruse, R. Di Remigio,
    A. Alenaizan, A. M. James, S. Lehtola, J. P. Misiewicz, M. Scheurer,
    R. A. Shaw, J. B. Schriber, Y. Xie, Z. L. Glick, D. A. Sirianni,
    J. S. O'Brien, J. M. Waldrop, A. Kumar, E. G. Hohenstein,
    B. P. Pritchard, B. R. Brooks, H. F. Schaefer III, A. Yu. Sokolov,
    K. Patkowski, A. E. DePrince III, U. Bozkaya, R. A. King,
    F. A. Evangelista, J. M. Turney, T. D. Crawford, C. D. Sherrill,
    J. Chem. Phys. 152(18) 184108 (2020). https://doi.org/10.1063/5.0006002

                            Additional Code Authors
    E. T. Seidl, C. L. Janssen, E. F. Valeev, M. L. Leininger,
    J. F. Gonthier, R. M. Richard, H. R. McAlexander, M. Saitow, X. Wang,
    P. Verma, and M. H. Lechner

             Previous Authors, Complete List of Code Contributors,
                       and Citations for Specific Modules
    https://github.com/psi4/psi4/blob/master/codemeta.json
    https://github.com/psi4/psi4/graphs/contributors
    http://psicode.org/psi4manual/master/introduction.html#citing-psifour

    -----------------------------------------------------------------------


    Psi4 started on: Sunday, 07 November 2021 05:05AM

    Process ID: 10276
    Host:       compute431.bc4.acrc.priv
    PSIDATADIR: /mnt/storage/home/zw18965/.conda/envs/p4env/share/psi4
    Memory:     500.0 MiB
    Threads:    28
    
  ==> Input File <==

--------------------------------------------------------------------------
memory 120 GB

molecule {
0 3
C          0.00000        0.00000        0.00000
H          0.00000        0.00000        1.07672
H          0.77665        0.00000       -0.74575
 }

set reference uks
set dynamic_level 1
set basis Def2-TZVPPD

energy("SCAN-D3BJ")
--------------------------------------------------------------------------

  Memory set to 111.759 GiB by Python driver.

Scratch directory: /tmp/

*** tstart() called on compute431.bc4.acrc.priv
*** at Sun Nov  7 05:05:20 2021

   => Loading Basis Set <=

    Name: DEF2-TZVPPD
    Role: ORBITAL
    Keyword: BASIS
    atoms 1   entry C          line   144 file /mnt/storage/home/zw18965/.conda/envs/p4env/share/psi4/basis/def2-tzvppd.gbs 
    atoms 2-3 entry H          line    14 file /mnt/storage/home/zw18965/.conda/envs/p4env/share/psi4/basis/def2-tzvppd.gbs 

   => SCAN-D3(BJ): Empirical Dispersion <=

    Grimme's -D3 (BJ-damping) Dispersion Correction
    Grimme S.; Ehrlich S.; Goerigk L. (2011), J. Comput. Chem., 32: 1456
    Parametrisation from:    J.G. Brandenburg, J. E. Bates, J. Sun, J.P. Perdew, Phys. Rev. B 94, 115144, 2016

        s6 =       1.000000
        s8 =       0.000000
        a1 =       0.538000
        a2 =       5.420000


         ---------------------------------------------------------
                                   SCF
               by Justin Turney, Rob Parrish, Andy Simmonett
                          and Daniel G. A. Smith
                              UKS Reference
                       28 Threads, 114440 MiB Core
         ---------------------------------------------------------

  ==> Geometry <==

    Molecular point group: cs
    Full point group: Cs

    Geometry (in Angstrom), charge = 0, multiplicity = 3:

       Center              X                  Y                   Z               Mass       
    ------------   -----------------  -----------------  -----------------  -----------------
         C            0.055846664813    -0.023799099534     0.000000000000    12.000000000000
         H            0.055846664813     1.052920900466     0.000000000000     1.007825032230
         H           -0.720803335187    -0.769549099534     0.000000000000     1.007825032230

  Running in cs symmetry.

  Rotational constants: A =     54.82145  B =      8.52409  C =      7.37704 [cm^-1]
  Rotational constants: A = 1643505.75863  B = 255545.73237  C = 221158.23859 [MHz]
  Nuclear repulsion =    6.164774012406175

  Charge       = 0
  Multiplicity = 3
  Electrons    = 8
  Nalpha       = 5
  Nbeta        = 3

  ==> Algorithm <==

  SCF Algorithm Type is DF.
  DIIS enabled.
  MOM disabled.
  Fractional occupation disabled.
  Guess Type is SAD.
  Energy threshold   = 1.00e-06
  Density threshold  = 1.00e-06
  Integral threshold = 1.00e-12

  ==> Primary Basis <==

  Basis Set: DEF2-TZVPPD
    Blend: DEF2-TZVPPD
    Number of shells: 27
    Number of basis functions: 71
    Number of Cartesian functions: 79
    Spherical Harmonics?: true
    Max angular momentum: 3

  ==> DFT Potential <==

   => Composite Functional: SCAN-D3BJ <= 

    SCAN Meta-GGA XC Functional
(10.1103/PhysRevLett.115.036402)
    J. Sun, A. Ruzsinszky, J. P. Perdew  Phys. Rev. Lett. 115, 036402, 2015


    Deriv               =              1
    GGA                 =           TRUE
    Meta                =           TRUE

    Exchange Hybrid     =          FALSE
    MP2 Hybrid          =          FALSE

   => Exchange Functionals <=

    1.0000   XC_MGGA_X_SCAN

   => Correlation Functionals <=

    1.0000   XC_MGGA_C_SCAN

   => LibXC Density Thresholds  <==

    XC_MGGA_C_SCAN:  1.00E-15 
    XC_MGGA_X_SCAN:  1.00E-15 

   => Molecular Quadrature <=

    Radial Scheme          =       TREUTLER
    Pruning Scheme         =           NONE
    Nuclear Scheme         =       TREUTLER

    BS radius alpha        =              1
    Pruning alpha          =              1
    Radial Points          =             75
    Spherical Points       =            302
    Total Points           =          66756
    Total Blocks           =            559
    Max Points             =            251
    Max Functions          =             71
    Weights Tolerance      =       1.00E-15

   => Loading Basis Set <=

    Name: (DEF2-TZVPPD AUX)
    Role: JKFIT
    Keyword: DF_BASIS_SCF
    atoms 1   entry C          line   198 file /mnt/storage/home/zw18965/.conda/envs/p4env/share/psi4/basis/def2-universal-jkfit.gbs 
    atoms 2-3 entry H          line    18 file /mnt/storage/home/zw18965/.conda/envs/p4env/share/psi4/basis/def2-universal-jkfit.gbs 

  ==> Integral Setup <==

  DFHelper Memory: AOs need 0.006 GiB; user supplied 83.484 GiB. Using in-core AOs.

  ==> MemDFJK: Density-Fitted J/K Matrices <==

    J tasked:                   Yes
    K tasked:                    No
    wK tasked:                   No
    OpenMP threads:              28
    Memory [MiB]:             85487
    Algorithm:                 Core
    Schwarz Cutoff:           1E-12
    Mask sparsity (%):       0.0000
    Fitting Condition:        1E-10

   => Auxiliary Basis Set <=

  Basis Set: (DEF2-TZVPPD AUX)
    Blend: DEF2-UNIVERSAL-JKFIT
    Number of shells: 37
    Number of basis functions: 111
    Number of Cartesian functions: 129
    Spherical Harmonics?: true
    Max angular momentum: 4

  Cached 100.0% of DFT collocation blocks in 0.335 [GiB].

  Minimum eigenvalue in the overlap matrix is 1.0167975771E-04.
  Reciprocal condition number of the overlap matrix is 1.5978122319E-05.
    Using symmetric orthogonalization.

  ==> Pre-Iterations <==

  SCF Guess: Superposition of Atomic Densities via on-the-fly atomic UHF (no occupation information).

   -------------------------
    Irrep   Nso     Nmo    
   -------------------------
     A'        49      49 
     A"        22      22 
   -------------------------
    Total      71      71
   -------------------------

  ==> Iterations <==

                           Total Energy        Delta E     RMS |[F,P]|

   @DF-UKS iter SAD:   -38.67854125873016   -3.86785e+01   0.00000e+00 
   @DF-UKS iter   1:   -39.07526747200736   -3.96726e-01   6.85044e-03 DIIS
   @DF-UKS iter   2:   -39.08479843904311   -9.53097e-03   6.35944e-03 DIIS
   @DF-UKS iter   3:   -39.15128027560999   -6.64818e-02   5.03169e-04 DIIS
   @DF-UKS iter   4:   -39.15172393768999   -4.43662e-04   1.12879e-04 DIIS
   @DF-UKS iter   5:   -39.15175137526568   -2.74376e-05   3.20549e-05 DIIS
   @DF-UKS iter   6:   -39.15175411332395   -2.73806e-06   6.57802e-06 DIIS
   @DF-UKS iter   7:   -39.15175427613038   -1.62806e-07   1.02325e-06 DIIS
   @DF-UKS iter   8:   -39.15175427883733   -2.70695e-09   1.50596e-07 DIIS
  Energy and wave function converged.


  ==> Post-Iterations <==

   Electrons on quadrature grid:
      Nalpha   =    5.0000001872 ; deviation = 1.872e-07
      Nbeta    =    3.0000001529 ; deviation = 1.529e-07
      Ntotal   =    8.0000003400 ; deviation = 3.400e-07 

   @Spin Contamination Metric:   1.043902841E-02
   @S^2 Expected:                2.000000000E+00
   @S^2 Observed:                2.010439028E+00
   @S   Expected:                1.000000000E+00
   @S   Observed:                1.000000000E+00

    Orbital Energies [Eh]
    ---------------------

    Alpha Occupied:                                                       

       1Ap   -10.086343     2Ap    -0.654887     3Ap    -0.423963  
       4Ap    -0.260505     1App   -0.227537  

    Alpha Virtual:                                                        

       5Ap     0.026897     6Ap     0.103229     7Ap     0.113059  
       8Ap     0.158881     9Ap     0.174503     2App    0.182215  
       3App    0.192915    10Ap     0.220377     4App    0.222300  
      11Ap     0.239957    12Ap     0.306047    13Ap     0.325645  
      14Ap     0.336861     5App    0.368668     6App    0.405456  
      15Ap     0.415762    16Ap     0.470371    17Ap     0.517064  
      18Ap     0.706582     7App    0.732988    19Ap     0.744644  
       8App    0.803914    20Ap     0.804769    21Ap     0.840419  
      22Ap     0.956758     9App    1.029346    23Ap     1.179243  
      10App    1.303437    24Ap     1.312798    25Ap     1.513521  
      26Ap     1.525157    11App    1.564824    27Ap     1.676869  
      28Ap     1.726664    29Ap     1.794226    12App    2.631748  
      30Ap     2.634714    31Ap     2.655364    13App    2.718717  
      32Ap     2.737433    33Ap     2.806226    14App    2.901240  
      34Ap     2.980388    15App    3.033709    35Ap     3.053270  
      16App    3.099640    36Ap     3.194798    37Ap     3.464710  
      38Ap     3.607002    17App    3.667318    18App    3.754452  
      39Ap     3.845595    40Ap     3.881825    41Ap     4.099343  
      19App    4.142662    20App    4.182517    42Ap     4.202563  
      43Ap     4.731622    44Ap     5.012368    21App    5.046016  
      22App    5.072789    45Ap     5.168528    46Ap     5.385841  
      47Ap     5.786374    48Ap     5.863531    49Ap    22.744977  

    Beta Occupied:                                                        

       1Ap   -10.050510     2Ap    -0.559828     3Ap    -0.402329  

    Beta Virtual:                                                         

       4Ap    -0.086348     1App   -0.061828     5Ap     0.091059  
       6Ap     0.156831     7Ap     0.172071     8Ap     0.248886  
       9Ap     0.262019     2App    0.265450     3App    0.281115  
      10Ap     0.286505     4App    0.307733    11Ap     0.406029  
      12Ap     0.447768    13Ap     0.467328    14Ap     0.498993  
      15Ap     0.521832     5App    0.522432     6App    0.548386  
      16Ap     0.588567    17Ap     0.649920     7App    0.804200  
      18Ap     0.880413    19Ap     0.887480     8App    0.902490  
      20Ap     0.912381    21Ap     0.920610    22Ap     1.030674  
       9App    1.090700    23Ap     1.258710    24Ap     1.362239  
      10App    1.371560    25Ap     1.538664    26Ap     1.580610  
      11App    1.691626    27Ap     1.767451    28Ap     1.810574  
      29Ap     1.841621    30Ap     2.631834    12App    2.703112  
      13App    2.710355    31Ap     2.713369    32Ap     2.769601  
      33Ap     2.806510    14App    2.937056    34Ap     2.986263  
      15App    3.060370    35Ap     3.193069    16App    3.218583  
      36Ap     3.234029    37Ap     3.419153    38Ap     3.568107  
      17App    3.624357    18App    3.691374    39Ap     3.789521  
      40Ap     3.843060    41Ap     4.011562    19App    4.065512  
      20App    4.096772    42Ap     4.138658    43Ap     4.654994  
      44Ap     4.945344    21App    4.984711    22App    4.989489  
      45Ap     5.111605    46Ap     5.322994    47Ap     5.680992  
      48Ap     5.768995    49Ap    22.731232  

    Final Occupation by Irrep:
             Ap   App 
    DOCC [     3,    0 ]
    SOCC [     1,    1 ]

  @DF-UKS Final Energy:   -39.15175427883733

   => Energetics <=

    Nuclear Repulsion Energy =              6.1647740124061752
    One-Electron Energy =                 -63.9836275390455853
    Two-Electron Energy =                  24.7476314801873869
    DFT Exchange-Correlation Energy =      -6.0804236523853099
    Empirical Dispersion Energy =          -0.0001085800000000
    VV10 Nonlocal Energy =                  0.0000000000000000
    Total Energy =                        -39.1517542788373305

  UHF NO Occupations:
  HONO-2 :    3 Ap 1.9957833
  HONO-1 :    1App 1.0000000
  HONO-0 :    4 Ap 1.0000000
  LUNO+0 :    5 Ap 0.0042167
  LUNO+1 :    6 Ap 0.0010082
  LUNO+2 :    7 Ap 0.0000040
  LUNO+3 :    8 Ap 0.0000000


Computation Completed


Properties will be evaluated at   0.000000,   0.000000,   0.000000 [a0]

Properties computed using the SCF density matrix

  Nuclear Dipole Moment: [e a0]
     X:    -0.6234      Y:     0.2657      Z:     0.0000

  Electronic Dipole Moment: [e a0]
     X:     0.4145      Y:    -0.1766      Z:     0.0000

  Dipole Moment: [e a0]
     X:    -0.2089      Y:     0.0890      Z:     0.0000     Total:     0.2271

  Dipole Moment: [D]
     X:    -0.5309      Y:     0.2263      Z:     0.0000     Total:     0.5771


*** tstop() called on compute431.bc4.acrc.priv at Sun Nov  7 05:05:28 2021
Module time:
	user time   =     148.94 seconds =       2.48 minutes
	system time =       7.23 seconds =       0.12 minutes
	total time  =          8 seconds =       0.13 minutes
Total time:
	user time   =     148.94 seconds =       2.48 minutes
	system time =       7.23 seconds =       0.12 minutes
	total time  =          8 seconds =       0.13 minutes

    Psi4 stopped on: Sunday, 07 November 2021 05:05AM
    Psi4 wall time for execution: 0:00:07.22

*** Psi4 exiting successfully. Buy a developer a beer!
