
    -----------------------------------------------------------------------
          Psi4: An Open-Source Ab Initio Electronic Structure Package
                               Psi4 1.4.1 release

                         Git: Rev {HEAD} cd00f19 


    D. G. A. Smith, L. A. Burns, A. C. Simmonett, R. M. Parrish,
    M. C. Schieber, R. Galvelis, P. Kraus, H. Kruse, R. Di Remigio,
    A. Alenaizan, A. M. James, S. Lehtola, J. P. Misiewicz, M. Scheurer,
    R. A. Shaw, J. B. Schriber, Y. Xie, Z. L. Glick, D. A. Sirianni,
    J. S. O'Brien, J. M. Waldrop, A. Kumar, E. G. Hohenstein,
    B. P. Pritchard, B. R. Brooks, H. F. Schaefer III, A. Yu. Sokolov,
    K. Patkowski, A. E. DePrince III, U. Bozkaya, R. A. King,
    F. A. Evangelista, J. M. Turney, T. D. Crawford, C. D. Sherrill,
    J. Chem. Phys. 152(18) 184108 (2020). https://doi.org/10.1063/5.0006002

                            Additional Code Authors
    E. T. Seidl, C. L. Janssen, E. F. Valeev, M. L. Leininger,
    J. F. Gonthier, R. M. Richard, H. R. McAlexander, M. Saitow, X. Wang,
    P. Verma, and M. H. Lechner

             Previous Authors, Complete List of Code Contributors,
                       and Citations for Specific Modules
    https://github.com/psi4/psi4/blob/master/codemeta.json
    https://github.com/psi4/psi4/graphs/contributors
    http://psicode.org/psi4manual/master/introduction.html#citing-psifour

    -----------------------------------------------------------------------


    Psi4 started on: Sunday, 07 November 2021 05:06AM

    Process ID: 16300
    Host:       compute502.bc4.acrc.priv
    PSIDATADIR: /mnt/storage/home/zw18965/.conda/envs/p4env/share/psi4
    Memory:     500.0 MiB
    Threads:    28
    
  ==> Input File <==

--------------------------------------------------------------------------
memory 120 GB

molecule {
0 1
O          0.00000        0.00000        0.64242
Cl         1.40117        0.00000       -0.32121
Cl        -1.40117        0.00000       -0.32121
 }

set dynamic_level 1
set basis Def2-TZVPPD

energy("SCAN-D3BJ")
--------------------------------------------------------------------------

  Memory set to 111.759 GiB by Python driver.

Scratch directory: /tmp/

*** tstart() called on compute502.bc4.acrc.priv
*** at Sun Nov  7 05:06:33 2021

   => Loading Basis Set <=

    Name: DEF2-TZVPPD
    Role: ORBITAL
    Keyword: BASIS
    atoms 1   entry O          line   218 file /mnt/storage/home/zw18965/.conda/envs/p4env/share/psi4/basis/def2-tzvppd.gbs 
    atoms 2-3 entry CL         line   607 file /mnt/storage/home/zw18965/.conda/envs/p4env/share/psi4/basis/def2-tzvppd.gbs 

   => SCAN-D3(BJ): Empirical Dispersion <=

    Grimme's -D3 (BJ-damping) Dispersion Correction
    Grimme S.; Ehrlich S.; Goerigk L. (2011), J. Comput. Chem., 32: 1456
    Parametrisation from:    J.G. Brandenburg, J. E. Bates, J. Sun, J.P. Perdew, Phys. Rev. B 94, 115144, 2016

        s6 =       1.000000
        s8 =       0.000000
        a1 =       0.538000
        a2 =       5.420000


         ---------------------------------------------------------
                                   SCF
               by Justin Turney, Rob Parrish, Andy Simmonett
                          and Daniel G. A. Smith
                              RKS Reference
                       28 Threads, 114440 MiB Core
         ---------------------------------------------------------

  ==> Geometry <==

    Molecular point group: c2v
    Full point group: C2v

    Geometry (in Angstrom), charge = 0, multiplicity = 1:

       Center              X                  Y                   Z               Mass       
    ------------   -----------------  -----------------  -----------------  -----------------
         O            0.000000000000    -0.000000000000     0.784266452400    15.994914619570
         CL           1.401170000000     0.000000000000    -0.179363547600    34.968852682000
         CL          -1.401170000000    -0.000000000000    -0.179363547600    34.968852682000

  Running in c2v symmetry.

  Rotational constants: A =      1.39457  B =      0.12277  C =      0.11284 [cm^-1]
  Rotational constants: A =  41808.18585  B =   3680.64693  C =   3382.83402 [MHz]
  Nuclear repulsion =  139.214158846700684

  Charge       = 0
  Multiplicity = 1
  Electrons    = 42
  Nalpha       = 21
  Nbeta        = 21

  ==> Algorithm <==

  SCF Algorithm Type is DF.
  DIIS enabled.
  MOM disabled.
  Fractional occupation disabled.
  Guess Type is SAD.
  Energy threshold   = 1.00e-06
  Density threshold  = 1.00e-06
  Integral threshold = 1.00e-12

  ==> Primary Basis <==

  Basis Set: DEF2-TZVPPD
    Blend: DEF2-TZVPPD
    Number of shells: 48
    Number of basis functions: 142
    Number of Cartesian functions: 162
    Spherical Harmonics?: true
    Max angular momentum: 3

  ==> DFT Potential <==

   => Composite Functional: SCAN-D3BJ <= 

    SCAN Meta-GGA XC Functional
(10.1103/PhysRevLett.115.036402)
    J. Sun, A. Ruzsinszky, J. P. Perdew  Phys. Rev. Lett. 115, 036402, 2015


    Deriv               =              1
    GGA                 =           TRUE
    Meta                =           TRUE

    Exchange Hybrid     =          FALSE
    MP2 Hybrid          =          FALSE

   => Exchange Functionals <=

    1.0000   XC_MGGA_X_SCAN

   => Correlation Functionals <=

    1.0000   XC_MGGA_C_SCAN

   => LibXC Density Thresholds  <==

    XC_MGGA_C_SCAN:  1.00E-15 
    XC_MGGA_X_SCAN:  1.00E-15 

   => Molecular Quadrature <=

    Radial Scheme          =       TREUTLER
    Pruning Scheme         =           NONE
    Nuclear Scheme         =       TREUTLER

    BS radius alpha        =              1
    Pruning alpha          =              1
    Radial Points          =             75
    Spherical Points       =            302
    Total Points           =          66136
    Total Blocks           =            580
    Max Points             =            256
    Max Functions          =            136
    Weights Tolerance      =       1.00E-15

   => Loading Basis Set <=

    Name: (DEF2-TZVPPD AUX)
    Role: JKFIT
    Keyword: DF_BASIS_SCF
    atoms 1   entry O          line   318 file /mnt/storage/home/zw18965/.conda/envs/p4env/share/psi4/basis/def2-universal-jkfit.gbs 
    atoms 2-3 entry CL         line   986 file /mnt/storage/home/zw18965/.conda/envs/p4env/share/psi4/basis/def2-universal-jkfit.gbs 

  ==> Integral Setup <==

  DFHelper Memory: AOs need 0.058 GiB; user supplied 83.287 GiB. Using in-core AOs.

  ==> MemDFJK: Density-Fitted J/K Matrices <==

    J tasked:                   Yes
    K tasked:                    No
    wK tasked:                   No
    OpenMP threads:              28
    Memory [MiB]:             85285
    Algorithm:                 Core
    Schwarz Cutoff:           1E-12
    Mask sparsity (%):       2.3507
    Fitting Condition:        1E-10

   => Auxiliary Basis Set <=

  Basis Set: (DEF2-TZVPPD AUX)
    Blend: DEF2-UNIVERSAL-JKFIT
    Number of shells: 101
    Number of basis functions: 333
    Number of Cartesian functions: 403
    Spherical Harmonics?: true
    Max angular momentum: 4

  Cached 100.0% of DFT collocation blocks in 0.532 [GiB].

  Minimum eigenvalue in the overlap matrix is 8.0363001160E-04.
  Reciprocal condition number of the overlap matrix is 1.3966442850E-04.
    Using symmetric orthogonalization.

  ==> Pre-Iterations <==

  SCF Guess: Superposition of Atomic Densities via on-the-fly atomic UHF (no occupation information).

   -------------------------
    Irrep   Nso     Nmo    
   -------------------------
     A1        52      52 
     A2        21      21 
     B1        43      43 
     B2        26      26 
   -------------------------
    Total     142     142
   -------------------------

  ==> Iterations <==

                           Total Energy        Delta E     RMS |[F,P]|

   @DF-RKS iter SAD:  -995.46784158616083   -9.95468e+02   0.00000e+00 
   @DF-RKS iter   1:  -995.56288258603502   -9.50410e-02   6.04741e-03 DIIS
   @DF-RKS iter   2:  -995.29359817180386    2.69284e-01   1.16800e-02 DIIS
   @DF-RKS iter   3:  -995.58742548065379   -2.93827e-01   3.83914e-03 DIIS
   @DF-RKS iter   4:  -995.61897793197159   -3.15525e-02   2.23805e-04 DIIS
   @DF-RKS iter   5:  -995.61904515159995   -6.72196e-05   8.64822e-05 DIIS
   @DF-RKS iter   6:  -995.61905856091664   -1.34093e-05   3.77657e-05 DIIS
   @DF-RKS iter   7:  -995.61906184525651   -3.28434e-06   5.60664e-06 DIIS
   @DF-RKS iter   8:  -995.61906192028346   -7.50269e-08   6.30753e-07 DIIS
  Energy and wave function converged.


  ==> Post-Iterations <==

   Electrons on quadrature grid:
      Ntotal   =   42.0000207586 ; deviation = 2.076e-05 

    Orbital Energies [Eh]
    ---------------------

    Doubly Occupied:                                                      

       1B1  -101.310492     1A1  -101.310490     2A1   -19.100630  
       2B1    -9.444899     3A1    -9.444896     4A1    -7.190744  
       3B1    -7.190743     4B1    -7.172799     5A1    -7.172797  
       1A2    -7.171679     1B2    -7.171678     6A1    -1.076487  
       5B1    -0.831980     7A1    -0.735078     6B1    -0.510746  
       8A1    -0.462721     2B2    -0.432699     2A2    -0.325362  
       9A1    -0.323888     7B1    -0.310512     3B2    -0.261708  

    Virtual:                                                              

      10A1    -0.166399     8B1    -0.098898    11A1     0.043813  
       9B1     0.044700    12A1     0.057585     4B2     0.061027  
      13A1     0.084191    10B1     0.085161     3A2     0.093336  
      14A1     0.122408     5B2     0.127288    11B1     0.143468  
       6B2     0.161687    15A1     0.167768     4A2     0.198506  
      12B1     0.205273    16A1     0.220278    13B1     0.237765  
       7B2     0.256102    17A1     0.256679    14B1     0.268233  
       5A2     0.270791    18A1     0.307885    15B1     0.313175  
      16B1     0.436568    19A1     0.437991     8B2     0.455225  
      20A1     0.469365     9B2     0.471329     6A2     0.471503  
      21A1     0.491522     7A2     0.523342    22A1     0.548024  
      17B1     0.572548    10B2     0.579008    11B2     0.585933  
       8A2     0.594105    18B1     0.604738    23A1     0.612623  
      19B1     0.640686    24A1     0.681896    20B1     0.704652  
       9A2     0.718923    25A1     0.726443    21B1     0.766547  
      12B2     0.811134    26A1     0.847735    27A1     0.943739  
      22B1     0.953307    23B1     1.199368    28A1     1.284973  
      29A1     1.563914    10A2     1.585108    13B2     1.614197  
      30A1     1.844402    31A1     1.859339    14B2     1.868909  
      24B1     1.872643    11A2     1.899854    32A1     1.904642  
      25B1     1.910183    15B2     1.925472    26B1     1.934902  
      12A2     1.941365    33A1     1.978423    27B1     1.985295  
      16B2     2.047450    17B2     2.069536    13A2     2.073680  
      34A1     2.078200    28B1     2.079774    14A2     2.100843  
      35A1     2.136824    29B1     2.227458    30B1     2.283400  
      18B2     2.300420    36A1     2.312928    15A2     2.334216  
      19B2     2.356512    37A1     2.391276    31B1     2.448625  
      32B1     2.479923    16A2     2.521697    38A1     2.689181  
      33B1     2.777486    39A1     2.823575    20B2     2.864017  
      40A1     3.125886    41A1     3.903307    34B1     4.027303  
      21B2     5.164320    42A1     5.229236    17A2     5.363750  
      22B2     5.370695    35B1     5.416328    36B1     5.489379  
      43A1     5.711264    23B2     6.467223    44A1     6.567827  
      18A2     6.576713    45A1     6.880007    37B1     7.039753  
      46A1     8.089125    24B2     8.095380    38B1     8.110047  
      19A2     8.112132    25B2     8.130787    20A2     8.132281  
      47A1     8.147497    39B1     8.189178    48A1     8.295668  
      40B1     8.366644    26B2    10.777044    21A2    10.789516  
      49A1    10.798647    41B1    10.871235    42B1    11.168943  
      50A1    11.261731    51A1    25.197626    43B1    25.372133  
      52A1    43.625175  

    Final Occupation by Irrep:
             A1    A2    B1    B2 
    DOCC [     9,    2,    7,    3 ]

  @DF-RKS Final Energy:  -995.61906192028346

   => Energetics <=

    Nuclear Repulsion Energy =            139.2141588467006841
    One-Electron Energy =               -1650.6638789456092127
    Two-Electron Energy =                 580.8935400097667525
    DFT Exchange-Correlation Energy =     -65.0625280211416595
    Empirical Dispersion Energy =          -0.0003538100000000
    VV10 Nonlocal Energy =                  0.0000000000000000
    Total Energy =                       -995.6190619202834569

Computation Completed


Properties will be evaluated at   0.000000,   0.000000,   0.000000 [a0]

Properties computed using the SCF density matrix

  Nuclear Dipole Moment: [e a0]
     X:    -0.0000      Y:    -0.0000      Z:     0.3322

  Electronic Dipole Moment: [e a0]
     X:     0.0000      Y:     0.0000      Z:    -0.5218

  Dipole Moment: [e a0]
     X:    -0.0000      Y:    -0.0000      Z:    -0.1896     Total:     0.1896

  Dipole Moment: [D]
     X:    -0.0000      Y:    -0.0000      Z:    -0.4820     Total:     0.4820


*** tstop() called on compute502.bc4.acrc.priv at Sun Nov  7 05:06:37 2021
Module time:
	user time   =      31.48 seconds =       0.52 minutes
	system time =       2.73 seconds =       0.05 minutes
	total time  =          4 seconds =       0.07 minutes
Total time:
	user time   =      31.48 seconds =       0.52 minutes
	system time =       2.73 seconds =       0.05 minutes
	total time  =          4 seconds =       0.07 minutes

    Psi4 stopped on: Sunday, 07 November 2021 05:06AM
    Psi4 wall time for execution: 0:00:04.27

*** Psi4 exiting successfully. Buy a developer a beer!
