
    -----------------------------------------------------------------------
          Psi4: An Open-Source Ab Initio Electronic Structure Package
                               Psi4 1.4.1 release

                         Git: Rev {HEAD} cd00f19 


    D. G. A. Smith, L. A. Burns, A. C. Simmonett, R. M. Parrish,
    M. C. Schieber, R. Galvelis, P. Kraus, H. Kruse, R. Di Remigio,
    A. Alenaizan, A. M. James, S. Lehtola, J. P. Misiewicz, M. Scheurer,
    R. A. Shaw, J. B. Schriber, Y. Xie, Z. L. Glick, D. A. Sirianni,
    J. S. O'Brien, J. M. Waldrop, A. Kumar, E. G. Hohenstein,
    B. P. Pritchard, B. R. Brooks, H. F. Schaefer III, A. Yu. Sokolov,
    K. Patkowski, A. E. DePrince III, U. Bozkaya, R. A. King,
    F. A. Evangelista, J. M. Turney, T. D. Crawford, C. D. Sherrill,
    J. Chem. Phys. 152(18) 184108 (2020). https://doi.org/10.1063/5.0006002

                            Additional Code Authors
    E. T. Seidl, C. L. Janssen, E. F. Valeev, M. L. Leininger,
    J. F. Gonthier, R. M. Richard, H. R. McAlexander, M. Saitow, X. Wang,
    P. Verma, and M. H. Lechner

             Previous Authors, Complete List of Code Contributors,
                       and Citations for Specific Modules
    https://github.com/psi4/psi4/blob/master/codemeta.json
    https://github.com/psi4/psi4/graphs/contributors
    http://psicode.org/psi4manual/master/introduction.html#citing-psifour

    -----------------------------------------------------------------------


    Psi4 started on: Sunday, 07 November 2021 05:06AM

    Process ID: 19936
    Host:       compute267.bc4.acrc.priv
    PSIDATADIR: /mnt/storage/home/zw18965/.conda/envs/p4env/share/psi4
    Memory:     500.0 MiB
    Threads:    28
    
  ==> Input File <==

--------------------------------------------------------------------------
memory 120 GB

molecule {
0 1
O          0.00000        0.00000        0.00000
C          0.00000        0.00000        1.12961
 }

set dynamic_level 1
set basis Def2-TZVPPD

energy("SCAN-D3BJ")
--------------------------------------------------------------------------

  Memory set to 111.759 GiB by Python driver.

Scratch directory: /tmp/

*** tstart() called on compute267.bc4.acrc.priv
*** at Sun Nov  7 05:06:26 2021

   => Loading Basis Set <=

    Name: DEF2-TZVPPD
    Role: ORBITAL
    Keyword: BASIS
    atoms 1 entry O          line   218 file /mnt/storage/home/zw18965/.conda/envs/p4env/share/psi4/basis/def2-tzvppd.gbs 
    atoms 2 entry C          line   144 file /mnt/storage/home/zw18965/.conda/envs/p4env/share/psi4/basis/def2-tzvppd.gbs 

   => SCAN-D3(BJ): Empirical Dispersion <=

    Grimme's -D3 (BJ-damping) Dispersion Correction
    Grimme S.; Ehrlich S.; Goerigk L. (2011), J. Comput. Chem., 32: 1456
    Parametrisation from:    J.G. Brandenburg, J. E. Bates, J. Sun, J.P. Perdew, Phys. Rev. B 94, 115144, 2016

        s6 =       1.000000
        s8 =       0.000000
        a1 =       0.538000
        a2 =       5.420000


         ---------------------------------------------------------
                                   SCF
               by Justin Turney, Rob Parrish, Andy Simmonett
                          and Daniel G. A. Smith
                              RKS Reference
                       28 Threads, 114440 MiB Core
         ---------------------------------------------------------

  ==> Geometry <==

    Molecular point group: c2v
    Full point group: C_inf_v

    Geometry (in Angstrom), charge = 0, multiplicity = 1:

       Center              X                  Y                   Z               Mass       
    ------------   -----------------  -----------------  -----------------  -----------------
         O            0.000000000000     0.000000000000    -0.484206513369    15.994914619570
         C            0.000000000000     0.000000000000     0.645403486631    12.000000000000

  Running in c2v symmetry.

  Rotational constants: A = ************  B =      1.92688  C =      1.92688 [cm^-1]
  Rotational constants: A = ************  B =  57766.50834  C =  57766.50834 [MHz]
  Nuclear repulsion =   22.486084677154064

  Charge       = 0
  Multiplicity = 1
  Electrons    = 14
  Nalpha       = 7
  Nbeta        = 7

  ==> Algorithm <==

  SCF Algorithm Type is DF.
  DIIS enabled.
  MOM disabled.
  Fractional occupation disabled.
  Guess Type is SAD.
  Energy threshold   = 1.00e-06
  Density threshold  = 1.00e-06
  Integral threshold = 1.00e-12

  ==> Primary Basis <==

  Basis Set: DEF2-TZVPPD
    Blend: DEF2-TZVPPD
    Number of shells: 27
    Number of basis functions: 77
    Number of Cartesian functions: 89
    Spherical Harmonics?: true
    Max angular momentum: 3

  ==> DFT Potential <==

   => Composite Functional: SCAN-D3BJ <= 

    SCAN Meta-GGA XC Functional
(10.1103/PhysRevLett.115.036402)
    J. Sun, A. Ruzsinszky, J. P. Perdew  Phys. Rev. Lett. 115, 036402, 2015


    Deriv               =              1
    GGA                 =           TRUE
    Meta                =           TRUE

    Exchange Hybrid     =          FALSE
    MP2 Hybrid          =          FALSE

   => Exchange Functionals <=

    1.0000   XC_MGGA_X_SCAN

   => Correlation Functionals <=

    1.0000   XC_MGGA_C_SCAN

   => LibXC Density Thresholds  <==

    XC_MGGA_C_SCAN:  1.00E-15 
    XC_MGGA_X_SCAN:  1.00E-15 

   => Molecular Quadrature <=

    Radial Scheme          =       TREUTLER
    Pruning Scheme         =           NONE
    Nuclear Scheme         =       TREUTLER

    BS radius alpha        =              1
    Pruning alpha          =              1
    Radial Points          =             75
    Spherical Points       =            302
    Total Points           =          44635
    Total Blocks           =            414
    Max Points             =            256
    Max Functions          =             77
    Weights Tolerance      =       1.00E-15

   => Loading Basis Set <=

    Name: (DEF2-TZVPPD AUX)
    Role: JKFIT
    Keyword: DF_BASIS_SCF
    atoms 1 entry O          line   318 file /mnt/storage/home/zw18965/.conda/envs/p4env/share/psi4/basis/def2-universal-jkfit.gbs 
    atoms 2 entry C          line   198 file /mnt/storage/home/zw18965/.conda/envs/p4env/share/psi4/basis/def2-universal-jkfit.gbs 

  ==> Integral Setup <==

  DFHelper Memory: AOs need 0.009 GiB; user supplied 83.588 GiB. Using in-core AOs.

  ==> MemDFJK: Density-Fitted J/K Matrices <==

    J tasked:                   Yes
    K tasked:                    No
    wK tasked:                   No
    OpenMP threads:              28
    Memory [MiB]:             85593
    Algorithm:                 Core
    Schwarz Cutoff:           1E-12
    Mask sparsity (%):       0.0337
    Fitting Condition:        1E-10

   => Auxiliary Basis Set <=

  Basis Set: (DEF2-TZVPPD AUX)
    Blend: DEF2-UNIVERSAL-JKFIT
    Number of shells: 50
    Number of basis functions: 152
    Number of Cartesian functions: 182
    Spherical Harmonics?: true
    Max angular momentum: 4

  Cached 100.0% of DFT collocation blocks in 0.232 [GiB].

  Minimum eigenvalue in the overlap matrix is 2.1708435403E-04.
  Reciprocal condition number of the overlap matrix is 3.7690338944E-05.
    Using symmetric orthogonalization.

  ==> Pre-Iterations <==

  SCF Guess: Superposition of Atomic Densities via on-the-fly atomic UHF (no occupation information).

   -------------------------
    Irrep   Nso     Nmo    
   -------------------------
     A1        35      35 
     A2         8       8 
     B1        17      17 
     B2        17      17 
   -------------------------
    Total      77      77
   -------------------------

  ==> Iterations <==

                           Total Energy        Delta E     RMS |[F,P]|

   @DF-RKS iter SAD:  -112.82302887402288   -1.12823e+02   0.00000e+00 
   @DF-RKS iter   1:  -113.23974462650665   -4.16716e-01   1.05014e-02 DIIS
   @DF-RKS iter   2:  -113.05557571494094    1.84169e-01   1.92501e-02 DIIS
   @DF-RKS iter   3:  -113.28327356752594   -2.27698e-01   5.85994e-03 DIIS
   @DF-RKS iter   4:  -113.31136485811062   -2.80913e-02   3.04816e-04 DIIS
   @DF-RKS iter   5:  -113.31141395277284   -4.90947e-05   4.84658e-05 DIIS
   @DF-RKS iter   6:  -113.31141471373390   -7.60961e-07   2.35149e-05 DIIS
   @DF-RKS iter   7:  -113.31141517698838   -4.63254e-07   2.39549e-06 DIIS
   @DF-RKS iter   8:  -113.31141518109627   -4.10789e-09   2.30407e-07 DIIS
  Energy and wave function converged.


  ==> Post-Iterations <==

   Electrons on quadrature grid:
      Ntotal   =   13.9999997917 ; deviation = -2.083e-07 

    Orbital Energies [Eh]
    ---------------------

    Doubly Occupied:                                                      

       1A1   -19.065410     2A1   -10.143110     3A1    -1.130862  
       4A1    -0.542565     1B1    -0.446852     1B2    -0.446852  
       5A1    -0.350459  

    Virtual:                                                              

       2B1    -0.062367     2B2    -0.062367     6A1     0.056517  
       3B1     0.091578     3B2     0.091578     7A1     0.111587  
       8A1     0.162481     9A1     0.236657     1A2     0.236684  
       4B2     0.309246     4B1     0.309246    10A1     0.309592  
       5B1     0.355651     5B2     0.355651    11A1     0.395351  
      12A1     0.432107    13A1     0.458279    14A1     0.492278  
       2A2     0.492311     6B2     0.515649     6B1     0.515649  
      15A1     0.743310    16A1     0.828435    17A1     0.845352  
       3A2     0.845439     7B2     0.848391     7B1     0.848391  
      18A1     1.040275     8B2     1.049184     8B1     1.049184  
      19A1     1.293895    20A1     1.530752     9B2     1.578511  
       9B1     1.578511    21A1     1.710658     4A2     1.710679  
      22A1     1.915639    10B2     1.948555    10B1     1.948555  
      23A1     2.323499    11B2     2.687495    11B1     2.687495  
      12B2     2.797218    12B1     2.797218     5A2     2.889096  
      24A1     2.889211    25A1     3.090976     6A2     3.091212  
      26A1     3.104801    13B2     3.222582    13B1     3.222582  
      27A1     3.233860    14B2     3.729970    14B1     3.729970  
      28A1     4.219678    29A1     4.362965    15B2     5.201351  
      15B1     5.201351     7A2     5.630660    30A1     5.630670  
      16B2     6.317018    16B1     6.317018    31A1     6.455644  
       8A2     6.455669    32A1     6.628768    17B2     6.850283  
      17B1     6.850283    33A1     7.254934    34A1    22.091872  
      35A1    43.766810  

    Final Occupation by Irrep:
             A1    A2    B1    B2 
    DOCC [     5,    0,    1,    1 ]

  @DF-RKS Final Energy:  -113.31141518109627

   => Energetics <=

    Nuclear Repulsion Energy =             22.4860846771540643
    One-Electron Energy =                -198.3328903647400523
    Two-Electron Energy =                  76.3877522082520244
    DFT Exchange-Correlation Energy =     -13.8522800317622927
    Empirical Dispersion Energy =          -0.0000816700000000
    VV10 Nonlocal Energy =                  0.0000000000000000
    Total Energy =                       -113.3114151810962653

Computation Completed


Properties will be evaluated at   0.000000,   0.000000,   0.000000 [a0]

Properties computed using the SCF density matrix

  Nuclear Dipole Moment: [e a0]
     X:     0.0000      Y:     0.0000      Z:    -0.0023

  Electronic Dipole Moment: [e a0]
     X:     0.0000      Y:     0.0000      Z:    -0.0537

  Dipole Moment: [e a0]
     X:     0.0000      Y:     0.0000      Z:    -0.0560     Total:     0.0560

  Dipole Moment: [D]
     X:     0.0000      Y:     0.0000      Z:    -0.1424     Total:     0.1424


*** tstop() called on compute267.bc4.acrc.priv at Sun Nov  7 05:06:28 2021
Module time:
	user time   =      21.09 seconds =       0.35 minutes
	system time =       1.71 seconds =       0.03 minutes
	total time  =          2 seconds =       0.03 minutes
Total time:
	user time   =      21.09 seconds =       0.35 minutes
	system time =       1.71 seconds =       0.03 minutes
	total time  =          2 seconds =       0.03 minutes

    Psi4 stopped on: Sunday, 07 November 2021 05:06AM
    Psi4 wall time for execution: 0:00:02.58

*** Psi4 exiting successfully. Buy a developer a beer!
