
    -----------------------------------------------------------------------
          Psi4: An Open-Source Ab Initio Electronic Structure Package
                               Psi4 1.4.1 release

                         Git: Rev {HEAD} cd00f19 


    D. G. A. Smith, L. A. Burns, A. C. Simmonett, R. M. Parrish,
    M. C. Schieber, R. Galvelis, P. Kraus, H. Kruse, R. Di Remigio,
    A. Alenaizan, A. M. James, S. Lehtola, J. P. Misiewicz, M. Scheurer,
    R. A. Shaw, J. B. Schriber, Y. Xie, Z. L. Glick, D. A. Sirianni,
    J. S. O'Brien, J. M. Waldrop, A. Kumar, E. G. Hohenstein,
    B. P. Pritchard, B. R. Brooks, H. F. Schaefer III, A. Yu. Sokolov,
    K. Patkowski, A. E. DePrince III, U. Bozkaya, R. A. King,
    F. A. Evangelista, J. M. Turney, T. D. Crawford, C. D. Sherrill,
    J. Chem. Phys. 152(18) 184108 (2020). https://doi.org/10.1063/5.0006002

                            Additional Code Authors
    E. T. Seidl, C. L. Janssen, E. F. Valeev, M. L. Leininger,
    J. F. Gonthier, R. M. Richard, H. R. McAlexander, M. Saitow, X. Wang,
    P. Verma, and M. H. Lechner

             Previous Authors, Complete List of Code Contributors,
                       and Citations for Specific Modules
    https://github.com/psi4/psi4/blob/master/codemeta.json
    https://github.com/psi4/psi4/graphs/contributors
    http://psicode.org/psi4manual/master/introduction.html#citing-psifour

    -----------------------------------------------------------------------


    Psi4 started on: Sunday, 07 November 2021 05:05AM

    Process ID: 18595
    Host:       compute428.bc4.acrc.priv
    PSIDATADIR: /mnt/storage/home/zw18965/.conda/envs/p4env/share/psi4
    Memory:     500.0 MiB
    Threads:    28
    
  ==> Input File <==

--------------------------------------------------------------------------
memory 120 GB

molecule {
0 7
Cr         0.00000        0.00000        0.00000
 }

set reference uks
set dynamic_level 1
set basis Def2-TZVPPD

energy("SCAN-D3BJ")
--------------------------------------------------------------------------

  Memory set to 111.759 GiB by Python driver.

Scratch directory: /tmp/

*** tstart() called on compute428.bc4.acrc.priv
*** at Sun Nov  7 05:05:21 2021

   => Loading Basis Set <=

    Name: DEF2-TZVPPD
    Role: ORBITAL
    Keyword: BASIS
    atoms 1 entry CR         line   985 file /mnt/storage/home/zw18965/.conda/envs/p4env/share/psi4/basis/def2-tzvppd.gbs 

   => SCAN-D3(BJ): Empirical Dispersion <=

    Grimme's -D3 (BJ-damping) Dispersion Correction
    Grimme S.; Ehrlich S.; Goerigk L. (2011), J. Comput. Chem., 32: 1456
    Parametrisation from:    J.G. Brandenburg, J. E. Bates, J. Sun, J.P. Perdew, Phys. Rev. B 94, 115144, 2016

        s6 =       1.000000
        s8 =       0.000000
        a1 =       0.538000
        a2 =       5.420000


         ---------------------------------------------------------
                                   SCF
               by Justin Turney, Rob Parrish, Andy Simmonett
                          and Daniel G. A. Smith
                              UKS Reference
                       28 Threads, 114440 MiB Core
         ---------------------------------------------------------

  ==> Geometry <==

    Molecular point group: d2h
    Geometry (in Angstrom), charge = 0, multiplicity = 7:

       Center              X                  Y                   Z               Mass       
    ------------   -----------------  -----------------  -----------------  -----------------
         CR           0.000000000000     0.000000000000     0.000000000000    51.940506230000

  Running in d2h symmetry.

  Rotational constants: A = ************  B = ************  C = ************ [cm^-1]
  Rotational constants: A = ************  B = ************  C = ************ [MHz]
  Nuclear repulsion =    0.000000000000000

  Charge       = 0
  Multiplicity = 7
  Electrons    = 24
  Nalpha       = 15
  Nbeta        = 9

  ==> Algorithm <==

  SCF Algorithm Type is DF.
  DIIS enabled.
  MOM disabled.
  Fractional occupation disabled.
  Guess Type is CORE.
  Energy threshold   = 1.00e-06
  Density threshold  = 1.00e-06
  Integral threshold = 1.00e-12

  ==> Primary Basis <==

  Basis Set: DEF2-TZVPPD
    Blend: DEF2-TZVPPD
    Number of shells: 19
    Number of basis functions: 67
    Number of Cartesian functions: 83
    Spherical Harmonics?: true
    Max angular momentum: 4

  ==> DFT Potential <==

   => Composite Functional: SCAN-D3BJ <= 

    SCAN Meta-GGA XC Functional
(10.1103/PhysRevLett.115.036402)
    J. Sun, A. Ruzsinszky, J. P. Perdew  Phys. Rev. Lett. 115, 036402, 2015


    Deriv               =              1
    GGA                 =           TRUE
    Meta                =           TRUE

    Exchange Hybrid     =          FALSE
    MP2 Hybrid          =          FALSE

   => Exchange Functionals <=

    1.0000   XC_MGGA_X_SCAN

   => Correlation Functionals <=

    1.0000   XC_MGGA_C_SCAN

   => LibXC Density Thresholds  <==

    XC_MGGA_C_SCAN:  1.00E-15 
    XC_MGGA_X_SCAN:  1.00E-15 

   => Molecular Quadrature <=

    Radial Scheme          =       TREUTLER
    Pruning Scheme         =           NONE
    Nuclear Scheme         =       TREUTLER

    BS radius alpha        =              1
    Pruning alpha          =              1
    Radial Points          =             75
    Spherical Points       =            302
    Total Points           =          21738
    Total Blocks           =            247
    Max Points             =            245
    Max Functions          =             67
    Weights Tolerance      =       1.00E-15

   => Loading Basis Set <=

    Name: (DEF2-TZVPPD AUX)
    Role: JKFIT
    Keyword: DF_BASIS_SCF
    atoms 1 entry CR         line  1726 file /mnt/storage/home/zw18965/.conda/envs/p4env/share/psi4/basis/def2-universal-jkfit.gbs 

  ==> Integral Setup <==

  DFHelper Memory: AOs need 0.012 GiB; user supplied 83.729 GiB. Using in-core AOs.

  ==> MemDFJK: Density-Fitted J/K Matrices <==

    J tasked:                   Yes
    K tasked:                    No
    wK tasked:                   No
    OpenMP threads:              28
    Memory [MiB]:             85738
    Algorithm:                 Core
    Schwarz Cutoff:           1E-12
    Mask sparsity (%):       0.0000
    Fitting Condition:        1E-10

   => Auxiliary Basis Set <=

  Basis Set: (DEF2-TZVPPD AUX)
    Blend: DEF2-UNIVERSAL-JKFIT
    Number of shells: 58
    Number of basis functions: 264
    Number of Cartesian functions: 377
    Spherical Harmonics?: true
    Max angular momentum: 6

  Cached 100.0% of DFT collocation blocks in 0.090 [GiB].

  Minimum eigenvalue in the overlap matrix is 4.1662433519E-02.
  Reciprocal condition number of the overlap matrix is 1.4972218160E-02.
    Using symmetric orthogonalization.

  ==> Pre-Iterations <==

  SCF Guess: Core (One-Electron) Hamiltonian.

   -------------------------------------------------------
    Irrep   Nso     Nmo     Nalpha   Nbeta   Ndocc  Nsocc
   -------------------------------------------------------
     Ag        17      17       5       3       3       2
     B1g        6       6       1       0       0       1
     B2g        6       6       1       0       0       1
     B3g        6       6       1       0       0       1
     Au         2       2       0       0       0       0
     B1u       10      10       3       2       2       1
     B2u       10      10       2       2       2       0
     B3u       10      10       2       2       2       0
   -------------------------------------------------------
    Total      67      67      15       9       9       6
   -------------------------------------------------------

  ==> Iterations <==

                           Total Energy        Delta E     RMS |[F,P]|

    Occupation by irrep:
             Ag   B1g   B2g   B3g    Au   B1u   B2u   B3u 
    DOCC [     3,    0,    0,    0,    0,    2,    2,    2 ]
    SOCC [     2,    1,    0,    0,    0,    1,    1,    1 ]

   @DF-UKS iter   1: -1022.35469327207306   -1.02235e+03   2.18853e-01 DIIS
    Occupation by irrep:
             Ag   B1g   B2g   B3g    Au   B1u   B2u   B3u 
    DOCC [     3,    0,    0,    0,    0,    2,    2,    2 ]
    SOCC [     3,    1,    1,    1,    0,    0,    0,    0 ]

   @DF-UKS iter   2:  -998.38385886149831    2.39708e+01   2.88202e-01 DIIS
    Occupation by irrep:
             Ag   B1g   B2g   B3g    Au   B1u   B2u   B3u 
    DOCC [     3,    0,    0,    0,    0,    2,    2,    2 ]
    SOCC [     2,    0,    1,    0,    0,    1,    1,    1 ]

   @DF-UKS iter   3: -1044.11511953599666   -4.57313e+01   3.39254e-02 DIIS
    Occupation by irrep:
             Ag   B1g   B2g   B3g    Au   B1u   B2u   B3u 
    DOCC [     3,    0,    0,    0,    0,    2,    2,    2 ]
    SOCC [     3,    1,    1,    1,    0,    0,    0,    0 ]

   @DF-UKS iter   4: -1041.95702572216214    2.15809e+00   7.43271e-02 DIIS
   @DF-UKS iter   5: -1044.50918245392222   -2.55216e+00   9.28795e-03 DIIS
   @DF-UKS iter   6: -1044.53913510566372   -2.99527e-02   2.19374e-03 DIIS
   @DF-UKS iter   7: -1044.53953021532016   -3.95110e-04   1.58872e-03 DIIS
   @DF-UKS iter   8: -1044.54001349991540   -4.83285e-04   5.84489e-04 DIIS
   @DF-UKS iter   9: -1044.54009356092502   -8.00610e-05   3.70040e-05 DIIS
   @DF-UKS iter  10: -1044.54009398419134   -4.23266e-07   1.41128e-06 DIIS
   @DF-UKS iter  11: -1044.54009398559720   -1.40585e-09   5.77560e-07 DIIS
  Energy and wave function converged.


  ==> Post-Iterations <==

   Electrons on quadrature grid:
      Nalpha   =   15.0000001123 ; deviation = 1.123e-07
      Nbeta    =    9.0000001122 ; deviation = 1.122e-07
      Ntotal   =   24.0000002246 ; deviation = 2.246e-07 

   @Spin Contamination Metric:   1.823303203E-04
   @S^2 Expected:                1.200000000E+01
   @S^2 Observed:                1.200018233E+01
   @S   Expected:                3.000000000E+00
   @S   Observed:                3.000000000E+00

    Orbital Energies [Eh]
    ---------------------

    Alpha Occupied:                                                       

       1Ag  -215.293065     2Ag   -24.449486     1B3u  -20.722047  
       1B1u  -20.722047     1B2u  -20.722047     3Ag    -2.815341  
       2B3u   -1.761379     2B2u   -1.761379     2B1u   -1.761379  
       4Ag    -0.174469     1B1g   -0.148334     5Ag    -0.148334  
       1B2g   -0.148334     1B3g   -0.148334     6Ag    -0.148334  

    Alpha Virtual:                                                        

       3B2u   -0.039862     3B3u   -0.039862     3B1u   -0.039862  
       4B1u    0.081457     4B3u    0.081457     4B2u    0.081457  
       7Ag     0.085724     8Ag     0.111470     2B1g    0.111470  
       2B3g    0.111470     9Ag     0.111470     2B2g    0.111470  
       5B2u    0.382680     5B3u    0.382680     5B1u    0.382680  
       3B2g    0.499446    10Ag     0.499446     3B1g    0.499446  
       3B3g    0.499446    11Ag     0.499446     6B2u    1.523620  
       6B3u    1.523620     6B1u    1.523620     7B2u    1.523620  
       1Au     1.523620     7B1u    1.523620     7B3u    1.523620  
       8B2u    1.799766     8B3u    1.799766     8B1u    1.799766  
      12Ag     1.939888     4B2g    2.075479     4B1g    2.075479  
      13Ag     2.075479     4B3g    2.075479    14Ag     2.075479  
       5B1g    5.680080    15Ag     5.680080     5B3g    5.680080  
       5B2g    5.680080    16Ag     5.680080     6B1g    5.680080  
       6B2g    5.680080     6B3g    5.680080    17Ag     5.680080  
       9B1u    6.249106     9B2u    6.249106     9B3u    6.249106  
       2Au     6.249106    10B3u    6.249106    10B1u    6.249106  
      10B2u    6.249106  

    Beta Occupied:                                                        

       1Ag  -215.291829     2Ag   -24.415522     1B3u  -20.680728  
       1B2u  -20.680728     1B1u  -20.680728     3Ag    -2.602462  
       2B3u   -1.547617     2B1u   -1.547617     2B2u   -1.547617  

    Beta Virtual:                                                         

       4Ag    -0.029048     3B2u    0.026813     3B3u    0.026813  
       3B1u    0.026813     5Ag     0.058459     1B2g    0.058459  
       1B1g    0.058459     1B3g    0.058459     6Ag     0.058459  
       4B2u    0.133137     4B3u    0.133137     4B1u    0.133137  
       7Ag     0.146587     2B1g    0.146587     2B3g    0.146587  
       2B2g    0.146587     8Ag     0.146587     9Ag     0.161426  
       5B1u    0.507573     5B3u    0.507573     5B2u    0.507573  
      10Ag     0.608637     3B3g    0.608637     3B2g    0.608637  
       3B1g    0.608637    11Ag     0.608637     6B3u    1.762812  
       6B1u    1.762812     1Au     1.762812     6B2u    1.762812  
       7B3u    1.762812     7B1u    1.762812     7B2u    1.762812  
       8B1u    1.954699     8B3u    1.954699     8B2u    1.954699  
      12Ag     2.093740     4B2g    2.296141    13Ag     2.296141  
       4B1g    2.296141    14Ag     2.296141     4B3g    2.296141  
      15Ag     5.963379     5B2g    5.963379     5B1g    5.963379  
       5B3g    5.963379    16Ag     5.963379     6B2g    5.963379  
       6B1g    5.963379    17Ag     5.963379     6B3g    5.963379  
       9B3u    6.511335     9B1u    6.511335     9B2u    6.511335  
      10B3u    6.511335     2Au     6.511335    10B2u    6.511335  
      10B1u    6.511335  

    Final Occupation by Irrep:
             Ag   B1g   B2g   B3g    Au   B1u   B2u   B3u 
    DOCC [     3,    0,    0,    0,    0,    2,    2,    2 ]
    SOCC [     3,    1,    1,    1,    0,    0,    0,    0 ]

  @DF-UKS Final Energy: -1044.54009398559720

   => Energetics <=

    Nuclear Repulsion Energy =              0.0000000000000000
    One-Electron Energy =               -1438.7523896247557786
    Two-Electron Energy =                 443.0993144000259463
    DFT Exchange-Correlation Energy =     -48.8870187608675337
    Empirical Dispersion Energy =           0.0000000000000000
    VV10 Nonlocal Energy =                  0.0000000000000000
    Total Energy =                      -1044.5400939855974229

  UHF NO Occupations:
  HONO-2 :    1B3g 1.0000000
  HONO-1 :    6 Ag 1.0000000
  HONO-0 :    1B2g 1.0000000
  LUNO+0 :    3B1u 0.0000243
  LUNO+1 :    3B3u 0.0000243
  LUNO+2 :    3B2u 0.0000243
  LUNO+3 :    7 Ag 0.0000182


Computation Completed


Properties will be evaluated at   0.000000,   0.000000,   0.000000 [a0]

Properties computed using the SCF density matrix

  Nuclear Dipole Moment: [e a0]
     X:     0.0000      Y:     0.0000      Z:     0.0000

  Electronic Dipole Moment: [e a0]
     X:     0.0000      Y:     0.0000      Z:     0.0000

  Dipole Moment: [e a0]
     X:     0.0000      Y:     0.0000      Z:     0.0000     Total:     0.0000

  Dipole Moment: [D]
     X:     0.0000      Y:     0.0000      Z:     0.0000     Total:     0.0000


*** tstop() called on compute428.bc4.acrc.priv at Sun Nov  7 05:05:25 2021
Module time:
	user time   =      71.15 seconds =       1.19 minutes
	system time =       2.77 seconds =       0.05 minutes
	total time  =          4 seconds =       0.07 minutes
Total time:
	user time   =      71.15 seconds =       1.19 minutes
	system time =       2.77 seconds =       0.05 minutes
	total time  =          4 seconds =       0.07 minutes

    Psi4 stopped on: Sunday, 07 November 2021 05:05AM
    Psi4 wall time for execution: 0:00:04.32

*** Psi4 exiting successfully. Buy a developer a beer!
