
    -----------------------------------------------------------------------
          Psi4: An Open-Source Ab Initio Electronic Structure Package
                               Psi4 1.4.1 release

                         Git: Rev {HEAD} cd00f19 


    D. G. A. Smith, L. A. Burns, A. C. Simmonett, R. M. Parrish,
    M. C. Schieber, R. Galvelis, P. Kraus, H. Kruse, R. Di Remigio,
    A. Alenaizan, A. M. James, S. Lehtola, J. P. Misiewicz, M. Scheurer,
    R. A. Shaw, J. B. Schriber, Y. Xie, Z. L. Glick, D. A. Sirianni,
    J. S. O'Brien, J. M. Waldrop, A. Kumar, E. G. Hohenstein,
    B. P. Pritchard, B. R. Brooks, H. F. Schaefer III, A. Yu. Sokolov,
    K. Patkowski, A. E. DePrince III, U. Bozkaya, R. A. King,
    F. A. Evangelista, J. M. Turney, T. D. Crawford, C. D. Sherrill,
    J. Chem. Phys. 152(18) 184108 (2020). https://doi.org/10.1063/5.0006002

                            Additional Code Authors
    E. T. Seidl, C. L. Janssen, E. F. Valeev, M. L. Leininger,
    J. F. Gonthier, R. M. Richard, H. R. McAlexander, M. Saitow, X. Wang,
    P. Verma, and M. H. Lechner

             Previous Authors, Complete List of Code Contributors,
                       and Citations for Specific Modules
    https://github.com/psi4/psi4/blob/master/codemeta.json
    https://github.com/psi4/psi4/graphs/contributors
    http://psicode.org/psi4manual/master/introduction.html#citing-psifour

    -----------------------------------------------------------------------


    Psi4 started on: Sunday, 07 November 2021 05:06AM

    Process ID: 2364
    Host:       compute348.bc4.acrc.priv
    PSIDATADIR: /mnt/storage/home/zw18965/.conda/envs/p4env/share/psi4
    Memory:     500.0 MiB
    Threads:    28
    
  ==> Input File <==

--------------------------------------------------------------------------
memory 120 GB

molecule {
0 1
Fe        -0.20173       -0.07205       -0.00000
C          1.72826       -0.07205        0.00000
O          2.84367       -0.07205        0.00000
C         -0.20170       -0.07205       -1.93000
O         -0.20173       -0.07205       -3.04540
C         -0.20170       -0.07205        1.93000
O         -0.20173       -0.07205        3.04540
C         -1.16675       -1.74347        0.00000
O         -1.72443       -2.70944        0.00000
C         -1.16675        1.59938        0.00000
O         -1.72443        2.56535        0.00000
 }

set dynamic_level 1
set basis Def2-TZVPPD

energy("SCAN-D3BJ")
--------------------------------------------------------------------------

  Memory set to 111.759 GiB by Python driver.

Scratch directory: /tmp/

*** tstart() called on compute348.bc4.acrc.priv
*** at Sun Nov  7 05:06:26 2021

   => Loading Basis Set <=

    Name: DEF2-TZVPPD
    Role: ORBITAL
    Keyword: BASIS
    atoms 1              entry FE         line  1107 file /mnt/storage/home/zw18965/.conda/envs/p4env/share/psi4/basis/def2-tzvppd.gbs 
    atoms 2, 4, 6, 8, 10 entry C          line   144 file /mnt/storage/home/zw18965/.conda/envs/p4env/share/psi4/basis/def2-tzvppd.gbs 
    atoms 3, 5, 7, 9, 11 entry O          line   218 file /mnt/storage/home/zw18965/.conda/envs/p4env/share/psi4/basis/def2-tzvppd.gbs 

   => SCAN-D3(BJ): Empirical Dispersion <=

    Grimme's -D3 (BJ-damping) Dispersion Correction
    Grimme S.; Ehrlich S.; Goerigk L. (2011), J. Comput. Chem., 32: 1456
    Parametrisation from:    J.G. Brandenburg, J. E. Bates, J. Sun, J.P. Perdew, Phys. Rev. B 94, 115144, 2016

        s6 =       1.000000
        s8 =       0.000000
        a1 =       0.538000
        a2 =       5.420000


         ---------------------------------------------------------
                                   SCF
               by Justin Turney, Rob Parrish, Andy Simmonett
                          and Daniel G. A. Smith
                              RKS Reference
                       28 Threads, 114440 MiB Core
         ---------------------------------------------------------

  ==> Geometry <==

    Molecular point group: cs
    Full point group: Cs

    Geometry (in Angstrom), charge = 0, multiplicity = 1:

       Center              X                  Y                   Z               Mass       
    ------------   -----------------  -----------------  -----------------  -----------------
         FE          -0.000000612528    -0.000001428972     0.000000000000    55.934936330000
         C            1.929989387472    -0.000001428972     0.000000000000    12.000000000000
         O            3.045399387472    -0.000001428972     0.000000000000    15.994914619570
         C            0.000029387472    -0.000001428972    -1.930000000000    12.000000000000
         O           -0.000000612528    -0.000001428972    -3.045400000000    15.994914619570
         C            0.000029387472    -0.000001428972     1.930000000000    12.000000000000
         O           -0.000000612528    -0.000001428972     3.045400000000    15.994914619570
         C           -0.965020612528    -1.671421428972     0.000000000000    12.000000000000
         O           -1.522700612528    -2.637391428972     0.000000000000    15.994914619570
         C           -0.965020612528     1.671428571028     0.000000000000    12.000000000000
         O           -1.522700612528     2.637398571028     0.000000000000    15.994914619570

  Running in cs symmetry.

  Rotational constants: A =      0.02911  B =      0.02495  C =      0.02495 [cm^-1]
  Rotational constants: A =    872.65301  B =    747.98907  C =    747.98804 [MHz]
  Nuclear repulsion =  774.181580031195608

  Charge       = 0
  Multiplicity = 1
  Electrons    = 96
  Nalpha       = 48
  Nbeta        = 48

  ==> Algorithm <==

  SCF Algorithm Type is DF.
  DIIS enabled.
  MOM disabled.
  Fractional occupation disabled.
  Guess Type is SAD.
  Energy threshold   = 1.00e-06
  Density threshold  = 1.00e-06
  Integral threshold = 1.00e-12

  ==> Primary Basis <==

  Basis Set: DEF2-TZVPPD
    Blend: DEF2-TZVPPD
    Number of shells: 154
    Number of basis functions: 452
    Number of Cartesian functions: 528
    Spherical Harmonics?: true
    Max angular momentum: 4

  ==> DFT Potential <==

   => Composite Functional: SCAN-D3BJ <= 

    SCAN Meta-GGA XC Functional
(10.1103/PhysRevLett.115.036402)
    J. Sun, A. Ruzsinszky, J. P. Perdew  Phys. Rev. Lett. 115, 036402, 2015


    Deriv               =              1
    GGA                 =           TRUE
    Meta                =           TRUE

    Exchange Hybrid     =          FALSE
    MP2 Hybrid          =          FALSE

   => Exchange Functionals <=

    1.0000   XC_MGGA_X_SCAN

   => Correlation Functionals <=

    1.0000   XC_MGGA_C_SCAN

   => LibXC Density Thresholds  <==

    XC_MGGA_C_SCAN:  1.00E-15 
    XC_MGGA_X_SCAN:  1.00E-15 

   => Molecular Quadrature <=

    Radial Scheme          =       TREUTLER
    Pruning Scheme         =           NONE
    Nuclear Scheme         =       TREUTLER

    BS radius alpha        =              1
    Pruning alpha          =              1
    Radial Points          =             75
    Spherical Points       =            302
    Total Points           =         236051
    Total Blocks           =           1857
    Max Points             =            256
    Max Functions          =            385
    Weights Tolerance      =       1.00E-15

   => Loading Basis Set <=

    Name: (DEF2-TZVPPD AUX)
    Role: JKFIT
    Keyword: DF_BASIS_SCF
    atoms 1              entry FE         line  1978 file /mnt/storage/home/zw18965/.conda/envs/p4env/share/psi4/basis/def2-universal-jkfit.gbs 
    atoms 2, 4, 6, 8, 10 entry C          line   198 file /mnt/storage/home/zw18965/.conda/envs/p4env/share/psi4/basis/def2-universal-jkfit.gbs 
    atoms 3, 5, 7, 9, 11 entry O          line   318 file /mnt/storage/home/zw18965/.conda/envs/p4env/share/psi4/basis/def2-universal-jkfit.gbs 

  ==> Integral Setup <==

  DFHelper Memory: AOs need 1.514 GiB; user supplied 78.924 GiB. Using in-core AOs.

  ==> MemDFJK: Density-Fitted J/K Matrices <==

    J tasked:                   Yes
    K tasked:                    No
    wK tasked:                   No
    OpenMP threads:              28
    Memory [MiB]:             80818
    Algorithm:                 Core
    Schwarz Cutoff:           1E-12
    Mask sparsity (%):       9.9058
    Fitting Condition:        1E-10

   => Auxiliary Basis Set <=

  Basis Set: (DEF2-TZVPPD AUX)
    Blend: DEF2-UNIVERSAL-JKFIT
    Number of shells: 308
    Number of basis functions: 1024
    Number of Cartesian functions: 1287
    Spherical Harmonics?: true
    Max angular momentum: 6

  Cached 100.0% of DFT collocation blocks in 4.895 [GiB].

  Minimum eigenvalue in the overlap matrix is 5.1739541000E-06.
  Reciprocal condition number of the overlap matrix is 4.4010605148E-07.
    Using symmetric orthogonalization.

  ==> Pre-Iterations <==

  SCF Guess: Superposition of Atomic Densities via on-the-fly atomic UHF (no occupation information).

   -------------------------
    Irrep   Nso     Nmo    
   -------------------------
     A'       276     276 
     A"       176     176 
   -------------------------
    Total     452     452
   -------------------------

  ==> Iterations <==

                           Total Energy        Delta E     RMS |[F,P]|

   @DF-RKS iter SAD: -1829.06897388413017   -1.82907e+03   0.00000e+00 
   @DF-RKS iter   1: -1822.56852299788511    6.50045e+00   1.68982e-02 DIIS
   @DF-RKS iter   2: -1745.28246107207929    7.72861e+01   2.70693e-02 DIIS
    Occupation by irrep:
             Ap   App 
    DOCC [    35,   13 ]

   @DF-RKS iter   3: -1805.28405303005002   -6.00016e+01   2.45277e-02 DIIS
    Occupation by irrep:
             Ap   App 
    DOCC [    34,   14 ]

   @DF-RKS iter   4: -1817.57116329366249   -1.22871e+01   1.92480e-02 DIIS
   @DF-RKS iter   5: -1818.14287196475743   -5.71709e-01   1.94269e-02 DIIS
   @DF-RKS iter   6: -1819.67357490446329   -1.53070e+00   1.85043e-02 DIIS
   @DF-RKS iter   7: -1819.49339940042114    1.80176e-01   1.85709e-02 DIIS
   @DF-RKS iter   8: -1821.88023857929852   -2.38684e+00   1.68196e-02 DIIS
   @DF-RKS iter   9: -1822.41233772300529   -5.32099e-01   1.63728e-02 DIIS
   @DF-RKS iter  10: -1824.59938269230724   -2.18704e+00   1.45288e-02 DIIS
   @DF-RKS iter  11: -1824.52670207267556    7.26806e-02   1.45889e-02 DIIS
   @DF-RKS iter  12: -1809.32724619401142    1.51995e+01   1.88548e-02 DIIS
   @DF-RKS iter  13: -1827.12575469735748   -1.77985e+01   1.08259e-02 DIIS
   @DF-RKS iter  14: -1827.73468700174021   -6.08932e-01   1.02319e-02 DIIS
   @DF-RKS iter  15: -1828.55131641775461   -8.16629e-01   8.66910e-03 DIIS
   @DF-RKS iter  16: -1817.36529227928008    1.11860e+01   1.45158e-02 DIIS
   @DF-RKS iter  17: -1826.19098796299204   -8.82570e+00   1.29203e-02 DIIS
   @DF-RKS iter  18: -1826.00486960684202    1.86118e-01   1.31252e-02 DIIS
   @DF-RKS iter  19: -1826.74658495499989   -7.41715e-01   1.21967e-02 DIIS
   @DF-RKS iter  20: -1826.21942957758688    5.27155e-01   1.27426e-02 DIIS
   @DF-RKS iter  21: -1825.50335493772764    7.16075e-01   1.37084e-02 DIIS
   @DF-RKS iter  22: -1826.24095865912477   -7.37604e-01   1.27755e-02 DIIS
   @DF-RKS iter  23: -1826.53417002636616   -2.93211e-01   1.24041e-02 DIIS
   @DF-RKS iter  24: -1817.34868048063959    9.18549e+00   1.45023e-02 DIIS
   @DF-RKS iter  25: -1825.73060982438233   -8.38193e+00   1.33622e-02 DIIS
   @DF-RKS iter  26: -1816.98752572453782    8.74308e+00   1.45599e-02 DIIS
   @DF-RKS iter  27: -1825.86611754749265   -8.87859e+00   1.31886e-02 DIIS
   @DF-RKS iter  28: -1816.98155382208824    8.88456e+00   1.45648e-02 DIIS
   @DF-RKS iter  29: -1825.89029825106400   -8.90874e+00   1.31575e-02 DIIS
   @DF-RKS iter  30: -1816.97238323703914    8.91792e+00   1.45674e-02 DIIS
   @DF-RKS iter  31: -1825.89969245789916   -8.92731e+00   1.31463e-02 DIIS
   @DF-RKS iter  32: -1816.97010415448676    8.92959e+00   1.45682e-02 DIIS
   @DF-RKS iter  33: -1825.90330841659761   -8.93320e+00   1.31419e-02 DIIS
   @DF-RKS iter  34: -1816.96942922051539    8.93388e+00   1.45684e-02 DIIS
   @DF-RKS iter  35: -1825.90457371737125   -8.93514e+00   1.31404e-02 DIIS
   @DF-RKS iter  36: -1816.96919064566555    8.93538e+00   1.45685e-02 DIIS
   @DF-RKS iter  37: -1825.90501977969848   -8.93583e+00   1.31399e-02 DIIS
   @DF-RKS iter  38: -1816.96910859113677    8.93591e+00   1.45686e-02 DIIS
   @DF-RKS iter  39: -1825.90517643458224   -8.93607e+00   1.31397e-02 DIIS
   @DF-RKS iter  40: -1816.96908006182252    8.93610e+00   1.45686e-02 DIIS
   @DF-RKS iter  41: -1825.90523127674783   -8.93615e+00   1.31396e-02 DIIS
   @DF-RKS iter  42: -1816.96907008284506    8.93616e+00   1.45686e-02 DIIS
   @DF-RKS iter  43: -1825.90525047351844   -8.93618e+00   1.31396e-02 DIIS
   @DF-RKS iter  44: -1816.96906659290153    8.93618e+00   1.45686e-02 DIIS
   @DF-RKS iter  45: -1825.90525719202469   -8.93619e+00   1.31396e-02 DIIS
   @DF-RKS iter  46: -1816.96906537185032    8.93619e+00   1.45686e-02 DIIS
   @DF-RKS iter  47: -1825.90525954314853   -8.93619e+00   1.31396e-02 DIIS
   @DF-RKS iter  48: -1816.96906494458062    8.93619e+00   1.45686e-02 DIIS
   @DF-RKS iter  49: -1825.90526036592996   -8.93620e+00   1.31396e-02 DIIS
   @DF-RKS iter  50: -1816.96906479505378    8.93620e+00   1.45686e-02 DIIS
   @DF-RKS iter  51: -1825.90526065385620   -8.93620e+00   1.31396e-02 DIIS
   @DF-RKS iter  52: -1816.96906474272373    8.93620e+00   1.45686e-02 DIIS
   @DF-RKS iter  53: -1825.90526075464231   -8.93620e+00   1.31396e-02 DIIS
   @DF-RKS iter  54: -1816.96906472444243    8.93620e+00   1.45686e-02 DIIS
   @DF-RKS iter  55: -1825.90526078985499   -8.93620e+00   1.31396e-02 DIIS
   @DF-RKS iter  56: -1816.96906471801140    8.93620e+00   1.45686e-02 DIIS
   @DF-RKS iter  57: -1825.90526080221002   -8.93620e+00   1.31396e-02 DIIS
   @DF-RKS iter  58: -1816.96906471578541    8.93620e+00   1.45686e-02 DIIS
   @DF-RKS iter  59: -1825.90526080651625   -8.93620e+00   1.31396e-02 DIIS
   @DF-RKS iter  60: -1816.96906471499187    8.93620e+00   1.45686e-02 DIIS
   @DF-RKS iter  61: -1825.90526080802852   -8.93620e+00   1.31396e-02 DIIS
   @DF-RKS iter  62: -1816.96906471472357    8.93620e+00   1.45686e-02 DIIS
   @DF-RKS iter  63: -1825.90526080854761   -8.93620e+00   1.31396e-02 DIIS
   @DF-RKS iter  64: -1816.96906471462694    8.93620e+00   1.45686e-02 DIIS
   @DF-RKS iter  65: -1825.90526080874292   -8.93620e+00   1.31396e-02 DIIS
   @DF-RKS iter  66: -1816.96906471457896    8.93620e+00   1.45686e-02 DIIS
   @DF-RKS iter  67: -1825.90526080882364   -8.93620e+00   1.31396e-02 DIIS
   @DF-RKS iter  68: -1816.96906471457987    8.93620e+00   1.45686e-02 DIIS
   @DF-RKS iter  69: -1825.90526080884683   -8.93620e+00   1.31396e-02 DIIS
   @DF-RKS iter  70: -1816.96906471456987    8.93620e+00   1.45686e-02 DIIS
   @DF-RKS iter  71: -1825.90526080884320   -8.93620e+00   1.31396e-02 DIIS
   @DF-RKS iter  72: -1816.96906471457646    8.93620e+00   1.45686e-02 DIIS
   @DF-RKS iter  73: -1825.90526080884774   -8.93620e+00   1.31396e-02 DIIS
   @DF-RKS iter  74: -1816.96906471456964    8.93620e+00   1.45686e-02 DIIS
   @DF-RKS iter  75: -1825.90526080885365   -8.93620e+00   1.31396e-02 DIIS
   @DF-RKS iter  76: -1816.96906471458010    8.93620e+00   1.45686e-02 DIIS
   @DF-RKS iter  77: -1825.90526080885138   -8.93620e+00   1.31396e-02 DIIS
   @DF-RKS iter  78: -1816.96906471458101    8.93620e+00   1.45686e-02 DIIS
   @DF-RKS iter  79: -1825.90526080884274   -8.93620e+00   1.31396e-02 DIIS
   @DF-RKS iter  80: -1816.96906471456464    8.93620e+00   1.45686e-02 DIIS
   @DF-RKS iter  81: -1825.90526080884729   -8.93620e+00   1.31396e-02 DIIS
   @DF-RKS iter  82: -1816.96906471458647    8.93620e+00   1.45686e-02 DIIS
   @DF-RKS iter  83: -1825.90526080885684   -8.93620e+00   1.31396e-02 DIIS
   @DF-RKS iter  84: -1816.96906471458124    8.93620e+00   1.45686e-02 DIIS
   @DF-RKS iter  85: -1825.90526080885047   -8.93620e+00   1.31396e-02 DIIS
   @DF-RKS iter  86: -1816.96906471457942    8.93620e+00   1.45686e-02 DIIS
   @DF-RKS iter  87: -1825.90526080885934   -8.93620e+00   1.31396e-02 DIIS
   @DF-RKS iter  88: -1816.96906471456350    8.93620e+00   1.45686e-02 DIIS
   @DF-RKS iter  89: -1825.90526080885388   -8.93620e+00   1.31396e-02 DIIS
   @DF-RKS iter  90: -1816.96906471458601    8.93620e+00   1.45686e-02 DIIS
   @DF-RKS iter  91: -1825.90526080883910   -8.93620e+00   1.31396e-02 DIIS
   @DF-RKS iter  92: -1816.96906471457032    8.93620e+00   1.45686e-02 DIIS
   @DF-RKS iter  93: -1825.90526080885229   -8.93620e+00   1.31396e-02 DIIS
   @DF-RKS iter  94: -1816.96906471456396    8.93620e+00   1.45686e-02 DIIS
   @DF-RKS iter  95: -1825.90526080883683   -8.93620e+00   1.31396e-02 DIIS
   @DF-RKS iter  96: -1816.96906471456623    8.93620e+00   1.45686e-02 DIIS
   @DF-RKS iter  97: -1825.90526080885707   -8.93620e+00   1.31396e-02 DIIS
   @DF-RKS iter  98: -1816.96906471457510    8.93620e+00   1.45686e-02 DIIS
   @DF-RKS iter  99: -1825.90526080885684   -8.93620e+00   1.31396e-02 DIIS
   @DF-RKS iter 100: -1816.96906471457464    8.93620e+00   1.45686e-02 DIIS

PsiException: Could not converge SCF iterations in 100 iterations.

  Failed to converge.

Traceback (most recent call last):
  File "/mnt/storage/home/zw18965/.conda/envs/p4env/bin/psi4", line 333, in <module>
    exec(content)
  File "<string>", line 37, in <module>
  File "/mnt/storage/home/zw18965/.conda/envs/p4env/lib//python3.8/site-packages/psi4/driver/driver.py", line 597, in energy
    wfn = procedures['energy'][lowername](lowername, molecule=molecule, **kwargs)
  File "/mnt/storage/home/zw18965/.conda/envs/p4env/lib//python3.8/site-packages/psi4/driver/procrouting/proc.py", line 2390, in run_scf
    scf_wfn = scf_helper(name, post_scf=False, **kwargs)
  File "/mnt/storage/home/zw18965/.conda/envs/p4env/lib//python3.8/site-packages/psi4/driver/procrouting/proc.py", line 1607, in scf_helper
    e_scf = scf_wfn.compute_energy()
  File "/mnt/storage/home/zw18965/.conda/envs/p4env/lib//python3.8/site-packages/psi4/driver/procrouting/scf_proc/scf_iterator.py", line 93, in scf_compute_energy
    raise e
  File "/mnt/storage/home/zw18965/.conda/envs/p4env/lib//python3.8/site-packages/psi4/driver/procrouting/scf_proc/scf_iterator.py", line 86, in scf_compute_energy
    self.iterations()
  File "/mnt/storage/home/zw18965/.conda/envs/p4env/lib//python3.8/site-packages/psi4/driver/procrouting/scf_proc/scf_iterator.py", line 473, in scf_iterate
    raise SCFConvergenceError("""SCF iterations""", self.iteration_, self, Ediff, Dnorm)

psi4.driver.p4util.exceptions.SCFConvergenceError: Could not converge SCF iterations in 100 iterations.


Printing out the relevant lines from the Psithon --> Python processed input file:
    O         -1.72443        2.56535        0.00000
     """)
    core.IO.set_default_namespace("")
    core.set_global_option("DYNAMIC_LEVEL", 1)
    core.set_global_option("BASIS", "Def2-TZVPPD")
--> energy("SCAN-D3BJ")

!-------------------------------------------------------!
!                                                       !
!  Could not converge SCF iterations in 100 iterations. !
!                                                       !
!-------------------------------------------------------!

    Psi4 stopped on: Sunday, 07 November 2021 05:07AM
    Psi4 wall time for execution: 0:01:16.59

*** Psi4 encountered an error. Buy a developer more coffee!
*** Resources and help at github.com/psi4/psi4.
