
    -----------------------------------------------------------------------
          Psi4: An Open-Source Ab Initio Electronic Structure Package
                               Psi4 1.4.1 release

                         Git: Rev {HEAD} cd00f19 


    D. G. A. Smith, L. A. Burns, A. C. Simmonett, R. M. Parrish,
    M. C. Schieber, R. Galvelis, P. Kraus, H. Kruse, R. Di Remigio,
    A. Alenaizan, A. M. James, S. Lehtola, J. P. Misiewicz, M. Scheurer,
    R. A. Shaw, J. B. Schriber, Y. Xie, Z. L. Glick, D. A. Sirianni,
    J. S. O'Brien, J. M. Waldrop, A. Kumar, E. G. Hohenstein,
    B. P. Pritchard, B. R. Brooks, H. F. Schaefer III, A. Yu. Sokolov,
    K. Patkowski, A. E. DePrince III, U. Bozkaya, R. A. King,
    F. A. Evangelista, J. M. Turney, T. D. Crawford, C. D. Sherrill,
    J. Chem. Phys. 152(18) 184108 (2020). https://doi.org/10.1063/5.0006002

                            Additional Code Authors
    E. T. Seidl, C. L. Janssen, E. F. Valeev, M. L. Leininger,
    J. F. Gonthier, R. M. Richard, H. R. McAlexander, M. Saitow, X. Wang,
    P. Verma, and M. H. Lechner

             Previous Authors, Complete List of Code Contributors,
                       and Citations for Specific Modules
    https://github.com/psi4/psi4/blob/master/codemeta.json
    https://github.com/psi4/psi4/graphs/contributors
    http://psicode.org/psi4manual/master/introduction.html#citing-psifour

    -----------------------------------------------------------------------


    Psi4 started on: Sunday, 07 November 2021 05:06AM

    Process ID: 17192
    Host:       compute196.bc4.acrc.priv
    PSIDATADIR: /mnt/storage/home/zw18965/.conda/envs/p4env/share/psi4
    Memory:     500.0 MiB
    Threads:    28
    
  ==> Input File <==

--------------------------------------------------------------------------
memory 120 GB

molecule {
1 2
C          0.00000        0.00000        0.00000
Ni         0.00000        0.00000        1.78130
H          0.93287        0.00000       -0.58718
H         -0.93287        0.00000       -0.58718
 }

set reference uks
set dynamic_level 1
set basis Def2-TZVPPD

energy("SCAN-D3BJ")
--------------------------------------------------------------------------

  Memory set to 111.759 GiB by Python driver.

Scratch directory: /tmp/

*** tstart() called on compute196.bc4.acrc.priv
*** at Sun Nov  7 05:06:22 2021

   => Loading Basis Set <=

    Name: DEF2-TZVPPD
    Role: ORBITAL
    Keyword: BASIS
    atoms 1   entry C          line   144 file /mnt/storage/home/zw18965/.conda/envs/p4env/share/psi4/basis/def2-tzvppd.gbs 
    atoms 2   entry NI         line  1229 file /mnt/storage/home/zw18965/.conda/envs/p4env/share/psi4/basis/def2-tzvppd.gbs 
    atoms 3-4 entry H          line    14 file /mnt/storage/home/zw18965/.conda/envs/p4env/share/psi4/basis/def2-tzvppd.gbs 

   => SCAN-D3(BJ): Empirical Dispersion <=

    Grimme's -D3 (BJ-damping) Dispersion Correction
    Grimme S.; Ehrlich S.; Goerigk L. (2011), J. Comput. Chem., 32: 1456
    Parametrisation from:    J.G. Brandenburg, J. E. Bates, J. Sun, J.P. Perdew, Phys. Rev. B 94, 115144, 2016

        s6 =       1.000000
        s8 =       0.000000
        a1 =       0.538000
        a2 =       5.420000


         ---------------------------------------------------------
                                   SCF
               by Justin Turney, Rob Parrish, Andy Simmonett
                          and Daniel G. A. Smith
                              UKS Reference
                       28 Threads, 114440 MiB Core
         ---------------------------------------------------------

  ==> Geometry <==

    Molecular point group: c2v
    Full point group: C2v

    Geometry (in Angstrom), charge = 1, multiplicity = 2:

       Center              X                  Y                   Z               Mass       
    ------------   -----------------  -----------------  -----------------  -----------------
         C            0.000000000000    -0.000000000000    -1.417863361180    12.000000000000
         NI           0.000000000000    -0.000000000000     0.363436638820    57.935342410000
         H            0.932870000000     0.000000000000    -2.005043361180     1.007825032230
         H           -0.932870000000    -0.000000000000    -2.005043361180     1.007825032230

  Running in c2v symmetry.

  Rotational constants: A =      9.61035  B =      0.42271  C =      0.40490 [cm^-1]
  Rotational constants: A = 288110.97938  B =  12672.55278  C =  12138.63527 [MHz]
  Nuclear repulsion =   67.594237373608024

  Charge       = 1
  Multiplicity = 2
  Electrons    = 35
  Nalpha       = 18
  Nbeta        = 17

  ==> Algorithm <==

  SCF Algorithm Type is DF.
  DIIS enabled.
  MOM disabled.
  Fractional occupation disabled.
  Guess Type is SAD.
  Energy threshold   = 1.00e-06
  Density threshold  = 1.00e-06
  Integral threshold = 1.00e-12

  ==> Primary Basis <==

  Basis Set: DEF2-TZVPPD
    Blend: DEF2-TZVPPD
    Number of shells: 46
    Number of basis functions: 138
    Number of Cartesian functions: 162
    Spherical Harmonics?: true
    Max angular momentum: 4

  ==> DFT Potential <==

   => Composite Functional: SCAN-D3BJ <= 

    SCAN Meta-GGA XC Functional
(10.1103/PhysRevLett.115.036402)
    J. Sun, A. Ruzsinszky, J. P. Perdew  Phys. Rev. Lett. 115, 036402, 2015


    Deriv               =              1
    GGA                 =           TRUE
    Meta                =           TRUE

    Exchange Hybrid     =          FALSE
    MP2 Hybrid          =          FALSE

   => Exchange Functionals <=

    1.0000   XC_MGGA_X_SCAN

   => Correlation Functionals <=

    1.0000   XC_MGGA_C_SCAN

   => LibXC Density Thresholds  <==

    XC_MGGA_C_SCAN:  1.00E-15 
    XC_MGGA_X_SCAN:  1.00E-15 

   => Molecular Quadrature <=

    Radial Scheme          =       TREUTLER
    Pruning Scheme         =           NONE
    Nuclear Scheme         =       TREUTLER

    BS radius alpha        =              1
    Pruning alpha          =              1
    Radial Points          =             75
    Spherical Points       =            302
    Total Points           =          87682
    Total Blocks           =            727
    Max Points             =            256
    Max Functions          =            138
    Weights Tolerance      =       1.00E-15

   => Loading Basis Set <=

    Name: (DEF2-TZVPPD AUX)
    Role: JKFIT
    Keyword: DF_BASIS_SCF
    atoms 1   entry C          line   198 file /mnt/storage/home/zw18965/.conda/envs/p4env/share/psi4/basis/def2-universal-jkfit.gbs 
    atoms 2   entry NI         line  2230 file /mnt/storage/home/zw18965/.conda/envs/p4env/share/psi4/basis/def2-universal-jkfit.gbs 
    atoms 3-4 entry H          line    18 file /mnt/storage/home/zw18965/.conda/envs/p4env/share/psi4/basis/def2-universal-jkfit.gbs 

  ==> Integral Setup <==

  DFHelper Memory: AOs need 0.064 GiB; user supplied 83.117 GiB. Using in-core AOs.

  ==> MemDFJK: Density-Fitted J/K Matrices <==

    J tasked:                   Yes
    K tasked:                    No
    wK tasked:                   No
    OpenMP threads:              28
    Memory [MiB]:             85111
    Algorithm:                 Core
    Schwarz Cutoff:           1E-12
    Mask sparsity (%):       0.3466
    Fitting Condition:        1E-10

   => Auxiliary Basis Set <=

  Basis Set: (DEF2-TZVPPD AUX)
    Blend: DEF2-UNIVERSAL-JKFIT
    Number of shells: 95
    Number of basis functions: 375
    Number of Cartesian functions: 506
    Spherical Harmonics?: true
    Max angular momentum: 6

  Cached 100.0% of DFT collocation blocks in 0.702 [GiB].

  Minimum eigenvalue in the overlap matrix is 6.0929455890E-05.
  Reciprocal condition number of the overlap matrix is 8.4691277525E-06.
    Using symmetric orthogonalization.

  ==> Pre-Iterations <==

  SCF Guess: Superposition of Atomic Densities via on-the-fly atomic UHF (no occupation information).

   -------------------------
    Irrep   Nso     Nmo    
   -------------------------
     A1        56      56 
     A2        17      17 
     B1        36      36 
     B2        29      29 
   -------------------------
    Total     138     138
   -------------------------

  ==> Iterations <==

                           Total Energy        Delta E     RMS |[F,P]|

   @DF-UKS iter SAD: -1545.74965483049959   -1.54575e+03   0.00000e+00 
    Occupation by irrep:
             A1    A2    B1    B2 
    DOCC [    10,    0,    4,    3 ]
    SOCC [     0,    0,    0,    1 ]

   @DF-UKS iter   1: -1542.32892004180985    3.42073e+00   6.70147e-02 DIIS
    Occupation by irrep:
             A1    A2    B1    B2 
    DOCC [    10,    1,    3,    3 ]
    SOCC [     0,    0,    1,    0 ]

   @DF-UKS iter   2: -1502.03262324035177    4.02963e+01   1.37255e-01 DIIS
    Occupation by irrep:
             A1    A2    B1    B2 
    DOCC [    10,    0,    4,    3 ]
    SOCC [     0,    0,    1,    0 ]

   @DF-UKS iter   3: -1543.96648425681110   -4.19339e+01   2.81733e-02 DIIS
    Occupation by irrep:
             A1    A2    B1    B2 
    DOCC [     9,    0,    4,    4 ]
    SOCC [     1,    0,    0,    0 ]

   @DF-UKS iter   4: -1511.39804523414386    3.25684e+01   8.62612e-02 DIIS
    Occupation by irrep:
             A1    A2    B1    B2 
    DOCC [     9,    1,    4,    3 ]
    SOCC [     1,    0,    0,    0 ]

   @DF-UKS iter   5: -1544.17400046626744   -3.27760e+01   3.72035e-02 DIIS
    Occupation by irrep:
             A1    A2    B1    B2 
    DOCC [     9,    0,    4,    4 ]
    SOCC [     1,    0,    0,    0 ]

   @DF-UKS iter   6: -1545.39205152362683   -1.21805e+00   3.16096e-02 DIIS
    Occupation by irrep:
             A1    A2    B1    B2 
    DOCC [     9,    1,    4,    3 ]
    SOCC [     1,    0,    0,    0 ]

   @DF-UKS iter   7: -1545.55841848906675   -1.66367e-01   2.72878e-02 DIIS
   @DF-UKS iter   8: -1547.30925835550988   -1.75084e+00   5.29651e-03 DIIS
   @DF-UKS iter   9: -1547.37104296068264   -6.17846e-02   1.35066e-03 DIIS
   @DF-UKS iter  10: -1547.37387444769161   -2.83149e-03   8.66682e-04 DIIS
   @DF-UKS iter  11: -1547.37393717116902   -6.27235e-05   1.17852e-03 DIIS
   @DF-UKS iter  12: -1547.37366850417470    2.68667e-04   1.18373e-03 DIIS
   @DF-UKS iter  13: -1547.37115917836400    2.50933e-03   1.51829e-03 DIIS
   @DF-UKS iter  14: -1547.37368081665772   -2.52164e-03   1.34325e-03 DIIS
   @DF-UKS iter  15: -1547.37450505349216   -8.24237e-04   1.06655e-03 DIIS
   @DF-UKS iter  16: -1547.37453916170489   -3.41082e-05   5.91046e-04 DIIS
   @DF-UKS iter  17: -1547.37261257072350    1.92659e-03   7.71394e-04 DIIS
   @DF-UKS iter  18: -1547.37389831131941   -1.28574e-03   7.61206e-04 DIIS
   @DF-UKS iter  19: -1547.37318236681540    7.15945e-04   1.66726e-03 DIIS
   @DF-UKS iter  20: -1547.37287735276186    3.05014e-04   1.68652e-03 DIIS
   @DF-UKS iter  21: -1547.37299632425947   -1.18971e-04   1.69564e-03 DIIS
   @DF-UKS iter  22: -1547.37293576572984    6.05585e-05   1.68899e-03 DIIS
   @DF-UKS iter  23: -1547.37297765513358   -4.18894e-05   1.69310e-03 DIIS
   @DF-UKS iter  24: -1547.37295292218005    2.47330e-05   1.69026e-03 DIIS
   @DF-UKS iter  25: -1547.37296960414824   -1.66820e-05   1.69198e-03 DIIS
   @DF-UKS iter  26: -1547.37295930369692    1.03005e-05   1.69083e-03 DIIS
   @DF-UKS iter  27: -1547.37296606155542   -6.75786e-06   1.69155e-03 DIIS
   @DF-UKS iter  28: -1547.37296180033354    4.26122e-06   1.69108e-03 DIIS
   @DF-UKS iter  29: -1547.37296455832984   -2.75800e-06   1.69137e-03 DIIS
   @DF-UKS iter  30: -1547.37296280310738    1.75522e-06   1.69118e-03 DIIS
   @DF-UKS iter  31: -1547.37296393241468   -1.12931e-06   1.69130e-03 DIIS
   @DF-UKS iter  32: -1547.37296321090116    7.21514e-07   1.69123e-03 DIIS
   @DF-UKS iter  33: -1547.37296367396129   -4.63060e-07   1.69128e-03 DIIS
   @DF-UKS iter  34: -1547.37296337763382    2.96327e-07   1.69124e-03 DIIS
   @DF-UKS iter  35: -1547.37296356761726   -1.89983e-07   1.69126e-03 DIIS
   @DF-UKS iter  36: -1547.37296344595779    1.21659e-07   1.69125e-03 DIIS
   @DF-UKS iter  37: -1547.37296352392354   -7.79658e-08   1.69126e-03 DIIS
   @DF-UKS iter  38: -1547.37296347398342    4.99401e-08   1.69125e-03 DIIS
   @DF-UKS iter  39: -1547.37296350598217   -3.19988e-08   1.69126e-03 DIIS
   @DF-UKS iter  40: -1547.37296348548261    2.04996e-08   1.69126e-03 DIIS
   @DF-UKS iter  41: -1547.37296349861708   -1.31345e-08   1.69126e-03 DIIS
   @DF-UKS iter  42: -1547.37296349020380    8.41328e-09   1.69126e-03 DIIS
   @DF-UKS iter  43: -1547.37296349559347   -5.38967e-09   1.69126e-03 DIIS
   @DF-UKS iter  44: -1547.37296349214012    3.45335e-09   1.69126e-03 DIIS
   @DF-UKS iter  45: -1547.37296349435269   -2.21257e-09   1.69126e-03 DIIS
   @DF-UKS iter  46: -1547.37296349293547    1.41722e-09   1.69126e-03 DIIS
   @DF-UKS iter  47: -1547.37296349384360   -9.08130e-10   1.69126e-03 DIIS
   @DF-UKS iter  48: -1547.37296349326198    5.81622e-10   1.69126e-03 DIIS
   @DF-UKS iter  49: -1547.37296349363419   -3.72211e-10   1.69126e-03 DIIS
   @DF-UKS iter  50: -1547.37296349339613    2.38060e-10   1.69126e-03 DIIS
   @DF-UKS iter  51: -1547.37296349354756   -1.51431e-10   1.69126e-03 DIIS
   @DF-UKS iter  52: -1547.37296349345024    9.73159e-11   1.69126e-03 DIIS
   @DF-UKS iter  53: -1547.37296349351254   -6.23004e-11   1.69126e-03 DIIS
   @DF-UKS iter  54: -1547.37296349347275    3.97904e-11   1.69126e-03 DIIS
   @DF-UKS iter  55: -1547.37296349349845   -2.56932e-11   1.69126e-03 DIIS
   @DF-UKS iter  56: -1547.37296349348208    1.63709e-11   1.69126e-03 DIIS
   @DF-UKS iter  57: -1547.37296349349208   -1.00044e-11   1.69126e-03 DIIS
   @DF-UKS iter  58: -1547.37296349348526    6.82121e-12   1.69126e-03 DIIS
   @DF-UKS iter  59: -1547.37296349348981   -4.54747e-12   1.69126e-03 DIIS
   @DF-UKS iter  60: -1547.37296349348799    1.81899e-12   1.69126e-03 DIIS
   @DF-UKS iter  61: -1547.37296349348935   -1.36424e-12   1.69126e-03 DIIS
   @DF-UKS iter  62: -1547.37296349348844    9.09495e-13   1.69126e-03 DIIS
   @DF-UKS iter  63: -1547.37296349348935   -9.09495e-13   1.69126e-03 DIIS
   @DF-UKS iter  64: -1547.37296349348799    1.36424e-12   1.69126e-03 DIIS
   @DF-UKS iter  65: -1547.37296349348935   -1.36424e-12   1.69126e-03 DIIS
   @DF-UKS iter  66: -1547.37296349348799    1.36424e-12   1.69126e-03 DIIS
   @DF-UKS iter  67: -1547.37296349348844   -4.54747e-13   1.69126e-03 DIIS
   @DF-UKS iter  68: -1547.37296349348844    0.00000e+00   1.69126e-03 DIIS
   @DF-UKS iter  69: -1547.37296349348844    0.00000e+00   1.69126e-03 DIIS
   @DF-UKS iter  70: -1547.37296349348844    0.00000e+00   1.69126e-03 DIIS
   @DF-UKS iter  71: -1547.37296349348799    4.54747e-13   1.69126e-03 DIIS
   @DF-UKS iter  72: -1547.37296349348844   -4.54747e-13   1.69126e-03 DIIS
   @DF-UKS iter  73: -1547.37296349348890   -4.54747e-13   1.69126e-03 DIIS
   @DF-UKS iter  74: -1547.37296349348844    4.54747e-13   1.69126e-03 DIIS
   @DF-UKS iter  75: -1547.37296349348844    0.00000e+00   1.69126e-03 DIIS
   @DF-UKS iter  76: -1547.37296349348890   -4.54747e-13   1.69126e-03 DIIS
   @DF-UKS iter  77: -1547.37296349348844    4.54747e-13   1.69126e-03 DIIS
   @DF-UKS iter  78: -1547.37296349348935   -9.09495e-13   1.69126e-03 DIIS
   @DF-UKS iter  79: -1547.37296349348844    9.09495e-13   1.69126e-03 DIIS
   @DF-UKS iter  80: -1547.37296349348799    4.54747e-13   1.69126e-03 DIIS
   @DF-UKS iter  81: -1547.37296349348844   -4.54747e-13   1.69126e-03 DIIS
   @DF-UKS iter  82: -1547.37296349348890   -4.54747e-13   1.69126e-03 DIIS
   @DF-UKS iter  83: -1547.37296349348890    0.00000e+00   1.69126e-03 DIIS
   @DF-UKS iter  84: -1547.37296349348799    9.09495e-13   1.69126e-03 DIIS
   @DF-UKS iter  85: -1547.37296349348844   -4.54747e-13   1.69126e-03 DIIS
   @DF-UKS iter  86: -1547.37296349348844    0.00000e+00   1.69126e-03 DIIS
   @DF-UKS iter  87: -1547.37296349348867   -2.27374e-13   1.69126e-03 DIIS
   @DF-UKS iter  88: -1547.37296349348844    2.27374e-13   1.69126e-03 DIIS
   @DF-UKS iter  89: -1547.37296349348890   -4.54747e-13   1.69126e-03 DIIS
   @DF-UKS iter  90: -1547.37296349348799    9.09495e-13   1.69126e-03 DIIS
   @DF-UKS iter  91: -1547.37296349348844   -4.54747e-13   1.69126e-03 DIIS
   @DF-UKS iter  92: -1547.37296349348844    0.00000e+00   1.69126e-03 DIIS
   @DF-UKS iter  93: -1547.37296349348890   -4.54747e-13   1.69126e-03 DIIS
   @DF-UKS iter  94: -1547.37296349348935   -4.54747e-13   1.69126e-03 DIIS
   @DF-UKS iter  95: -1547.37296349348890    4.54747e-13   1.69126e-03 DIIS
   @DF-UKS iter  96: -1547.37296349348890    0.00000e+00   1.69126e-03 DIIS
   @DF-UKS iter  97: -1547.37296349348844    4.54747e-13   1.69126e-03 DIIS
   @DF-UKS iter  98: -1547.37296349348890   -4.54747e-13   1.69126e-03 DIIS
   @DF-UKS iter  99: -1547.37296349348890    0.00000e+00   1.69126e-03 DIIS
   @DF-UKS iter 100: -1547.37296349348890    0.00000e+00   1.69126e-03 DIIS

PsiException: Could not converge SCF iterations in 100 iterations.

  Failed to converge.

Traceback (most recent call last):
  File "/mnt/storage/home/zw18965/.conda/envs/p4env/bin/psi4", line 333, in <module>
    exec(content)
  File "<string>", line 31, in <module>
  File "/mnt/storage/home/zw18965/.conda/envs/p4env/lib//python3.8/site-packages/psi4/driver/driver.py", line 597, in energy
    wfn = procedures['energy'][lowername](lowername, molecule=molecule, **kwargs)
  File "/mnt/storage/home/zw18965/.conda/envs/p4env/lib//python3.8/site-packages/psi4/driver/procrouting/proc.py", line 2390, in run_scf
    scf_wfn = scf_helper(name, post_scf=False, **kwargs)
  File "/mnt/storage/home/zw18965/.conda/envs/p4env/lib//python3.8/site-packages/psi4/driver/procrouting/proc.py", line 1607, in scf_helper
    e_scf = scf_wfn.compute_energy()
  File "/mnt/storage/home/zw18965/.conda/envs/p4env/lib//python3.8/site-packages/psi4/driver/procrouting/scf_proc/scf_iterator.py", line 93, in scf_compute_energy
    raise e
  File "/mnt/storage/home/zw18965/.conda/envs/p4env/lib//python3.8/site-packages/psi4/driver/procrouting/scf_proc/scf_iterator.py", line 86, in scf_compute_energy
    self.iterations()
  File "/mnt/storage/home/zw18965/.conda/envs/p4env/lib//python3.8/site-packages/psi4/driver/procrouting/scf_proc/scf_iterator.py", line 473, in scf_iterate
    raise SCFConvergenceError("""SCF iterations""", self.iteration_, self, Ediff, Dnorm)

psi4.driver.p4util.exceptions.SCFConvergenceError: Could not converge SCF iterations in 100 iterations.


Printing out the relevant lines from the Psithon --> Python processed input file:
     """)
    core.IO.set_default_namespace("")
    core.set_global_option("REFERENCE", "uks")
    core.set_global_option("DYNAMIC_LEVEL", 1)
    core.set_global_option("BASIS", "Def2-TZVPPD")
--> energy("SCAN-D3BJ")

!-------------------------------------------------------!
!                                                       !
!  Could not converge SCF iterations in 100 iterations. !
!                                                       !
!-------------------------------------------------------!

    Psi4 stopped on: Sunday, 07 November 2021 05:08AM
    Psi4 wall time for execution: 0:01:50.00

*** Psi4 encountered an error. Buy a developer more coffee!
*** Resources and help at github.com/psi4/psi4.
