
    -----------------------------------------------------------------------
          Psi4: An Open-Source Ab Initio Electronic Structure Package
                               Psi4 1.4.1 release

                         Git: Rev {HEAD} cd00f19 


    D. G. A. Smith, L. A. Burns, A. C. Simmonett, R. M. Parrish,
    M. C. Schieber, R. Galvelis, P. Kraus, H. Kruse, R. Di Remigio,
    A. Alenaizan, A. M. James, S. Lehtola, J. P. Misiewicz, M. Scheurer,
    R. A. Shaw, J. B. Schriber, Y. Xie, Z. L. Glick, D. A. Sirianni,
    J. S. O'Brien, J. M. Waldrop, A. Kumar, E. G. Hohenstein,
    B. P. Pritchard, B. R. Brooks, H. F. Schaefer III, A. Yu. Sokolov,
    K. Patkowski, A. E. DePrince III, U. Bozkaya, R. A. King,
    F. A. Evangelista, J. M. Turney, T. D. Crawford, C. D. Sherrill,
    J. Chem. Phys. 152(18) 184108 (2020). https://doi.org/10.1063/5.0006002

                            Additional Code Authors
    E. T. Seidl, C. L. Janssen, E. F. Valeev, M. L. Leininger,
    J. F. Gonthier, R. M. Richard, H. R. McAlexander, M. Saitow, X. Wang,
    P. Verma, and M. H. Lechner

             Previous Authors, Complete List of Code Contributors,
                       and Citations for Specific Modules
    https://github.com/psi4/psi4/blob/master/codemeta.json
    https://github.com/psi4/psi4/graphs/contributors
    http://psicode.org/psi4manual/master/introduction.html#citing-psifour

    -----------------------------------------------------------------------


    Psi4 started on: Sunday, 07 November 2021 05:06AM

    Process ID: 17565
    Host:       compute139.bc4.acrc.priv
    PSIDATADIR: /mnt/storage/home/zw18965/.conda/envs/p4env/share/psi4
    Memory:     500.0 MiB
    Threads:    28
    
  ==> Input File <==

--------------------------------------------------------------------------
memory 120 GB

molecule {
0 3
O          0.00000        0.00000        0.00000
 }

set reference uks
set dynamic_level 1
set basis Def2-TZVPPD

energy("SCAN-D3BJ")
--------------------------------------------------------------------------

  Memory set to 111.759 GiB by Python driver.

Scratch directory: /tmp/

*** tstart() called on compute139.bc4.acrc.priv
*** at Sun Nov  7 05:06:23 2021

   => Loading Basis Set <=

    Name: DEF2-TZVPPD
    Role: ORBITAL
    Keyword: BASIS
    atoms 1 entry O          line   218 file /mnt/storage/home/zw18965/.conda/envs/p4env/share/psi4/basis/def2-tzvppd.gbs 

   => SCAN-D3(BJ): Empirical Dispersion <=

    Grimme's -D3 (BJ-damping) Dispersion Correction
    Grimme S.; Ehrlich S.; Goerigk L. (2011), J. Comput. Chem., 32: 1456
    Parametrisation from:    J.G. Brandenburg, J. E. Bates, J. Sun, J.P. Perdew, Phys. Rev. B 94, 115144, 2016

        s6 =       1.000000
        s8 =       0.000000
        a1 =       0.538000
        a2 =       5.420000


         ---------------------------------------------------------
                                   SCF
               by Justin Turney, Rob Parrish, Andy Simmonett
                          and Daniel G. A. Smith
                              UKS Reference
                       28 Threads, 114440 MiB Core
         ---------------------------------------------------------

  ==> Geometry <==

    Molecular point group: d2h
    Geometry (in Angstrom), charge = 0, multiplicity = 3:

       Center              X                  Y                   Z               Mass       
    ------------   -----------------  -----------------  -----------------  -----------------
         O            0.000000000000     0.000000000000     0.000000000000    15.994914619570

  Running in d2h symmetry.

  Rotational constants: A = ************  B = ************  C = ************ [cm^-1]
  Rotational constants: A = ************  B = ************  C = ************ [MHz]
  Nuclear repulsion =    0.000000000000000

  Charge       = 0
  Multiplicity = 3
  Electrons    = 8
  Nalpha       = 5
  Nbeta        = 3

  ==> Algorithm <==

  SCF Algorithm Type is DF.
  DIIS enabled.
  MOM disabled.
  Fractional occupation disabled.
  Guess Type is CORE.
  Energy threshold   = 1.00e-06
  Density threshold  = 1.00e-06
  Integral threshold = 1.00e-12

  ==> Primary Basis <==

  Basis Set: DEF2-TZVPPD
    Blend: DEF2-TZVPPD
    Number of shells: 14
    Number of basis functions: 40
    Number of Cartesian functions: 46
    Spherical Harmonics?: true
    Max angular momentum: 3

  ==> DFT Potential <==

   => Composite Functional: SCAN-D3BJ <= 

    SCAN Meta-GGA XC Functional
(10.1103/PhysRevLett.115.036402)
    J. Sun, A. Ruzsinszky, J. P. Perdew  Phys. Rev. Lett. 115, 036402, 2015


    Deriv               =              1
    GGA                 =           TRUE
    Meta                =           TRUE

    Exchange Hybrid     =          FALSE
    MP2 Hybrid          =          FALSE

   => Exchange Functionals <=

    1.0000   XC_MGGA_X_SCAN

   => Correlation Functionals <=

    1.0000   XC_MGGA_C_SCAN

   => LibXC Density Thresholds  <==

    XC_MGGA_C_SCAN:  1.00E-15 
    XC_MGGA_X_SCAN:  1.00E-15 

   => Molecular Quadrature <=

    Radial Scheme          =       TREUTLER
    Pruning Scheme         =           NONE
    Nuclear Scheme         =       TREUTLER

    BS radius alpha        =              1
    Pruning alpha          =              1
    Radial Points          =             75
    Spherical Points       =            302
    Total Points           =          22348
    Total Blocks           =            224
    Max Points             =            252
    Max Functions          =             40
    Weights Tolerance      =       1.00E-15

   => Loading Basis Set <=

    Name: (DEF2-TZVPPD AUX)
    Role: JKFIT
    Keyword: DF_BASIS_SCF
    atoms 1 entry O          line   318 file /mnt/storage/home/zw18965/.conda/envs/p4env/share/psi4/basis/def2-universal-jkfit.gbs 

  ==> Integral Setup <==

  DFHelper Memory: AOs need 0.002 GiB; user supplied 83.757 GiB. Using in-core AOs.

  ==> MemDFJK: Density-Fitted J/K Matrices <==

    J tasked:                   Yes
    K tasked:                    No
    wK tasked:                   No
    OpenMP threads:              28
    Memory [MiB]:             85767
    Algorithm:                 Core
    Schwarz Cutoff:           1E-12
    Mask sparsity (%):       0.0000
    Fitting Condition:        1E-10

   => Auxiliary Basis Set <=

  Basis Set: (DEF2-TZVPPD AUX)
    Blend: DEF2-UNIVERSAL-JKFIT
    Number of shells: 25
    Number of basis functions: 77
    Number of Cartesian functions: 93
    Spherical Harmonics?: true
    Max angular momentum: 4

  Cached 100.0% of DFT collocation blocks in 0.062 [GiB].

  Minimum eigenvalue in the overlap matrix is 1.4986248253E-02.
  Reciprocal condition number of the overlap matrix is 4.6483012928E-03.
    Using symmetric orthogonalization.

  ==> Pre-Iterations <==

  SCF Guess: Core (One-Electron) Hamiltonian.

   -------------------------------------------------------
    Irrep   Nso     Nmo     Nalpha   Nbeta   Ndocc  Nsocc
   -------------------------------------------------------
     Ag        12      12       2       2       2       0
     B1g        3       3       0       0       0       0
     B2g        3       3       0       0       0       0
     B3g        3       3       0       0       0       0
     Au         1       1       0       0       0       0
     B1u        6       6       1       0       0       1
     B2u        6       6       1       0       0       1
     B3u        6       6       1       1       1       0
   -------------------------------------------------------
    Total      40      40       5       3       3       2
   -------------------------------------------------------

  ==> Iterations <==

                           Total Energy        Delta E     RMS |[F,P]|

   @DF-UKS iter   1:   -69.37177399337796   -6.93718e+01   3.03249e-01 DIIS
   @DF-UKS iter   2:   -67.28165549095669    2.09012e+00   1.45349e-01 DIIS
   @DF-UKS iter   3:   -74.13574939229846   -6.85409e+00   9.99255e-02 DIIS
   @DF-UKS iter   4:   -75.01252832454608   -8.76779e-01   1.90452e-02 DIIS
   @DF-UKS iter   5:   -75.07050404421028   -5.79757e-02   1.23158e-03 DIIS
   @DF-UKS iter   6:   -75.07067851816589   -1.74474e-04   2.11941e-04 DIIS
   @DF-UKS iter   7:   -75.07069520456353   -1.66864e-05   3.42780e-05 DIIS
   @DF-UKS iter   8:   -75.07069588006267   -6.75499e-07   3.09284e-06 DIIS
   @DF-UKS iter   9:   -75.07069588326129   -3.19862e-09   4.03955e-07 DIIS
  Energy and wave function converged.


  ==> Post-Iterations <==

   Electrons on quadrature grid:
      Nalpha   =    5.0000000000 ; deviation = 4.375e-11
      Nbeta    =    3.0000000000 ; deviation = 4.377e-11
      Ntotal   =    8.0000000001 ; deviation = 8.751e-11 

   @Spin Contamination Metric:   5.471841234E-03
   @S^2 Expected:                2.000000000E+00
   @S^2 Observed:                2.005471841E+00
   @S   Expected:                1.000000000E+00
   @S   Observed:                1.000000000E+00

    Orbital Energies [Eh]
    ---------------------

    Alpha Occupied:                                                       

       1Ag   -19.088405     2Ag    -0.989467     1B1u   -0.426809  
       1B2u   -0.426809     1B3u   -0.341871  

    Alpha Virtual:                                                        

       3Ag     0.072613     2B2u    0.097124     2B1u    0.097124  
       2B3u    0.101364     1B3g    0.380461     4Ag     0.380463  
       1B1g    0.386006     1B2g    0.386006     5Ag     0.388654  
       3B2u    0.549611     3B1u    0.549611     3B3u    0.572551  
       6Ag     0.633204     2B3g    1.594103     7Ag     1.594112  
       2B2g    1.640802     2B1g    1.640802     8Ag     1.652484  
       4B1u    2.531308     4B2u    2.531308     4B3u    2.594303  
       9Ag     2.830487     5B2u    5.058194     5B1u    5.058194  
       1Au     5.111861     5B3u    5.111862     6B1u    5.145340  
       6B2u    5.145340     6B3u    5.158045     3B3g    6.218077  
      10Ag     6.218096     3B1g    6.294320     3B2g    6.294320  
      11Ag     6.314794    12Ag    42.981158  

    Beta Occupied:                                                        

       1Ag   -19.028859     2Ag    -0.802130     1B3u   -0.291100  

    Beta Virtual:                                                         

       1B1u   -0.204755     1B2u   -0.204755     3Ag     0.120628  
       2B2u    0.156986     2B1u    0.156986     2B3u    0.196035  
       4Ag     0.420760     1B1g    0.434794     1B2g    0.434794  
       1B3g    0.435413     5Ag     0.435768     3B1u    0.644416  
       3B2u    0.644416     3B3u    0.645312     6Ag     0.724471  
       2B1g    1.697635     2B2g    1.697635     7Ag     1.709938  
       2B3g    1.736420     8Ag     1.736871     4B3u    2.630972  
       4B1u    2.704400     4B2u    2.704400     9Ag     2.962419  
       5B3u    5.130884     6B3u    5.159026     1Au     5.161096  
       5B1u    5.175822     5B2u    5.175822     6B2u    5.224388  
       6B1u    5.224388     3B1g    6.357975     3B2g    6.357975  
      10Ag     6.389296    11Ag     6.453329     3B3g    6.456014  
      12Ag    43.020016  

    Final Occupation by Irrep:
             Ag   B1g   B2g   B3g    Au   B1u   B2u   B3u 
    DOCC [     2,    0,    0,    0,    0,    0,    0,    1 ]
    SOCC [     0,    0,    0,    0,    0,    1,    1,    0 ]

  @DF-UKS Final Energy:   -75.07069588326129

   => Energetics <=

    Nuclear Repulsion Energy =              0.0000000000000000
    One-Electron Energy =                -103.2494492320936814
    Two-Electron Energy =                  36.6380414130771612
    DFT Exchange-Correlation Energy =      -8.4592880642447810
    Empirical Dispersion Energy =           0.0000000000000000
    VV10 Nonlocal Energy =                  0.0000000000000000
    Total Energy =                        -75.0706958832612941

  UHF NO Occupations:
  HONO-2 :    2 Ag 1.9981651
  HONO-1 :    1B1u 1.0000000
  HONO-0 :    1B2u 1.0000000
  LUNO+0 :    3 Ag 0.0018349
  LUNO+1 :    2B3u 0.0009002
  LUNO+2 :    4 Ag 0.0000029
  LUNO+3 :    3B3u 0.0000000


Computation Completed


Properties will be evaluated at   0.000000,   0.000000,   0.000000 [a0]

Properties computed using the SCF density matrix

  Nuclear Dipole Moment: [e a0]
     X:     0.0000      Y:     0.0000      Z:     0.0000

  Electronic Dipole Moment: [e a0]
     X:     0.0000      Y:     0.0000      Z:     0.0000

  Dipole Moment: [e a0]
     X:     0.0000      Y:     0.0000      Z:     0.0000     Total:     0.0000

  Dipole Moment: [D]
     X:     0.0000      Y:     0.0000      Z:     0.0000     Total:     0.0000


*** tstop() called on compute139.bc4.acrc.priv at Sun Nov  7 05:06:26 2021
Module time:
	user time   =      47.35 seconds =       0.79 minutes
	system time =       1.67 seconds =       0.03 minutes
	total time  =          3 seconds =       0.05 minutes
Total time:
	user time   =      47.35 seconds =       0.79 minutes
	system time =       1.67 seconds =       0.03 minutes
	total time  =          3 seconds =       0.05 minutes

    Psi4 stopped on: Sunday, 07 November 2021 05:06AM
    Psi4 wall time for execution: 0:00:03.24

*** Psi4 exiting successfully. Buy a developer a beer!
