
    -----------------------------------------------------------------------
          Psi4: An Open-Source Ab Initio Electronic Structure Package
                               Psi4 1.4.1 release

                         Git: Rev {HEAD} cd00f19 


    D. G. A. Smith, L. A. Burns, A. C. Simmonett, R. M. Parrish,
    M. C. Schieber, R. Galvelis, P. Kraus, H. Kruse, R. Di Remigio,
    A. Alenaizan, A. M. James, S. Lehtola, J. P. Misiewicz, M. Scheurer,
    R. A. Shaw, J. B. Schriber, Y. Xie, Z. L. Glick, D. A. Sirianni,
    J. S. O'Brien, J. M. Waldrop, A. Kumar, E. G. Hohenstein,
    B. P. Pritchard, B. R. Brooks, H. F. Schaefer III, A. Yu. Sokolov,
    K. Patkowski, A. E. DePrince III, U. Bozkaya, R. A. King,
    F. A. Evangelista, J. M. Turney, T. D. Crawford, C. D. Sherrill,
    J. Chem. Phys. 152(18) 184108 (2020). https://doi.org/10.1063/5.0006002

                            Additional Code Authors
    E. T. Seidl, C. L. Janssen, E. F. Valeev, M. L. Leininger,
    J. F. Gonthier, R. M. Richard, H. R. McAlexander, M. Saitow, X. Wang,
    P. Verma, and M. H. Lechner

             Previous Authors, Complete List of Code Contributors,
                       and Citations for Specific Modules
    https://github.com/psi4/psi4/blob/master/codemeta.json
    https://github.com/psi4/psi4/graphs/contributors
    http://psicode.org/psi4manual/master/introduction.html#citing-psifour

    -----------------------------------------------------------------------


    Psi4 started on: Sunday, 07 November 2021 05:06AM

    Process ID: 23551
    Host:       compute500.bc4.acrc.priv
    PSIDATADIR: /mnt/storage/home/zw18965/.conda/envs/p4env/share/psi4
    Memory:     500.0 MiB
    Threads:    28
    
  ==> Input File <==

--------------------------------------------------------------------------
memory 120 GB

molecule {
0 1
O          0.00000        0.00000        0.00000
O          0.00000        0.00000        1.26881
O          1.12933        0.00000       -0.57836
 }

set dynamic_level 1
set basis Def2-TZVPPD

energy("SCAN-D3BJ")
--------------------------------------------------------------------------

  Memory set to 111.759 GiB by Python driver.

Scratch directory: /tmp/

*** tstart() called on compute500.bc4.acrc.priv
*** at Sun Nov  7 05:06:24 2021

   => Loading Basis Set <=

    Name: DEF2-TZVPPD
    Role: ORBITAL
    Keyword: BASIS
    atoms 1-3 entry O          line   218 file /mnt/storage/home/zw18965/.conda/envs/p4env/share/psi4/basis/def2-tzvppd.gbs 

   => SCAN-D3(BJ): Empirical Dispersion <=

    Grimme's -D3 (BJ-damping) Dispersion Correction
    Grimme S.; Ehrlich S.; Goerigk L. (2011), J. Comput. Chem., 32: 1456
    Parametrisation from:    J.G. Brandenburg, J. E. Bates, J. Sun, J.P. Perdew, Phys. Rev. B 94, 115144, 2016

        s6 =       1.000000
        s8 =       0.000000
        a1 =       0.538000
        a2 =       5.420000


         ---------------------------------------------------------
                                   SCF
               by Justin Turney, Rob Parrish, Andy Simmonett
                          and Daniel G. A. Smith
                              RKS Reference
                       28 Threads, 114440 MiB Core
         ---------------------------------------------------------

  ==> Geometry <==

    Molecular point group: cs
    Full point group: Cs

    Geometry (in Angstrom), charge = 0, multiplicity = 1:

       Center              X                  Y                   Z               Mass       
    ------------   -----------------  -----------------  -----------------  -----------------
         O            0.376443333333    -0.230150000000     0.000000000000    15.994914619570
         O            0.376443333333     1.038660000000     0.000000000000    15.994914619570
         O           -0.752886666667    -0.808510000000     0.000000000000    15.994914619570

  Running in cs symmetry.

  Rotational constants: A =      3.60915  B =      0.44969  C =      0.39987 [cm^-1]
  Rotational constants: A = 108199.63281  B =  13481.27905  C =  11987.66035 [MHz]
  Nuclear repulsion =   69.027136663518178

  Charge       = 0
  Multiplicity = 1
  Electrons    = 24
  Nalpha       = 12
  Nbeta        = 12

  ==> Algorithm <==

  SCF Algorithm Type is DF.
  DIIS enabled.
  MOM disabled.
  Fractional occupation disabled.
  Guess Type is SAD.
  Energy threshold   = 1.00e-06
  Density threshold  = 1.00e-06
  Integral threshold = 1.00e-12

  ==> Primary Basis <==

  Basis Set: DEF2-TZVPPD
    Blend: DEF2-TZVPPD
    Number of shells: 42
    Number of basis functions: 120
    Number of Cartesian functions: 138
    Spherical Harmonics?: true
    Max angular momentum: 3

  ==> DFT Potential <==

   => Composite Functional: SCAN-D3BJ <= 

    SCAN Meta-GGA XC Functional
(10.1103/PhysRevLett.115.036402)
    J. Sun, A. Ruzsinszky, J. P. Perdew  Phys. Rev. Lett. 115, 036402, 2015


    Deriv               =              1
    GGA                 =           TRUE
    Meta                =           TRUE

    Exchange Hybrid     =          FALSE
    MP2 Hybrid          =          FALSE

   => Exchange Functionals <=

    1.0000   XC_MGGA_X_SCAN

   => Correlation Functionals <=

    1.0000   XC_MGGA_C_SCAN

   => LibXC Density Thresholds  <==

    XC_MGGA_C_SCAN:  1.00E-15 
    XC_MGGA_X_SCAN:  1.00E-15 

   => Molecular Quadrature <=

    Radial Scheme          =       TREUTLER
    Pruning Scheme         =           NONE
    Nuclear Scheme         =       TREUTLER

    BS radius alpha        =              1
    Pruning alpha          =              1
    Radial Points          =             75
    Spherical Points       =            302
    Total Points           =          66681
    Total Blocks           =            559
    Max Points             =            256
    Max Functions          =            119
    Weights Tolerance      =       1.00E-15

   => Loading Basis Set <=

    Name: (DEF2-TZVPPD AUX)
    Role: JKFIT
    Keyword: DF_BASIS_SCF
    atoms 1-3 entry O          line   318 file /mnt/storage/home/zw18965/.conda/envs/p4env/share/psi4/basis/def2-universal-jkfit.gbs 

  ==> Integral Setup <==

  DFHelper Memory: AOs need 0.031 GiB; user supplied 83.308 GiB. Using in-core AOs.

  ==> MemDFJK: Density-Fitted J/K Matrices <==

    J tasked:                   Yes
    K tasked:                    No
    wK tasked:                   No
    OpenMP threads:              28
    Memory [MiB]:             85307
    Algorithm:                 Core
    Schwarz Cutoff:           1E-12
    Mask sparsity (%):       0.2222
    Fitting Condition:        1E-10

   => Auxiliary Basis Set <=

  Basis Set: (DEF2-TZVPPD AUX)
    Blend: DEF2-UNIVERSAL-JKFIT
    Number of shells: 75
    Number of basis functions: 231
    Number of Cartesian functions: 279
    Spherical Harmonics?: true
    Max angular momentum: 4

  Cached 100.0% of DFT collocation blocks in 0.511 [GiB].

  Minimum eigenvalue in the overlap matrix is 2.1333653966E-04.
  Reciprocal condition number of the overlap matrix is 3.0218422033E-05.
    Using symmetric orthogonalization.

  ==> Pre-Iterations <==

  SCF Guess: Superposition of Atomic Densities via on-the-fly atomic UHF (no occupation information).

   -------------------------
    Irrep   Nso     Nmo    
   -------------------------
     A'        81      81 
     A"        39      39 
   -------------------------
    Total     120     120
   -------------------------

  ==> Iterations <==

                           Total Energy        Delta E     RMS |[F,P]|

   @DF-RKS iter SAD:  -225.14604254986574   -2.25146e+02   0.00000e+00 
   @DF-RKS iter   1:  -225.31741148588753   -1.71369e-01   6.92684e-03 DIIS
   @DF-RKS iter   2:  -224.78684209412089    5.30569e-01   1.54834e-02 DIIS
   @DF-RKS iter   3:  -225.43719568450575   -6.50354e-01   1.37277e-03 DIIS
   @DF-RKS iter   4:  -225.44181652019034   -4.62084e-03   4.39887e-04 DIIS
   @DF-RKS iter   5:  -225.44236561718387   -5.49097e-04   6.36808e-05 DIIS
   @DF-RKS iter   6:  -225.44232661043529    3.90067e-05   1.21084e-04 DIIS
   @DF-RKS iter   7:  -225.44237045367572   -4.38432e-05   4.26028e-05 DIIS
   @DF-RKS iter   8:  -225.44237659903337   -6.14536e-06   1.22050e-06 DIIS
   @DF-RKS iter   9:  -225.44237660327434   -4.24097e-09   1.71759e-07 DIIS
  Energy and wave function converged.


  ==> Post-Iterations <==

   Electrons on quadrature grid:
      Ntotal   =   23.9999962672 ; deviation = -3.733e-06 

    Orbital Energies [Eh]
    ---------------------

    Doubly Occupied:                                                      

       1Ap   -19.257476     2Ap   -19.079630     3Ap   -19.079625  
       4Ap    -1.325658     5Ap    -1.059288     6Ap    -0.755738  
       1App   -0.567706     7Ap    -0.564753     8Ap    -0.555194  
       2App   -0.346252     9Ap    -0.312885    10Ap    -0.306783  

    Virtual:                                                              

       3App   -0.228475    11Ap     0.024171    12Ap     0.057704  
      13Ap     0.057712    14Ap     0.077270     4App    0.081729  
      15Ap     0.118994     5App    0.132186    16Ap     0.132225  
      17Ap     0.139473     6App    0.141761    18Ap     0.143750  
      19Ap     0.187306    20Ap     0.262209    21Ap     0.277421  
       7App    0.355462    22Ap     0.361718    23Ap     0.429460  
       8App    0.432161    24Ap     0.442824    25Ap     0.450364  
       9App    0.477122    10App    0.489626    26Ap     0.491348  
      27Ap     0.524453    11App    0.527756    28Ap     0.533802  
      12App    0.550396    29Ap     0.576649    30Ap     0.582887  
      13App    0.623641    31Ap     0.649480    32Ap     0.747113  
      33Ap     0.836533    34Ap     0.878934    14App    0.892793  
      15App    0.912054    35Ap     0.924695    36Ap     0.983003  
      37Ap     1.024900    38Ap     1.211055    39Ap     1.257802  
      16App    1.371175    40Ap     1.414770    17App    1.425319  
      41Ap     1.658625    42Ap     1.676710    18App    1.684524  
      19App    1.686406    43Ap     1.816596    44Ap     1.947517  
      20App    2.045976    45Ap     2.047706    21App    2.208202  
      46Ap     2.226084    47Ap     2.476955    48Ap     2.477213  
      22App    2.519171    49Ap     2.741877    50Ap     2.845519  
      23App    2.917392    51Ap     2.983926    24App    3.039625  
      52Ap     3.084219    53Ap     3.108410    54Ap     3.300066  
      55Ap     3.381498    56Ap     4.191982    57Ap     4.325146  
      25App    4.557588    26App    4.626012    58Ap     4.647807  
      59Ap     4.735962    27App    4.799105    60Ap     4.815578  
      61Ap     5.029689    28App    5.166112    62Ap     5.171793  
      29App    5.174476    63Ap     5.183854    30App    5.277973  
      64Ap     5.524068    65Ap     5.526824    31App    5.732601  
      66Ap     6.014815    32App    6.256002    33App    6.259665  
      67Ap     6.337936    68Ap     6.404979    34App    6.405098  
      35App    6.441965    69Ap     6.487442    36App    6.523331  
      70Ap     6.538764    37App    6.553798    71Ap     6.592616  
      72Ap     6.660198    73Ap     7.074462    38App    7.158839  
      39App    7.287199    74Ap     7.295831    75Ap     7.558582  
      76Ap     7.698327    77Ap     8.540427    78Ap     8.998058  
      79Ap    43.403578    80Ap    43.835235    81Ap    44.271903  

    Final Occupation by Irrep:
             Ap   App 
    DOCC [    10,    2 ]

  @DF-RKS Final Energy:  -225.44237660327434

   => Energetics <=

    Nuclear Repulsion Energy =             69.0271366635181778
    One-Electron Energy =                -446.0656260709487810
    Two-Electron Energy =                 177.0244876009077757
    DFT Exchange-Correlation Energy =     -25.4282213267515402
    Empirical Dispersion Energy =          -0.0001534700000000
    VV10 Nonlocal Energy =                  0.0000000000000000
    Total Energy =                       -225.4423766032743401

Computation Completed


Properties will be evaluated at   0.000000,   0.000000,   0.000000 [a0]

Properties computed using the SCF density matrix

  Nuclear Dipole Moment: [e a0]
     X:     0.0000      Y:     0.0000      Z:     0.0000

  Electronic Dipole Moment: [e a0]
     X:     0.2157      Y:    -0.1319      Z:     0.0000

  Dipole Moment: [e a0]
     X:     0.2157      Y:    -0.1319      Z:     0.0000     Total:     0.2529

  Dipole Moment: [D]
     X:     0.5484      Y:    -0.3353      Z:     0.0000     Total:     0.6427


*** tstop() called on compute500.bc4.acrc.priv at Sun Nov  7 05:06:27 2021
Module time:
	user time   =      29.68 seconds =       0.49 minutes
	system time =       2.57 seconds =       0.04 minutes
	total time  =          3 seconds =       0.05 minutes
Total time:
	user time   =      29.68 seconds =       0.49 minutes
	system time =       2.57 seconds =       0.04 minutes
	total time  =          3 seconds =       0.05 minutes

    Psi4 stopped on: Sunday, 07 November 2021 05:06AM
    Psi4 wall time for execution: 0:00:03.07

*** Psi4 exiting successfully. Buy a developer a beer!
