
    -----------------------------------------------------------------------
          Psi4: An Open-Source Ab Initio Electronic Structure Package
                               Psi4 1.4.1 release

                         Git: Rev {HEAD} cd00f19 


    D. G. A. Smith, L. A. Burns, A. C. Simmonett, R. M. Parrish,
    M. C. Schieber, R. Galvelis, P. Kraus, H. Kruse, R. Di Remigio,
    A. Alenaizan, A. M. James, S. Lehtola, J. P. Misiewicz, M. Scheurer,
    R. A. Shaw, J. B. Schriber, Y. Xie, Z. L. Glick, D. A. Sirianni,
    J. S. O'Brien, J. M. Waldrop, A. Kumar, E. G. Hohenstein,
    B. P. Pritchard, B. R. Brooks, H. F. Schaefer III, A. Yu. Sokolov,
    K. Patkowski, A. E. DePrince III, U. Bozkaya, R. A. King,
    F. A. Evangelista, J. M. Turney, T. D. Crawford, C. D. Sherrill,
    J. Chem. Phys. 152(18) 184108 (2020). https://doi.org/10.1063/5.0006002

                            Additional Code Authors
    E. T. Seidl, C. L. Janssen, E. F. Valeev, M. L. Leininger,
    J. F. Gonthier, R. M. Richard, H. R. McAlexander, M. Saitow, X. Wang,
    P. Verma, and M. H. Lechner

             Previous Authors, Complete List of Code Contributors,
                       and Citations for Specific Modules
    https://github.com/psi4/psi4/blob/master/codemeta.json
    https://github.com/psi4/psi4/graphs/contributors
    http://psicode.org/psi4manual/master/introduction.html#citing-psifour

    -----------------------------------------------------------------------


    Psi4 started on: Sunday, 07 November 2021 05:06AM

    Process ID: 29612
    Host:       compute276.bc4.acrc.priv
    PSIDATADIR: /mnt/storage/home/zw18965/.conda/envs/p4env/share/psi4
    Memory:     500.0 MiB
    Threads:    28
    
  ==> Input File <==

--------------------------------------------------------------------------
memory 120 GB

molecule {
0 1
S          0.00000        0.00000        0.00000
S          0.00000        0.00000        1.90634
S          2.06704        0.00000        2.44872
S          3.00303        0.00000        0.78798
 }

set dynamic_level 1
set basis Def2-TZVPPD

energy("SCAN-D3BJ")
--------------------------------------------------------------------------

  Memory set to 111.759 GiB by Python driver.

Scratch directory: /tmp/

*** tstart() called on compute276.bc4.acrc.priv
*** at Sun Nov  7 05:06:26 2021

   => Loading Basis Set <=

    Name: DEF2-TZVPPD
    Role: ORBITAL
    Keyword: BASIS
    atoms 1-4 entry S          line   558 file /mnt/storage/home/zw18965/.conda/envs/p4env/share/psi4/basis/def2-tzvppd.gbs 

   => SCAN-D3(BJ): Empirical Dispersion <=

    Grimme's -D3 (BJ-damping) Dispersion Correction
    Grimme S.; Ehrlich S.; Goerigk L. (2011), J. Comput. Chem., 32: 1456
    Parametrisation from:    J.G. Brandenburg, J. E. Bates, J. Sun, J.P. Perdew, Phys. Rev. B 94, 115144, 2016

        s6 =       1.000000
        s8 =       0.000000
        a1 =       0.538000
        a2 =       5.420000


         ---------------------------------------------------------
                                   SCF
               by Justin Turney, Rob Parrish, Andy Simmonett
                          and Daniel G. A. Smith
                              RKS Reference
                       28 Threads, 114440 MiB Core
         ---------------------------------------------------------

  ==> Geometry <==

    Molecular point group: cs
    Full point group: Cs

    Geometry (in Angstrom), charge = 0, multiplicity = 1:

       Center              X                  Y                   Z               Mass       
    ------------   -----------------  -----------------  -----------------  -----------------
         S            1.267517500000    -1.285760000000     0.000000000000    31.972071174400
         S            1.267517500000     0.620580000000     0.000000000000    31.972071174400
         S           -0.799522500000     1.162960000000     0.000000000000    31.972071174400
         S           -1.735512500000    -0.497780000000     0.000000000000    31.972071174400

  Running in cs symmetry.

  Rotational constants: A =      0.15508  B =      0.07423  C =      0.05020 [cm^-1]
  Rotational constants: A =   4649.03843  B =   2225.39286  C =   1504.98805 [MHz]
  Nuclear repulsion =  333.699844287518260

  Charge       = 0
  Multiplicity = 1
  Electrons    = 64
  Nalpha       = 32
  Nbeta        = 32

  ==> Algorithm <==

  SCF Algorithm Type is DF.
  DIIS enabled.
  MOM disabled.
  Fractional occupation disabled.
  Guess Type is SAD.
  Energy threshold   = 1.00e-06
  Density threshold  = 1.00e-06
  Integral threshold = 1.00e-12

  ==> Primary Basis <==

  Basis Set: DEF2-TZVPPD
    Blend: DEF2-TZVPPD
    Number of shells: 68
    Number of basis functions: 204
    Number of Cartesian functions: 232
    Spherical Harmonics?: true
    Max angular momentum: 3

  ==> DFT Potential <==

   => Composite Functional: SCAN-D3BJ <= 

    SCAN Meta-GGA XC Functional
(10.1103/PhysRevLett.115.036402)
    J. Sun, A. Ruzsinszky, J. P. Perdew  Phys. Rev. Lett. 115, 036402, 2015


    Deriv               =              1
    GGA                 =           TRUE
    Meta                =           TRUE

    Exchange Hybrid     =          FALSE
    MP2 Hybrid          =          FALSE

   => Exchange Functionals <=

    1.0000   XC_MGGA_X_SCAN

   => Correlation Functionals <=

    1.0000   XC_MGGA_C_SCAN

   => LibXC Density Thresholds  <==

    XC_MGGA_C_SCAN:  1.00E-15 
    XC_MGGA_X_SCAN:  1.00E-15 

   => Molecular Quadrature <=

    Radial Scheme          =       TREUTLER
    Pruning Scheme         =           NONE
    Nuclear Scheme         =       TREUTLER

    BS radius alpha        =              1
    Pruning alpha          =              1
    Radial Points          =             75
    Spherical Points       =            302
    Total Points           =          87839
    Total Blocks           =            760
    Max Points             =            256
    Max Functions          =            191
    Weights Tolerance      =       1.00E-15

   => Loading Basis Set <=

    Name: (DEF2-TZVPPD AUX)
    Role: JKFIT
    Keyword: DF_BASIS_SCF
    atoms 1-4 entry S          line   903 file /mnt/storage/home/zw18965/.conda/envs/p4env/share/psi4/basis/def2-universal-jkfit.gbs 

  ==> Integral Setup <==

  DFHelper Memory: AOs need 0.172 GiB; user supplied 82.884 GiB. Using in-core AOs.

  ==> MemDFJK: Density-Fitted J/K Matrices <==

    J tasked:                   Yes
    K tasked:                    No
    wK tasked:                   No
    OpenMP threads:              28
    Memory [MiB]:             84873
    Algorithm:                 Core
    Schwarz Cutoff:           1E-12
    Mask sparsity (%):       3.8591
    Fitting Condition:        1E-10

   => Auxiliary Basis Set <=

  Basis Set: (DEF2-TZVPPD AUX)
    Blend: DEF2-UNIVERSAL-JKFIT
    Number of shells: 152
    Number of basis functions: 512
    Number of Cartesian functions: 620
    Spherical Harmonics?: true
    Max angular momentum: 4

  Cached 100.0% of DFT collocation blocks in 0.935 [GiB].

  Minimum eigenvalue in the overlap matrix is 4.0732655797E-04.
  Reciprocal condition number of the overlap matrix is 5.5295785063E-05.
    Using symmetric orthogonalization.

  ==> Pre-Iterations <==

  SCF Guess: Superposition of Atomic Densities via on-the-fly atomic UHF (no occupation information).

   -------------------------
    Irrep   Nso     Nmo    
   -------------------------
     A'       136     136 
     A"        68      68 
   -------------------------
    Total     204     204
   -------------------------

  ==> Iterations <==

                           Total Energy        Delta E     RMS |[F,P]|

   @DF-RKS iter SAD: -1592.88245445383154   -1.59288e+03   0.00000e+00 
   @DF-RKS iter   1: -1592.83616849090640    4.62860e-02   4.42898e-03 DIIS
   @DF-RKS iter   2: -1592.49755830126560    3.38610e-01   5.86422e-03 DIIS
   @DF-RKS iter   3: -1592.62899656354534   -1.31438e-01   4.56192e-03 DIIS
   @DF-RKS iter   4: -1592.94763341175144   -3.18637e-01   7.70253e-04 DIIS
   @DF-RKS iter   5: -1592.95387715364564   -6.24374e-03   2.40129e-04 DIIS
   @DF-RKS iter   6: -1592.95445327125026   -5.76118e-04   5.84716e-05 DIIS
   @DF-RKS iter   7: -1592.95442723739939    2.60339e-05   5.71724e-05 DIIS
   @DF-RKS iter   8: -1592.95440744419102    1.97932e-05   6.46071e-05 DIIS
   @DF-RKS iter   9: -1592.95449322398736   -8.57798e-05   3.18865e-06 DIIS
   @DF-RKS iter  10: -1592.95449332866224   -1.04675e-07   5.32637e-07 DIIS
  Energy and wave function converged.


  ==> Post-Iterations <==

   Electrons on quadrature grid:
      Ntotal   =   63.9999865965 ; deviation = -1.340e-05 

    Orbital Energies [Eh]
    ---------------------

    Doubly Occupied:                                                      

       1Ap   -88.603477     2Ap   -88.603465     3Ap   -88.546694  
       4Ap   -88.546682     5Ap    -7.949896     6Ap    -7.949875  
       7Ap    -7.896182     8Ap    -7.896172     9Ap    -5.892299  
      10Ap    -5.892168     1App   -5.888456     2App   -5.888443  
      11Ap    -5.888377    12Ap    -5.888328    13Ap    -5.839983  
      14Ap    -5.839975     3App   -5.835755     4App   -5.835748  
      15Ap    -5.831645    16Ap    -5.831636    17Ap    -0.844825  
      18Ap    -0.776819    19Ap    -0.641505    20Ap    -0.549442  
      21Ap    -0.429356    22Ap    -0.394847     5App   -0.379255  
      23Ap    -0.352480     6App   -0.319458    24Ap    -0.251518  
      25Ap    -0.250269     7App   -0.229163  

    Virtual:                                                              

       8App   -0.178594    26Ap    -0.083182    27Ap    -0.073255  
      28Ap    -0.001979    29Ap     0.015452    30Ap     0.033669  
      31Ap     0.038416     9App    0.039018    32Ap     0.045729  
      33Ap     0.050023    10App    0.064267    34Ap     0.066645  
      11App    0.067570    35Ap     0.082591    12App    0.084214  
      36Ap     0.087966    13App    0.102105    37Ap     0.106987  
      14App    0.112289    38Ap     0.121647    39Ap     0.137843  
      40Ap     0.157983    41Ap     0.166832    15App    0.178961  
      42Ap     0.184370    43Ap     0.188338    16App    0.195132  
      44Ap     0.203869    17App    0.207723    45Ap     0.212331  
      46Ap     0.224714    18App    0.251780    47Ap     0.268978  
      48Ap     0.276152    49Ap     0.280734    19App    0.283438  
      50Ap     0.289344    51Ap     0.334336    20App    0.334694  
      21App    0.338930    52Ap     0.381477    53Ap     0.394538  
      22App    0.394781    54Ap     0.405244    55Ap     0.411495  
      23App    0.414972    24App    0.417592    56Ap     0.445991  
      57Ap     0.459479    58Ap     0.478855    25App    0.485106  
      26App    0.493928    27App    0.498533    59Ap     0.513178  
      28App    0.518877    60Ap     0.528289    61Ap     0.550087  
      62Ap     0.560801    63Ap     0.568237    29App    0.577108  
      64Ap     0.595474    65Ap     0.600296    30App    0.603810  
      31App    0.628479    66Ap     0.643041    67Ap     0.648822  
      32App    0.651764    68Ap     0.696991    69Ap     0.725043  
      70Ap     0.731432    71Ap     0.766702    72Ap     0.774522  
      73Ap     0.857351    74Ap     1.068031    75Ap     1.114576  
      76Ap     1.259020    33App    1.345460    77Ap     1.351364  
      78Ap     1.416723    34App    1.441325    79Ap     1.449266  
      35App    1.491660    36App    1.492170    80Ap     1.502261  
      81Ap     1.528358    37App    1.538021    82Ap     1.541734  
      38App    1.562239    83Ap     1.565846    84Ap     1.585792  
      39App    1.601296    85Ap     1.603793    40App    1.604754  
      41App    1.605478    86Ap     1.635756    87Ap     1.641593  
      42App    1.647083    88Ap     1.652538    89Ap     1.661932  
      43App    1.665965    44App    1.668844    45App    1.686034  
      90Ap     1.700200    91Ap     1.708310    46App    1.714726  
      47App    1.716071    92Ap     1.780866    93Ap     1.792631  
      94Ap     1.823367    48App    1.879020    49App    1.881836  
      95Ap     1.936158    50App    1.939297    96Ap     1.962999  
      97Ap     1.964714    98Ap     1.965423    51App    1.981260  
      99Ap     2.017572   100Ap     2.021770    52App    2.032152  
     101Ap     2.049351    53App    2.068635   102Ap     2.084736  
     103Ap     2.104521   104Ap     2.141120    54App    2.344342  
     105Ap     2.433710   106Ap     2.513365   107Ap     2.526384  
      55App    2.556239   108Ap     2.600488    56App    2.605938  
     109Ap     2.763654   110Ap     3.113888   111Ap     3.265995  
     112Ap     3.286497   113Ap     6.686430    57App    6.695323  
      58App    6.710724   114Ap     6.723433    59App    6.733768  
      60App    6.741239    61App    6.741619   115Ap     6.745986  
     116Ap     6.746477    62App    6.759732    63App    6.775872  
     117Ap     6.779292    64App    6.787212   118Ap     6.796279  
     119Ap     6.812469   120Ap     6.848565   121Ap     6.851724  
     122Ap     6.878888   123Ap     7.019820   124Ap     7.042014  
      65App    8.840968    66App    8.911772   125Ap     8.965361  
      67App    8.972182    68App    9.038524   126Ap     9.049796  
     127Ap     9.082208   128Ap     9.187848   129Ap     9.214971  
     130Ap     9.260094   131Ap     9.412102   132Ap     9.439406  
     133Ap    18.461864   134Ap    19.055656   135Ap    19.247500  
     136Ap    19.441286  

    Final Occupation by Irrep:
             Ap   App 
    DOCC [    25,    7 ]

  @DF-RKS Final Energy: -1592.95449332866224

   => Energetics <=

    Nuclear Repulsion Energy =            333.6998442875182604
    One-Electron Energy =               -2864.4782503246356100
    Two-Electron Energy =                1040.7102215952847928
    DFT Exchange-Correlation Energy =    -102.8850777768298315
    Empirical Dispersion Energy =          -0.0012311100000000
    VV10 Nonlocal Energy =                  0.0000000000000000
    Total Energy =                      -1592.9544933286622381

Computation Completed


Properties will be evaluated at   0.000000,   0.000000,   0.000000 [a0]

Properties computed using the SCF density matrix

  Nuclear Dipole Moment: [e a0]
     X:    -0.0000      Y:    -0.0000      Z:     0.0000

  Electronic Dipole Moment: [e a0]
     X:     0.1167      Y:     0.4449      Z:     0.0000

  Dipole Moment: [e a0]
     X:     0.1167      Y:     0.4449      Z:     0.0000     Total:     0.4599

  Dipole Moment: [D]
     X:     0.2966      Y:     1.1308      Z:     0.0000     Total:     1.1691


*** tstop() called on compute276.bc4.acrc.priv at Sun Nov  7 05:06:30 2021
Module time:
	user time   =      52.92 seconds =       0.88 minutes
	system time =       4.92 seconds =       0.08 minutes
	total time  =          4 seconds =       0.07 minutes
Total time:
	user time   =      52.92 seconds =       0.88 minutes
	system time =       4.92 seconds =       0.08 minutes
	total time  =          4 seconds =       0.07 minutes

    Psi4 stopped on: Sunday, 07 November 2021 05:06AM
    Psi4 wall time for execution: 0:00:04.35

*** Psi4 exiting successfully. Buy a developer a beer!
