
    -----------------------------------------------------------------------
          Psi4: An Open-Source Ab Initio Electronic Structure Package
                               Psi4 1.4.1 release

                         Git: Rev {HEAD} cd00f19 


    D. G. A. Smith, L. A. Burns, A. C. Simmonett, R. M. Parrish,
    M. C. Schieber, R. Galvelis, P. Kraus, H. Kruse, R. Di Remigio,
    A. Alenaizan, A. M. James, S. Lehtola, J. P. Misiewicz, M. Scheurer,
    R. A. Shaw, J. B. Schriber, Y. Xie, Z. L. Glick, D. A. Sirianni,
    J. S. O'Brien, J. M. Waldrop, A. Kumar, E. G. Hohenstein,
    B. P. Pritchard, B. R. Brooks, H. F. Schaefer III, A. Yu. Sokolov,
    K. Patkowski, A. E. DePrince III, U. Bozkaya, R. A. King,
    F. A. Evangelista, J. M. Turney, T. D. Crawford, C. D. Sherrill,
    J. Chem. Phys. 152(18) 184108 (2020). https://doi.org/10.1063/5.0006002

                            Additional Code Authors
    E. T. Seidl, C. L. Janssen, E. F. Valeev, M. L. Leininger,
    J. F. Gonthier, R. M. Richard, H. R. McAlexander, M. Saitow, X. Wang,
    P. Verma, and M. H. Lechner

             Previous Authors, Complete List of Code Contributors,
                       and Citations for Specific Modules
    https://github.com/psi4/psi4/blob/master/codemeta.json
    https://github.com/psi4/psi4/graphs/contributors
    http://psicode.org/psi4manual/master/introduction.html#citing-psifour

    -----------------------------------------------------------------------


    Psi4 started on: Sunday, 07 November 2021 05:06AM

    Process ID: 1933
    Host:       compute319.bc4.acrc.priv
    PSIDATADIR: /mnt/storage/home/zw18965/.conda/envs/p4env/share/psi4
    Memory:     500.0 MiB
    Threads:    28
    
  ==> Input File <==

--------------------------------------------------------------------------
memory 120 GB

molecule {
0 4
V          0.00000        0.00000        0.00000
S          0.00000        0.00000        2.04800
 }

set reference uks
set dynamic_level 1
set basis Def2-TZVPPD

energy("SCAN-D3BJ")
--------------------------------------------------------------------------

  Memory set to 111.759 GiB by Python driver.

Scratch directory: /tmp/

*** tstart() called on compute319.bc4.acrc.priv
*** at Sun Nov  7 05:06:22 2021

   => Loading Basis Set <=

    Name: DEF2-TZVPPD
    Role: ORBITAL
    Keyword: BASIS
    atoms 1 entry V          line   924 file /mnt/storage/home/zw18965/.conda/envs/p4env/share/psi4/basis/def2-tzvppd.gbs 
    atoms 2 entry S          line   558 file /mnt/storage/home/zw18965/.conda/envs/p4env/share/psi4/basis/def2-tzvppd.gbs 

   => SCAN-D3(BJ): Empirical Dispersion <=

    Grimme's -D3 (BJ-damping) Dispersion Correction
    Grimme S.; Ehrlich S.; Goerigk L. (2011), J. Comput. Chem., 32: 1456
    Parametrisation from:    J.G. Brandenburg, J. E. Bates, J. Sun, J.P. Perdew, Phys. Rev. B 94, 115144, 2016

        s6 =       1.000000
        s8 =       0.000000
        a1 =       0.538000
        a2 =       5.420000


         ---------------------------------------------------------
                                   SCF
               by Justin Turney, Rob Parrish, Andy Simmonett
                          and Daniel G. A. Smith
                              UKS Reference
                       28 Threads, 114440 MiB Core
         ---------------------------------------------------------

  ==> Geometry <==

    Molecular point group: c2v
    Full point group: C_inf_v

    Geometry (in Angstrom), charge = 0, multiplicity = 4:

       Center              X                  Y                   Z               Mass       
    ------------   -----------------  -----------------  -----------------  -----------------
         V            0.000000000000     0.000000000000    -0.789700172274    50.943957040000
         S            0.000000000000     0.000000000000     1.258299827726    31.972071174400

  Running in c2v symmetry.

  Rotational constants: A = ************  B =      0.20460  C =      0.20460 [cm^-1]
  Rotational constants: A = ************  B =   6133.83852  C =   6133.83852 [MHz]
  Nuclear repulsion =   95.086530042265622

  Charge       = 0
  Multiplicity = 4
  Electrons    = 39
  Nalpha       = 21
  Nbeta        = 18

  ==> Algorithm <==

  SCF Algorithm Type is DF.
  DIIS enabled.
  MOM disabled.
  Fractional occupation disabled.
  Guess Type is SAD.
  Energy threshold   = 1.00e-06
  Density threshold  = 1.00e-06
  Integral threshold = 1.00e-12

  ==> Primary Basis <==

  Basis Set: DEF2-TZVPPD
    Blend: DEF2-TZVPPD
    Number of shells: 36
    Number of basis functions: 118
    Number of Cartesian functions: 141
    Spherical Harmonics?: true
    Max angular momentum: 4

  ==> DFT Potential <==

   => Composite Functional: SCAN-D3BJ <= 

    SCAN Meta-GGA XC Functional
(10.1103/PhysRevLett.115.036402)
    J. Sun, A. Ruzsinszky, J. P. Perdew  Phys. Rev. Lett. 115, 036402, 2015


    Deriv               =              1
    GGA                 =           TRUE
    Meta                =           TRUE

    Exchange Hybrid     =          FALSE
    MP2 Hybrid          =          FALSE

   => Exchange Functionals <=

    1.0000   XC_MGGA_X_SCAN

   => Correlation Functionals <=

    1.0000   XC_MGGA_C_SCAN

   => LibXC Density Thresholds  <==

    XC_MGGA_C_SCAN:  1.00E-15 
    XC_MGGA_X_SCAN:  1.00E-15 

   => Molecular Quadrature <=

    Radial Scheme          =       TREUTLER
    Pruning Scheme         =           NONE
    Nuclear Scheme         =       TREUTLER

    BS radius alpha        =              1
    Pruning alpha          =              1
    Radial Points          =             75
    Spherical Points       =            302
    Total Points           =          44350
    Total Blocks           =            435
    Max Points             =            255
    Max Functions          =            117
    Weights Tolerance      =       1.00E-15

   => Loading Basis Set <=

    Name: (DEF2-TZVPPD AUX)
    Role: JKFIT
    Keyword: DF_BASIS_SCF
    atoms 1 entry V          line  1600 file /mnt/storage/home/zw18965/.conda/envs/p4env/share/psi4/basis/def2-universal-jkfit.gbs 
    atoms 2 entry S          line   903 file /mnt/storage/home/zw18965/.conda/envs/p4env/share/psi4/basis/def2-universal-jkfit.gbs 

  ==> Integral Setup <==

  DFHelper Memory: AOs need 0.048 GiB; user supplied 83.514 GiB. Using in-core AOs.

  ==> MemDFJK: Density-Fitted J/K Matrices <==

    J tasked:                   Yes
    K tasked:                    No
    wK tasked:                   No
    OpenMP threads:              28
    Memory [MiB]:             85518
    Algorithm:                 Core
    Schwarz Cutoff:           1E-12
    Mask sparsity (%):       0.7756
    Fitting Condition:        1E-10

   => Auxiliary Basis Set <=

  Basis Set: (DEF2-TZVPPD AUX)
    Blend: DEF2-UNIVERSAL-JKFIT
    Number of shells: 96
    Number of basis functions: 392
    Number of Cartesian functions: 532
    Spherical Harmonics?: true
    Max angular momentum: 6

  Cached 100.0% of DFT collocation blocks in 0.305 [GiB].

  Minimum eigenvalue in the overlap matrix is 6.6965923759E-04.
  Reciprocal condition number of the overlap matrix is 1.4006141092E-04.
    Using symmetric orthogonalization.

  ==> Pre-Iterations <==

  SCF Guess: Superposition of Atomic Densities via on-the-fly atomic UHF (no occupation information).

   -------------------------
    Irrep   Nso     Nmo    
   -------------------------
     A1        49      49 
     A2        13      13 
     B1        28      28 
     B2        28      28 
   -------------------------
    Total     118     118
   -------------------------

  ==> Iterations <==

                           Total Energy        Delta E     RMS |[F,P]|

   @DF-UKS iter SAD: -1341.84447080355812   -1.34184e+03   0.00000e+00 
    Occupation by irrep:
             A1    A2    B1    B2 
    DOCC [    10,    0,    4,    4 ]
    SOCC [     1,    0,    1,    1 ]

   @DF-UKS iter   1: -1339.36990439192346    2.47457e+00   4.73075e-02 DIIS
    Occupation by irrep:
             A1    A2    B1    B2 
    DOCC [    10,    0,    4,    4 ]
    SOCC [     3,    0,    0,    0 ]

   @DF-UKS iter   2: -1316.53595902583197    2.28339e+01   1.05260e-01 DIIS
    Occupation by irrep:
             A1    A2    B1    B2 
    DOCC [    10,    0,    4,    4 ]
    SOCC [     2,    1,    0,    0 ]

   @DF-UKS iter   3: -1340.60028013461260   -2.40643e+01   2.84660e-02 DIIS
   @DF-UKS iter   4: -1338.44122497617036    2.15906e+00   5.06615e-02 DIIS
   @DF-UKS iter   5: -1339.77816169237167   -1.33694e+00   4.28209e-02 DIIS
   @DF-UKS iter   6: -1338.26465894976627    1.51350e+00   5.22230e-02 DIIS
   @DF-UKS iter   7: -1338.27157659682598   -6.91765e-03   5.21923e-02 DIIS
   @DF-UKS iter   8: -1341.52623838999375   -3.25466e+00   2.40351e-02 DIIS
   @DF-UKS iter   9: -1342.28156108272378   -7.55323e-01   4.35675e-03 DIIS
   @DF-UKS iter  10: -1342.27607479787071    5.48628e-03   4.64400e-03 DIIS
   @DF-UKS iter  11: -1342.31985294174501   -4.37781e-02   7.33577e-04 DIIS
   @DF-UKS iter  12: -1342.32105324176428   -1.20030e-03   1.38262e-04 DIIS
   @DF-UKS iter  13: -1342.32109564883785   -4.24071e-05   2.57216e-05 DIIS
   @DF-UKS iter  14: -1342.32109987708895   -4.22825e-06   9.65057e-06 DIIS
   @DF-UKS iter  15: -1342.32110076689378   -8.89805e-07   7.27567e-06 DIIS
   @DF-UKS iter  16: -1342.32110093816573   -1.71272e-07   1.17154e-06 DIIS
   @DF-UKS iter  17: -1342.32110094288100   -4.71528e-09   5.07239e-07 DIIS
  Energy and wave function converged.


  ==> Post-Iterations <==

   Electrons on quadrature grid:
      Nalpha   =   20.9999998431 ; deviation = -1.569e-07
      Nbeta    =   18.0000007156 ; deviation = 7.156e-07
      Ntotal   =   39.0000005586 ; deviation = 5.586e-07 

   @Spin Contamination Metric:   1.665235590E-01
   @S^2 Expected:                3.750000000E+00
   @S^2 Observed:                3.916523559E+00
   @S   Expected:                1.500000000E+00
   @S   Observed:                1.500000000E+00

    Orbital Energies [Eh]
    ---------------------

    Alpha Occupied:                                                       

       1A1  -196.407042     2A1   -88.463257     3A1   -22.092208  
       4A1   -18.578842     1B2   -18.572769     1B1   -18.572769  
       5A1    -7.818178     2B2    -5.755700     2B1    -5.755700  
       6A1    -5.755347     7A1    -2.594522     8A1    -1.629900  
       3B1    -1.626726     3B2    -1.626726     9A1    -0.585563  
      10A1    -0.264157     4B1    -0.228789     4B2    -0.228789  
      11A1    -0.187194    12A1    -0.172345     1A2    -0.172163  

    Alpha Virtual:                                                        

       5B1    -0.122640     5B2    -0.122640    13A1    -0.109727  
       6B1    -0.024277     6B2    -0.024277    14A1     0.030257  
      15A1     0.060076     7B2     0.071472     7B1     0.071472  
      16A1     0.089119     8B1     0.090242     8B2     0.090242  
      17A1     0.116282     2A2     0.116288    18A1     0.139123  
       9B1     0.171678     9B2     0.171678    19A1     0.178789  
       3A2     0.209916    20A1     0.209949    10B1     0.261518  
      10B2     0.261518    21A1     0.262477    22A1     0.279578  
      11B2     0.386985    11B1     0.386985    23A1     0.454052  
      12B2     0.510383    12B1     0.510383     4A2     0.520768  
      24A1     0.520848    25A1     0.540674    13B2     0.555427  
      13B1     0.555427    26A1     0.619641     5A2     0.619676  
      27A1     0.666592    14B2     0.711639    14B1     0.711639  
      28A1     0.772035    29A1     1.068995    15B2     1.083811  
      15B1     1.083811     6A2     1.095024    30A1     1.095092  
      16B1     1.276853    16B2     1.276853    31A1     1.523711  
       7A2     1.684729    32A1     1.684809    17B2     1.703522  
      17B1     1.703522    18B2     1.709546    18B1     1.709546  
      33A1     1.742807    19B2     1.753708    19B1     1.753708  
      34A1     1.807715    35A1     1.839505     8A2     1.839688  
      36A1     1.842599    20B1     2.024941    20B2     2.024941  
      37A1     2.118967    21B2     2.210490    21B1     2.210490  
      38A1     2.326074    39A1     2.404797     9A2     2.404943  
      22B2     2.518208    22B1     2.518208    40A1     3.278702  
      41A1     4.140259    10A2     4.140937    23B2     4.142472  
      23B1     4.142472    11A2     4.171227    42A1     4.172188  
      43A1     4.284524    24B2     4.287130    24B1     4.287130  
      25B2     4.580359    25B1     4.580359    12A2     4.629854  
      44A1     4.630052    26B1     4.797868    26B2     4.797868  
      45A1     4.940469    13A2     6.821990    46A1     6.822204  
      27B2     6.866653    27B1     6.866653    47A1     6.986682  
      28B2     9.044343    28B1     9.044343    48A1     9.288130  
      49A1    18.787774  

    Beta Occupied:                                                        

       1A1  -196.404026     2A1   -88.467972     3A1   -22.028869  
       4A1   -18.548825     1B2   -18.527818     1B1   -18.527818  
       5A1    -7.817735     2B1    -5.759989     2B2    -5.759989  
       6A1    -5.758679     7A1    -2.473594     8A1    -1.547689  
       3B2    -1.489752     3B1    -1.489752     9A1    -0.600619  
      10A1    -0.248801     4B1    -0.229549     4B2    -0.229549  

    Beta Virtual:                                                         

      11A1    -0.074156     5B2    -0.060916     5B1    -0.060916  
      12A1    -0.051333     1A2    -0.024719    13A1    -0.024689  
       6B1     0.016399     6B2     0.016399    14A1     0.038710  
      15A1     0.063594     7B1     0.083959     7B2     0.083959  
       8B1     0.106550     8B2     0.106550    16A1     0.116003  
      17A1     0.151877     2A2     0.151901    18A1     0.163659  
      19A1     0.182036     9B2     0.190674     9B1     0.190674  
      20A1     0.213475     3A2     0.213512    10B1     0.261787  
      10B2     0.261787    21A1     0.268659    22A1     0.307223  
      11B2     0.446932    11B1     0.446932    23A1     0.474933  
      12B2     0.515281    12B1     0.515281    24A1     0.518838  
       4A2     0.518910    25A1     0.558044    13B2     0.564348  
      13B1     0.564348    26A1     0.667813    27A1     0.696688  
       5A2     0.696732    14B2     0.764464    14B1     0.764464  
      28A1     0.820589    29A1     1.087841    30A1     1.182223  
       6A2     1.182533    15B2     1.230108    15B1     1.230108  
      16B2     1.326119    16B1     1.326119    31A1     1.533591  
      32A1     1.656574     7A2     1.656594    17B1     1.683322  
      17B2     1.683322    18B2     1.717541    18B1     1.717541  
      33A1     1.773959    19B1     1.817615    19B2     1.817615  
       8A2     1.831809    34A1     1.831882    35A1     1.871870  
      36A1     1.903752    20B1     2.012627    20B2     2.012627  
      37A1     2.130623    21B1     2.240029    21B2     2.240029  
      38A1     2.428320     9A2     2.540262    39A1     2.540270  
      22B2     2.593004    22B1     2.593004    40A1     3.321269  
      23B2     4.302041    23B1     4.302041    10A2     4.315900  
      41A1     4.316510    11A2     4.341220    42A1     4.341422  
      43A1     4.423685    24B2     4.429886    24B1     4.429886  
      44A1     4.727869    12A2     4.727911    25B2     4.743397  
      25B1     4.743397    26B2     4.916880    26B1     4.916880  
      45A1     5.067513    13A2     6.803669    46A1     6.803898  
      27B2     6.852184    27B1     6.852184    47A1     6.976622  
      28B1     9.025590    28B2     9.025590    48A1     9.275077  
      49A1    18.776232  

    Final Occupation by Irrep:
             A1    A2    B1    B2 
    DOCC [    10,    0,    4,    4 ]
    SOCC [     2,    1,    0,    0 ]

  @DF-UKS Final Energy: -1342.32110094288100

   => Energetics <=

    Nuclear Repulsion Energy =             95.0865300422656219
    One-Electron Energy =               -2036.9720440969804258
    Two-Electron Energy =                 670.7460609753971994
    DFT Exchange-Correlation Energy =     -71.1814135635631970
    Empirical Dispersion Energy =          -0.0002343000000000
    VV10 Nonlocal Energy =                  0.0000000000000000
    Total Energy =                      -1342.3211009428810030

  UHF NO Occupations:
  HONO-2 :   11 A1 1.0000000
  HONO-1 :    1 A2 1.0000000
  HONO-0 :   12 A1 1.0000000
  LUNO+0 :    5 B1 0.0297559
  LUNO+1 :    5 B2 0.0297559
  LUNO+2 :   13 A1 0.0246417
  LUNO+3 :   14 A1 0.0000935


Computation Completed


Properties will be evaluated at   0.000000,   0.000000,   0.000000 [a0]

Properties computed using the SCF density matrix

  Nuclear Dipole Moment: [e a0]
     X:     0.0000      Y:     0.0000      Z:     3.7222

  Electronic Dipole Moment: [e a0]
     X:     0.0000      Y:     0.0000      Z:    -5.8129

  Dipole Moment: [e a0]
     X:     0.0000      Y:     0.0000      Z:    -2.0908     Total:     2.0908

  Dipole Moment: [D]
     X:     0.0000      Y:     0.0000      Z:    -5.3142     Total:     5.3142


*** tstop() called on compute319.bc4.acrc.priv at Sun Nov  7 05:06:35 2021
Module time:
	user time   =     288.82 seconds =       4.81 minutes
	system time =      10.80 seconds =       0.18 minutes
	total time  =         13 seconds =       0.22 minutes
Total time:
	user time   =     288.82 seconds =       4.81 minutes
	system time =      10.80 seconds =       0.18 minutes
	total time  =         13 seconds =       0.22 minutes

    Psi4 stopped on: Sunday, 07 November 2021 05:06AM
    Psi4 wall time for execution: 0:00:12.61

*** Psi4 exiting successfully. Buy a developer a beer!
